Title
81343
    1CHL1    C3    1   1.346   6.298  10.283 -0.0002 -0.2572  0.2305
    1CHL1    H3    2   1.453   6.270  10.290 -0.1686 -0.2870  3.2552
    1CHL1    O3    3   1.277   6.252  10.398  0.0882  0.6237 -0.1177
    1CHL1   H3'    4   1.183   6.236  10.382  0.2064  0.9325 -1.1442
    1CHL1    C4    5   1.335   6.453  10.281 -0.3714 -0.0583  0.6898
    1CHL1   H4A    6   1.226   6.470  10.294 -0.1177  0.4740  2.3888
    1CHL1   H4B    7   1.390   6.505  10.362 -1.5262  4.0310 -1.0089
    1CHL1    C5    8   1.374   6.518  10.146  0.1547  0.1830  0.0793
    1CHL1    C6    9   1.438   6.634  10.137 -0.6735 -0.1091 -0.4664
    1CHL1    H6   10   1.464   6.675  10.236  1.6950 -2.5046 -0.0480
    1CHL1    C7   11   1.488   6.697  10.012  0.5939 -0.5517 -0.1953
    1CHL1   H7A   12   1.473   6.807  10.015  2.6583 -0.2031 -1.4309
    1CHL1   H7B   13   1.596   6.676   9.996  0.7755 -0.9748  1.5333
    1CHL1    C8   14   1.412   6.652   9.889 -0.4076  0.1059 -0.3341
    1CHL1    H8   15   1.314   6.702   9.900  0.1561  0.9010  1.1713
    1CHL1   C14   16   1.479   6.692   9.758  0.3137  0.2522 -0.2363
    1CHL1   H14   17   1.581   6.648   9.758  0.1279 -0.3544 -3.5071
    1CHL1   C15   18   1.491   6.846   9.747  0.1209  0.4628 -0.7627
    1CHL1  H15A   19   1.408   6.905   9.791  0.9746  1.2803 -0.2689
    1CHL1  H15B   20   1.589   6.874   9.788  0.3205  0.1344 -1.0092
    1CHL1   C16   21   1.493   6.883   9.596 -0.3026  0.2809  0.0571
    1CHL1  H16A   22   1.402   6.936   9.563 -0.4062 -0.0529 -0.1951
    1CHL1  H16B   23   1.581   6.941   9.560  0.2585 -0.9079 -0.5340
    1CHL1   C17   24   1.485   6.744   9.529  0.4887 -0.0253  0.3080
    1CHL1   H17   25   1.588   6.704   9.519  0.3168  0.4033 -4.8366
    1CHL1   C13   26   1.400   6.658   9.631  0.2932  0.3709  0.6520
    1CHL1   C18   27   1.249   6.714   9.640  0.3259 -0.4621  0.2930
    1CHL1  H18A   28   1.266   6.823   9.646 -0.8462 -0.3324  1.2800
    1CHL1  H18B   29   1.192   6.679   9.551 -0.1935  0.5635  0.2204
    1CHL1  H18C   30   1.197   6.687   9.734 -3.0635 -0.2492 -1.4277
    1CHL1   C12   31   1.404   6.510   9.627 -0.1889 -0.2988  0.3515
    1CHL1  H12A   32   1.340   6.473   9.545 -0.2350 -1.2966  0.8292
    1CHL1  H12B   33   1.510   6.488   9.604 -0.3194 -0.5590 -0.0049
    1CHL1   C11   34   1.346   6.436   9.752  0.4271  0.4905 -0.3298
    1CHL1  H11A   35   1.236   6.425   9.741  0.1391  1.7793  1.0325
    1CHL1  H11B   36   1.380   6.330   9.752  0.3004  0.4511 -0.7071
    1CHL1    C9   37   1.399   6.497   9.888  0.1514 -0.1961 -0.0794
    1CHL1    H9   38   1.502   6.455   9.886 -0.8465 -2.6332 -2.0155
    1CHL1   C10   39   1.324   6.448  10.015 -0.8046 -0.2215  0.3348
    1CHL1   C19   40   1.174   6.478  10.004  0.4991 -0.0486 -0.2617
    1CHL1  H19A   41   1.110   6.448  10.090  1.2543 -0.8106  0.0428
    1CHL1  H19B   42   1.160   6.587   9.992  0.6060 -0.0484 -0.3900
    1CHL1  H19C   43   1.136   6.430   9.911  0.1756  0.7232 -0.5279
    1CHL1    C1   44   1.352   6.295  10.036 -0.1053 -0.8756 -0.4477
    1CHL1   H1A   45   1.328   6.240   9.943  2.2061 -0.6366 -1.2246
    1CHL1   H1B   46   1.463   6.290  10.036 -0.0591  0.0045 -0.6987
    1CHL1    C2   47   1.284   6.239  10.154 -0.4808  0.0506  0.5097
    1CHL1   H2A   48   1.301   6.129  10.152 -1.6911 -0.1427  0.0240
    1CHL1   H2B   49   1.173   6.251  10.155 -0.6868 -1.6665  2.1544
    1CHL1   C20   50   1.444   6.747   9.382 -0.5373  0.1255 -0.0080
    1CHL1   H20   51   1.334   6.765   9.378 -0.5964 -0.3871 -0.8747
    1CHL1   C21   52   1.475   6.614   9.313  0.3074  0.5427  0.1649
    1CHL1  H21A   53   1.413   6.612   9.221 -0.8852 -3.3538  0.9505
    1CHL1  H21B   54   1.444   6.523   9.368 -2.2093  1.6974  0.7212
    1CHL1  H21C   55   1.583   6.621   9.289  0.3240  1.0263  0.3557
    1CHL1   C22   56   1.514   6.858   9.290 -0.4546  0.2606  0.7349
    1CHL1  H22A   57   1.484   6.959   9.328  0.8709  0.5578  1.0005
    1CHL1  H22B   58   1.623   6.860   9.310 -0.2306 -0.0742 -0.4393
    1CHL1   C23   59   1.474   6.853   9.143  0.0895  0.0251  0.5643
    1CHL1  H23A   60   1.512   6.765   9.087 -1.2457  0.8409 -1.7304
    1CHL1  H23B   61   1.363   6.855   9.134  0.3355  2.3420 -3.3455
    1CHL1   C24   62   1.517   6.981   9.072 -0.1139 -0.6269 -1.0500
    1CHL1  H24A   63   1.473   7.066   9.129 -1.4599 -1.6877 -0.4824
    1CHL1  H24B   64   1.628   6.984   9.080 -0.1621 -2.8701  1.0656
    1CHL1   C25   65   1.483   6.993   8.922 -0.1306 -0.5007  0.0619
    1CHL1   H25   66   1.373   7.004   8.925  0.0739  1.8010 -0.0159
    1CHL1   C26   67   1.539   7.127   8.860 -0.3262  0.4926  0.1095
    1CHL1  H26A   68   1.648   7.121   8.841 -0.4213 -1.2499 -0.0267
    1CHL1  H26B   69   1.484   7.144   8.765 -0.0976 -0.2007 -0.1500
    1CHL1  H26C   70   1.532   7.211   8.933 -0.6685  0.0242  0.6242
    1CHL1   C27   71   1.516   6.862   8.842  1.2016  0.8102  0.0435
    1CHL1  H27A   72   1.445   6.781   8.871  2.2310  0.1065  0.6487
    1CHL1  H27B   73   1.509   6.876   8.732 -0.1700 -0.9989 -0.1399
    1CHL1  H27C   74   1.619   6.834   8.873  0.9964 -1.0417 -0.8220
    2CHL1    C3   75   2.638   3.566   9.996  0.5189  0.2607 -0.7023
    2CHL1    H3   76   2.720   3.492   9.985 -1.3778 -2.0854  0.5256
    2CHL1    O3   77   2.580   3.558  10.123 -0.0328 -0.1147 -0.6920
    2CHL1   H3'   78   2.529   3.636  10.144 -1.6267 -1.2431 -0.2472
    2CHL1    C4   79   2.695   3.706   9.977 -0.2118  0.0351  0.3003
    2CHL1   H4A   80   2.634   3.792  10.013 -1.8893 -0.8043 -0.5009
    2CHL1   H4B   81   2.764   3.718  10.063  2.2976 -0.9449 -1.5153
    2CHL1    C5   82   2.754   3.723   9.845  0.1678  0.5634 -0.8327
    2CHL1    C6   83   2.880   3.758   9.839  0.2342  0.0638 -0.1003
    2CHL1    H6   84   2.942   3.770   9.929  0.4682  1.1988 -0.4081
    2CHL1    C7   85   2.942   3.778   9.705 -0.1394 -0.2829 -0.5402
    2CHL1   H7A   86   2.999   3.873   9.707  1.2658 -1.0148 -3.3947
    2CHL1   H7B   87   3.016   3.699   9.684 -0.2486  0.0525 -2.2465
    2CHL1    C8   88   2.849   3.781   9.584  0.2154  0.7484  0.0101
    2CHL1    H8   89   2.804   3.883   9.585  0.7711  1.0758 -3.1562
    2CHL1   C14   90   2.924   3.752   9.455 -0.1971  0.3095 -0.1404
    2CHL1   H14   91   2.968   3.650   9.462 -0.5247  0.1315 -0.7041
    2CHL1   C15   92   3.046   3.844   9.424 -0.0216 -0.0768  0.7520
    2CHL1  H15A   93   3.015   3.950   9.433 -3.6180 -1.0279  0.4772
    2CHL1  H15B   94   3.134   3.832   9.491  1.1041 -1.5123 -0.9324
    2CHL1   C16   95   3.076   3.813   9.276 -0.8478 -0.3639 -0.2060
    2CHL1  H16A   96   3.097   3.913   9.232 -2.2081 -0.6740 -1.6066
    2CHL1  H16B   97   3.154   3.734   9.279  1.8945  2.2101 -1.0630
    2CHL1   C17   98   2.948   3.740   9.218  0.8816  0.0154 -0.5396
    2CHL1   H17   99   2.974   3.633   9.208 -1.0159 -0.3814 -1.4552
    2CHL1   C13  100   2.841   3.756   9.328 -0.0285 -0.2028 -0.2284
    2CHL1   C18  101   2.773   3.895   9.311 -0.7137 -0.5018 -0.5684
    2CHL1  H18A  102   2.704   3.913   9.396 -0.3364  1.5419 -0.6775
    2CHL1  H18B  103   2.850   3.975   9.320 -1.7954  0.5287 -0.2973
    2CHL1  H18C  104   2.712   3.906   9.218  0.4040  0.3994 -1.2159
    2CHL1   C12  105   2.750   3.636   9.335 -0.0166 -0.2614 -0.2801
    2CHL1  H12A  106   2.694   3.628   9.239 -0.6569  1.5948 -0.0857
    2CHL1  H12B  107   2.822   3.552   9.345  1.3523  1.1153  1.9280
    2CHL1   C11  108   2.663   3.644   9.464 -0.1691  0.4816 -0.2063
    2CHL1  H11A  109   2.581   3.718   9.452  0.0430  0.6287 -0.7479
    2CHL1  H11B  110   2.612   3.547   9.482 -0.0660  0.1023 -1.9290
    2CHL1    C9  111   2.748   3.674   9.597 -0.1174 -0.1382 -0.5682
    2CHL1    H9  112   2.808   3.581   9.609  2.0150  0.9154 -2.7591
    2CHL1   C10  113   2.663   3.685   9.728  0.4163  0.2598 -0.7109
    2CHL1   C19  114   2.542   3.792   9.716 -0.9725 -0.3560  0.0368
    2CHL1  H19A  115   2.582   3.890   9.682 -0.9694 -0.5593 -0.5444
    2CHL1  H19B  116   2.471   3.758   9.638 -2.2419  2.0941  0.0888
    2CHL1  H19C  117   2.502   3.788   9.820  1.1916  0.1888  0.9310
    2CHL1    C1  118   2.602   3.543   9.756 -0.3872 -1.0666 -1.0359
    2CHL1   H1A  119   2.538   3.517   9.669  0.0490 -3.0128 -0.8140
    2CHL1   H1B  120   2.685   3.472   9.738  1.8989  1.8631 -2.4221
    2CHL1    C2  121   2.534   3.526   9.894 -0.0124  0.3057 -0.0531
    2CHL1   H2A  122   2.518   3.418   9.914  2.1036 -0.2658 -1.3912
    2CHL1   H2B  123   2.439   3.582   9.910 -0.3540 -0.1035 -0.6568
    2CHL1   C20  124   2.911   3.792   9.072 -0.1682 -0.1857 -0.7057
    2CHL1   H20  125   2.886   3.900   9.078 -1.9034 -0.6015  0.0207
    2CHL1   C21  126   2.791   3.720   9.007  0.0253 -0.2168 -0.0087
    2CHL1  H21A  127   2.796   3.611   9.027 -0.6304 -0.2053  0.2291
    2CHL1  H21B  128   2.775   3.748   8.901 -2.2249  0.6045  0.5120
    2CHL1  H21C  129   2.701   3.758   9.060 -0.4559 -1.3841  0.0304
    2CHL1   C22  130   3.041   3.786   8.979  0.1912  0.0306  0.9373
    2CHL1  H22A  131   3.127   3.829   9.033 -1.5131  2.5299  1.7189
    2CHL1  H22B  132   3.062   3.677   8.970  1.8088  0.4738 -0.9725
    2CHL1   C23  133   3.025   3.843   8.837 -0.0532  0.2364  0.2310
    2CHL1  H23A  134   2.959   3.769   8.787 -2.3110  0.9839  2.0159
    2CHL1  H23B  135   2.960   3.933   8.839 -1.0423 -0.4678  0.3080
    2CHL1   C24  136   3.154   3.885   8.763 -0.4961 -0.3886  0.2218
    2CHL1  H24A  137   3.217   3.948   8.829  0.5754  1.7176 -2.7106
    2CHL1  H24B  138   3.211   3.790   8.758  0.9136  0.4118  0.6943
    2CHL1   C25  139   3.123   3.952   8.631 -0.2641  0.0867  0.0563
    2CHL1   H25  140   3.068   4.040   8.671 -1.5086 -0.7918  0.3218
    2CHL1   C26  141   3.253   3.990   8.567 -0.5601  0.3345  0.4849
    2CHL1  H26A  142   3.334   4.012   8.639  1.6841  0.9170 -2.1279
    2CHL1  H26B  143   3.284   3.905   8.503 -1.6488 -2.0151  2.9743
    2CHL1  H26C  144   3.230   4.084   8.511 -0.6527 -1.4569 -2.5957
    2CHL1   C27  145   3.035   3.878   8.531 -0.8681  0.5073  0.1176
    2CHL1  H27A  146   3.034   3.930   8.433 -0.7929 -1.2197 -0.8174
    2CHL1  H27B  147   3.074   3.775   8.523  0.9987  1.0846  1.5349
    2CHL1  H27C  148   2.934   3.883   8.577  0.1366 -1.3235  2.6281
    3CHL1    C3  149   3.170   3.698  10.247  0.0062  0.6738 -0.3961
    3CHL1    H3  150   3.071   3.692  10.198 -0.0377 -2.0739 -0.0208
    3CHL1    O3  151   3.144   3.661  10.379 -0.1775  0.7090  0.3543
    3CHL1   H3'  152   3.078   3.724  10.408 -0.0996 -0.1283  2.4221
    3CHL1    C4  153   3.271   3.602  10.186 -0.2602  0.2534  0.2840
    3CHL1   H4A  154   3.362   3.630  10.242  0.2621  1.1538 -0.9819
    3CHL1   H4B  155   3.237   3.501  10.215 -1.0692  0.1361 -1.0032
    3CHL1    C5  156   3.294   3.615  10.040 -0.3146  0.1186  0.1319
    3CHL1    C6  157   3.272   3.522   9.943  0.0330 -0.0164  0.6906
    3CHL1    H6  158   3.245   3.420   9.976 -1.3745  0.1072 -0.0306
    3CHL1    C7  159   3.298   3.542   9.795  0.2212 -0.6844 -0.2756
    3CHL1   H7A  160   3.349   3.454   9.752 -1.2453 -2.1655  0.9113
    3CHL1   H7B  161   3.204   3.561   9.738 -0.3253 -2.8706 -0.1383
    3CHL1    C8  162   3.396   3.669   9.775  0.1616  0.2782  0.6882
    3CHL1    H8  163   3.495   3.632   9.810  0.0641  1.2372  1.9853
    3CHL1   C14  164   3.401   3.709   9.630  0.6148  0.3295  0.1332
    3CHL1   H14  165   3.294   3.738   9.619 -0.4015 -3.1689  0.3934
    3CHL1   C15  166   3.426   3.606   9.518 -0.9072  0.8156  0.8665
    3CHL1  H15A  167   3.502   3.533   9.553 -1.8542 -0.9522 -0.6592
    3CHL1  H15B  168   3.325   3.561   9.501 -0.2017 -1.8204  3.1711
    3CHL1   C16  169   3.470   3.696   9.396  0.2397 -0.0743  0.1803
    3CHL1  H16A  170   3.569   3.663   9.359 -0.1091 -2.0139  0.9084
    3CHL1  H16B  171   3.404   3.680   9.308  0.5663  1.7940 -0.4351
    3CHL1   C17  172   3.464   3.848   9.438 -0.3232 -0.1292 -0.3016
    3CHL1   H17  173   3.359   3.883   9.428 -0.1484  0.7151  0.7793
    3CHL1   C13  174   3.484   3.839   9.593 -0.6799 -0.5812  0.0998
    3CHL1   C18  175   3.632   3.806   9.631  0.0372  0.1202  0.0837
    3CHL1  H18A  176   3.681   3.748   9.550 -0.9797 -0.6400 -0.0008
    3CHL1  H18B  177   3.687   3.901   9.646  0.1613  0.0964 -0.2037
    3CHL1  H18C  178   3.637   3.745   9.724 -1.8636 -1.6557 -0.9209
    3CHL1   C12  179   3.431   3.960   9.677 -0.3959 -0.4378  0.6725
    3CHL1  H12A  180   3.496   4.048   9.656 -1.9547  0.6612  0.3372
    3CHL1  H12B  181   3.328   3.980   9.640  0.7604  0.3925 -2.2953
    3CHL1   C11  182   3.413   3.931   9.824  0.7048 -0.0679 -0.4767
    3CHL1  H11A  183   3.510   3.954   9.873 -0.3378  2.1737  0.6097
    3CHL1  H11B  184   3.342   4.011   9.854  1.9913  1.6092 -1.8258
    3CHL1    C9  185   3.350   3.788   9.863 -0.3050 -0.1960  0.1369
    3CHL1    H9  186   3.243   3.790   9.834  0.0920 -0.1909 -1.3851
    3CHL1   C10  187   3.349   3.759  10.017 -0.3794 -0.2051  0.1919
    3CHL1   C19  188   3.497   3.757  10.062  0.2267  0.3711  0.4278
    3CHL1  H19A  189   3.496   3.738  10.171 -2.9036 -0.4182  0.3136
    3CHL1  H19B  190   3.554   3.683  10.003  0.9344  0.9006  0.4480
    3CHL1  H19C  191   3.549   3.852  10.035  0.8649  0.2252  1.1639
    3CHL1    C1  192   3.268   3.872  10.094 -0.0035  0.2177 -0.1068
    3CHL1   H1A  193   3.331   3.964  10.096  0.2782  0.0201  3.8052
    3CHL1   H1B  194   3.179   3.893  10.030 -1.4941  0.9881  2.1432
    3CHL1    C2  195   3.223   3.844  10.237 -0.6920 -0.4530  0.5547
    3CHL1   H2A  196   3.153   3.925  10.264 -0.8016  0.4606 -2.2734
    3CHL1   H2B  197   3.309   3.850  10.308 -0.4147 -1.2718  0.3010
    3CHL1   C20  198   3.553   3.933   9.344  0.9664 -0.0879  0.4843
    3CHL1   H20  199   3.657   3.911   9.374  1.0559  2.0391  1.8450
    3CHL1   C21  200   3.532   4.083   9.371  0.1645  0.0065  0.4720
    3CHL1  H21A  201   3.491   4.102   9.472  0.9276  0.1133  0.7617
    3CHL1  H21B  202   3.474   4.140   9.295  1.7624  1.2509  0.1487
    3CHL1  H21C  203   3.634   4.128   9.368  0.2380  0.0734  3.1587
    3CHL1   C22  204   3.537   3.905   9.194  0.7145  0.1261  0.2958
    3CHL1  H22A  205   3.529   3.798   9.164 -0.5480  0.0673  0.8275
    3CHL1  H22B  206   3.438   3.938   9.157  0.9351  1.2348  0.6895
    3CHL1   C23  207   3.635   3.968   9.096 -0.2260 -0.3489  0.9403
    3CHL1  H23A  208   3.659   4.074   9.122  0.0842 -0.8006  2.5599
    3CHL1  H23B  209   3.737   3.927   9.106 -0.8438 -1.7105  1.8021
    3CHL1   C24  210   3.598   3.957   8.942 -0.1544  0.1477 -0.2614
    3CHL1  H24A  211   3.488   3.945   8.950 -0.0325 -0.5688  0.4116
    3CHL1  H24B  212   3.625   4.048   8.885 -0.1260 -0.0051 -0.4871
    3CHL1   C25  213   3.659   3.828   8.882  0.2149  0.1371 -0.8163
    3CHL1   H25  214   3.647   3.748   8.958  4.0806  1.6877  1.5214
    3CHL1   C26  215   3.584   3.795   8.752 -0.5528  1.0853 -0.3786
    3CHL1  H26A  216   3.476   3.822   8.747 -0.5961  0.4992 -3.6059
    3CHL1  H26B  217   3.630   3.843   8.663  4.2132 -3.4270 -0.5738
    3CHL1  H26C  218   3.592   3.688   8.726 -0.4837  0.8193  0.7347
    3CHL1   C27  219   3.806   3.836   8.855  0.2630 -0.3564  0.8526
    3CHL1  H27A  220   3.836   3.895   8.766  0.0547 -0.6216  0.6095
    3CHL1  H27B  221   3.876   3.856   8.939  0.4107 -0.0996  0.6692
    3CHL1  H27C  222   3.835   3.737   8.814  2.0118  0.0013  1.2141
    4CHL1    C3  223   2.557   5.434  10.595  0.2358  0.0112 -0.1653
    4CHL1    H3  224   2.653   5.450  10.543 -0.5402  0.0813 -1.6095
    4CHL1    O3  225   2.581   5.386  10.728 -0.1157 -0.0092 -0.4244
    4CHL1   H3'  226   2.496   5.385  10.772  0.4489  0.3987  0.6722
    4CHL1    C4  227   2.473   5.564  10.608 -0.4414  0.5031  0.7353
    4CHL1   H4A  228   2.380   5.552  10.667 -0.5468 -2.0200  0.1251
    4CHL1   H4B  229   2.543   5.635  10.657 -1.5449  1.4918  0.8796
    4CHL1    C5  230   2.455   5.619  10.466  0.0537 -0.2251 -0.1228
    4CHL1    C6  231   2.480   5.745  10.429  0.2267 -0.6545  0.9126
    4CHL1    H6  232   2.518   5.815  10.504 -0.1025  0.3898  0.1130
    4CHL1    C7  233   2.475   5.801  10.287 -0.1149  0.4190 -0.5796
    4CHL1   H7A  234   2.456   5.910  10.282 -1.9600  0.1581  0.3445
    4CHL1   H7B  235   2.577   5.780  10.249 -0.7096 -1.5789 -1.0896
    4CHL1    C8  236   2.366   5.726  10.205  0.8010  0.1268  0.3940
    4CHL1    H8  237   2.273   5.752  10.259  2.2046 -0.2558  3.0699
    4CHL1   C14  238   2.357   5.769  10.063 -0.4323 -0.0740  0.5057
    4CHL1   H14  239   2.448   5.739  10.007 -1.5652 -1.4860 -0.6237
    4CHL1   C15  240   2.343   5.918  10.037 -0.0462 -1.4552 -0.8063
    4CHL1  H15A  241   2.274   5.961  10.113  2.0080 -0.2765  0.4652
    4CHL1  H15B  242   2.442   5.965  10.056  1.0968 -3.6037 -1.2958
    4CHL1   C16  243   2.303   5.920   9.887  0.4502  0.8135  0.3560
    4CHL1  H16A  244   2.205   5.972   9.880  0.8483  1.4882 -0.4123
    4CHL1  H16B  245   2.375   5.967   9.816 -0.5707  1.6859 -0.1174
    4CHL1   C17  246   2.269   5.769   9.846  0.0501  0.0559 -0.1124
    4CHL1   H17  247   2.362   5.733   9.798  0.4607  1.0482 -0.0769
    4CHL1   C13  248   2.257   5.696   9.980  0.1255  0.1205  0.5276
    4CHL1   C18  249   2.111   5.715  10.032  0.0113 -0.4747 -0.6840
    4CHL1  H18A  250   2.082   5.822  10.042 -1.6920 -1.0490  0.8549
    4CHL1  H18B  251   2.040   5.673   9.957  0.1415 -0.3125 -0.8976
    4CHL1  H18C  252   2.099   5.663  10.129 -0.5099  0.5107 -0.2063
    4CHL1   C12  253   2.301   5.549   9.978 -0.1656 -0.2063 -0.5211
    4CHL1  H12A  254   2.243   5.479   9.915  1.4193 -1.1601 -0.9570
    4CHL1  H12B  255   2.403   5.550   9.932  0.9664 -1.3716  1.8710
    4CHL1   C11  256   2.327   5.483  10.117 -0.1579  0.3801 -0.4396
    4CHL1  H11A  257   2.228   5.461  10.161  0.0034  0.5381  0.0058
    4CHL1  H11B  258   2.381   5.386  10.106 -0.6668  0.2958 -2.3568
    4CHL1    C9  259   2.401   5.574  10.217  0.5785 -0.6560 -0.3273
    4CHL1    H9  260   2.510   5.566  10.199  0.1246 -2.2511 -2.4672
    4CHL1   C10  261   2.397   5.523  10.368 -0.5348 -0.0028 -0.0984
    4CHL1   C19  262   2.252   5.503  10.416  0.4364 -0.0266  0.5656
    4CHL1  H19A  263   2.196   5.426  10.359  1.0387 -0.0514 -0.0043
    4CHL1  H19B  264   2.248   5.478  10.524 -2.6249  0.2875  0.5750
    4CHL1  H19C  265   2.181   5.588  10.412  1.0605  0.5707  1.9517
    4CHL1    C1  266   2.455   5.378  10.368 -0.7237  0.0794  0.2427
    4CHL1   H1A  267   2.389   5.302  10.321 -0.6909  1.3052 -1.8442
    4CHL1   H1B  268   2.546   5.381  10.304 -1.8062 -1.1386 -1.3884
    4CHL1    C2  269   2.494   5.328  10.510 -0.0349  1.1046 -0.3530
    4CHL1   H2A  270   2.567   5.244  10.510 -2.6870 -1.2692 -1.3456
    4CHL1   H2B  271   2.415   5.284  10.575  0.1523 -0.5965 -1.2350
    4CHL1   C20  272   2.156   5.769   9.741  0.1791  0.1070  0.3766
    4CHL1   H20  273   2.064   5.805   9.792  0.6134  2.6091 -0.5402
    4CHL1   C21  274   2.124   5.626   9.698 -0.6081  1.1645  0.3602
    4CHL1  H21A  275   2.054   5.619   9.613  1.2783 -0.5060 -1.0988
    4CHL1  H21B  276   2.068   5.576   9.781 -1.3013  0.9425 -0.2390
    4CHL1  H21C  277   2.215   5.571   9.667  1.5009  2.4052  4.0083
    4CHL1   C22  278   2.197   5.858   9.616  0.1316 -0.4261  1.0459
    4CHL1  H22A  279   2.202   5.963   9.650 -0.3949  0.0893 -0.4160
    4CHL1  H22B  280   2.289   5.828   9.562  0.5708  1.1566  0.9012
    4CHL1   C23  281   2.089   5.874   9.506 -0.6703  0.2292  1.0587
    4CHL1  H23A  282   2.066   5.778   9.456 -0.9871 -0.2733  2.1405
    4CHL1  H23B  283   1.999   5.919   9.554 -1.0798  0.6977 -0.1444
    4CHL1   C24  284   2.123   5.992   9.414  0.2502 -0.0737 -0.9582
    4CHL1  H24A  285   2.099   6.087   9.467 -0.5950 -0.5668 -0.4528
    4CHL1  H24B  286   2.229   5.984   9.380  0.2186  0.6161 -1.2370
    4CHL1   C25  287   2.051   5.987   9.279  0.4414 -0.5883 -0.1723
    4CHL1   H25  288   1.946   5.956   9.297  1.1132 -0.7876  3.9511
    4CHL1   C26  289   2.059   6.123   9.206  0.3726 -0.4381 -0.3337
    4CHL1  H26A  290   2.015   6.126   9.104  0.8581  3.0691 -0.5195
    4CHL1  H26B  291   2.011   6.204   9.266  1.3903 -0.7615  0.9410
    4CHL1  H26C  292   2.165   6.141   9.180  0.3197  0.4931  0.0654
    4CHL1   C27  293   2.105   5.879   9.186 -0.7529 -0.5310  0.1616
    4CHL1  H27A  294   2.200   5.913   9.139 -0.9645  0.7294  0.6233
    4CHL1  H27B  295   2.127   5.793   9.253 -2.7795 -0.1855  1.3055
    4CHL1  H27C  296   2.030   5.840   9.114 -2.4624  1.7311  0.6525
    5CHL1    C3  297   3.630   3.280  10.253  0.1091 -0.2215  0.6373
    5CHL1    H3  298   3.537   3.332  10.221 -1.3250 -1.9174  1.9378
    5CHL1    O3  299   3.639   3.244  10.388 -0.2888  0.0704 -0.4178
    5CHL1   H3'  300   3.615   3.151  10.381 -0.9384  0.3546 -2.7553
    5CHL1    C4  301   3.644   3.143  10.175 -0.0209  0.5495 -0.1645
    5CHL1   H4A  302   3.736   3.090  10.206 -1.1826 -1.2030  0.3668
    5CHL1   H4B  303   3.559   3.081  10.212 -0.3181  0.5926 -0.7677
    5CHL1    C5  304   3.642   3.162  10.025  0.3865  0.1034 -0.2491
    5CHL1    C6  305   3.544   3.106   9.950 -0.2245  0.0037  0.3875
    5CHL1    H6  306   3.469   3.043  10.001 -0.9404 -0.7245 -1.5143
    5CHL1    C7  307   3.530   3.127   9.803  0.4476  0.3056 -0.0531
    5CHL1   H7A  308   3.513   3.032   9.749 -1.2492  0.5563  0.0156
    5CHL1   H7B  309   3.436   3.184   9.786  0.0201 -0.0391  1.1147
    5CHL1    C8  310   3.656   3.191   9.740 -0.8483  0.3426 -0.0861
    5CHL1    H8  311   3.736   3.114   9.726  0.4664  1.4669  1.1010
    5CHL1   C14  312   3.638   3.237   9.600 -0.8055  0.1069 -0.3150
    5CHL1   H14  313   3.560   3.315   9.607 -2.9478 -1.7035 -2.9155
    5CHL1   C15  314   3.564   3.137   9.504  1.1244 -0.1556 -0.9772
    5CHL1  H15A  315   3.590   3.029   9.514  0.5459 -0.0346  2.4807
    5CHL1  H15B  316   3.455   3.149   9.520  1.5798  0.8699  1.5496
    5CHL1   C16  317   3.601   3.187   9.364 -0.2153 -0.3968 -0.0247
    5CHL1  H16A  318   3.667   3.109   9.319  2.2045  0.4877  1.8469
    5CHL1  H16B  319   3.510   3.195   9.302  0.6889  1.9409 -1.1532
    5CHL1   C17  320   3.687   3.317   9.377 -0.4496  0.0588  0.1043
    5CHL1   H17  321   3.620   3.405   9.385  1.7730  1.9280 -1.0432
    5CHL1   C13  322   3.747   3.298   9.517  0.1934 -0.6865  0.2951
    5CHL1   C18  323   3.859   3.194   9.502  0.3982 -0.2592  0.0763
    5CHL1  H18A  324   3.848   3.134   9.409  2.6226  0.3115 -0.5652
    5CHL1  H18B  325   3.949   3.252   9.474 -0.7550  2.1722  1.2147
    5CHL1  H18C  326   3.881   3.129   9.589  2.9772 -0.7999 -0.9580
    5CHL1   C12  327   3.787   3.421   9.611  0.6742 -0.0210 -0.6566
    5CHL1  H12A  328   3.879   3.463   9.566  2.5304 -1.8521  1.3254
    5CHL1  H12B  329   3.713   3.504   9.621  0.5116 -0.3170  0.7562
    5CHL1   C11  330   3.823   3.379   9.754 -0.6429  0.0998 -0.4116
    5CHL1  H11A  331   3.898   3.299   9.737 -0.0519  0.3917  0.7470
    5CHL1  H11B  332   3.874   3.459   9.812  0.5954 -0.5306 -0.6142
    5CHL1    C9  333   3.707   3.307   9.827 -0.3624  0.0552 -0.4450
    5CHL1    H9  334   3.617   3.371   9.831 -2.3935 -2.8141  1.6055
    5CHL1   C10  335   3.741   3.263   9.974 -0.0774  0.4392 -0.1331
    5CHL1   C19  336   3.876   3.191   9.979 -0.4400  0.4875  0.2289
    5CHL1  H19A  337   3.907   3.155  10.079  1.0115 -0.7212 -0.6316
    5CHL1  H19B  338   3.874   3.103   9.911 -0.1695 -1.3143  2.5002
    5CHL1  H19C  339   3.951   3.263   9.941  0.1866 -1.1837 -1.8112
    5CHL1    C1  340   3.744   3.394  10.056  0.0167 -0.4068  0.1504
    5CHL1   H1A  341   3.833   3.456  10.031  0.7931 -1.3480  0.5651
    5CHL1   H1B  342   3.652   3.452  10.032  1.0998  0.4418 -2.0743
    5CHL1    C2  343   3.747   3.376  10.213 -0.0454  0.1448 -0.4416
    5CHL1   H2A  344   3.747   3.476  10.262 -0.5383 -0.3826  0.6503
    5CHL1   H2B  345   3.842   3.323  10.234 -0.7375 -1.2116 -0.6279
    5CHL1   C20  346   3.782   3.336   9.251  0.4014 -0.5374  0.2336
    5CHL1   H20  347   3.824   3.236   9.229  1.2805 -0.2807  0.7345
    5CHL1   C21  348   3.888   3.444   9.268 -0.8963  0.2676  0.4023
    5CHL1  H21A  349   3.841   3.542   9.294  2.5045  1.8522  0.9049
    5CHL1  H21B  350   3.957   3.454   9.181 -2.7434  0.9538 -1.0126
    5CHL1  H21C  351   3.945   3.414   9.358  1.1369  0.7579 -0.6735
    5CHL1   C22  352   3.703   3.371   9.119  0.7438 -0.8563  0.1906
    5CHL1  H22A  353   3.617   3.301   9.122 -1.0481  1.2327 -0.8330
    5CHL1  H22B  354   3.665   3.475   9.131  0.7852 -0.9472  1.1814
    5CHL1   C23  355   3.773   3.350   8.982 -0.3911  1.1010 -0.1659
    5CHL1  H23A  356   3.876   3.391   8.972 -0.2819  0.8808  0.0334
    5CHL1  H23B  357   3.786   3.240   8.981  0.5415  1.1835 -3.0259
    5CHL1   C24  358   3.681   3.380   8.860  0.3429  0.9075  0.5315
    5CHL1  H24A  359   3.585   3.323   8.856  0.6363  0.4402  0.2078
    5CHL1  H24B  360   3.663   3.490   8.855  0.1355  0.9086  1.2592
    5CHL1   C25  361   3.761   3.338   8.731 -0.8664  0.0503 -0.4048
    5CHL1   H25  362   3.790   3.231   8.742 -1.2437 -0.1880 -1.5772
    5CHL1   C26  363   3.662   3.346   8.607 -0.2709  0.6062 -0.9053
    5CHL1  H26A  364   3.727   3.330   8.518 -0.3905  0.3280 -0.9435
    5CHL1  H26B  365   3.579   3.273   8.610  0.2273 -0.0421 -2.3607
    5CHL1  H26C  366   3.606   3.441   8.601 -0.7453  0.6010  2.2788
    5CHL1   C27  367   3.887   3.415   8.697  0.4995  0.2810 -0.1521
    5CHL1  H27A  368   3.950   3.386   8.784 -0.6393  0.4341  0.7321
    5CHL1  H27B  369   3.932   3.368   8.607 -0.1695 -0.0729 -0.3075
    5CHL1  H27C  370   3.850   3.518   8.679  1.7677  0.7317 -0.2190
    6CHL1    C3  371   1.250   0.783  10.387  0.4725 -0.1710  0.9791
    6CHL1    H3  372   1.361   0.784  10.381  0.4093  2.7861 -0.6791
    6CHL1    O3  373   1.223   0.750  10.522 -0.7627  0.8857 -0.6980
    6CHL1   H3'  374   1.128   0.742  10.528 -0.5914 -1.4734 -0.3967
    6CHL1    C4  375   1.190   0.923  10.358 -0.2307 -0.1985  0.0206
    6CHL1   H4A  376   1.081   0.924  10.381 -0.5532 -3.9647 -0.9316
    6CHL1   H4B  377   1.246   0.998  10.417 -1.3336 -0.6285  1.6189
    6CHL1    C5  378   1.214   0.958  10.212 -0.3397  0.2126 -0.1803
    6CHL1    C6  379   1.274   1.072  10.176 -0.0474 -0.0390 -0.4894
    6CHL1    H6  380   1.318   1.139  10.251  0.1571 -0.4569 -0.2334
    6CHL1    C7  381   1.287   1.119  10.032  0.6200  0.4345  0.0010
    6CHL1   H7A  382   1.268   1.228  10.023 -1.9203  0.1911  1.8181
    6CHL1   H7B  383   1.392   1.104   9.999  0.3221  0.9140 -1.1876
    6CHL1    C8  384   1.188   1.041   9.937 -0.2218 -0.9410  0.3581
    6CHL1    H8  385   1.084   1.080   9.934  0.4000  0.7703  0.0146
    6CHL1   C14  386   1.240   1.056   9.799 -0.0485 -0.1253 -0.1734
    6CHL1   H14  387   1.330   0.991   9.789 -0.2531  0.0431 -3.5724
    6CHL1   C15  388   1.274   1.198   9.754  0.1918  1.1353  0.6621
    6CHL1  H15A  389   1.208   1.277   9.796 -1.4740  0.1176  0.0461
    6CHL1  H15B  390   1.379   1.225   9.776  0.0268  2.2477  0.1017
    6CHL1   C16  391   1.254   1.197   9.599  0.2931 -0.2369  0.6381
    6CHL1  H16A  392   1.177   1.270   9.568  0.9214 -0.1777 -0.8447
    6CHL1  H16B  393   1.350   1.222   9.548  0.5290 -1.8230  0.2811
    6CHL1   C17  394   1.212   1.052   9.563  0.2927  0.1004  1.1748
    6CHL1   H17  395   1.306   0.993   9.557  0.1174 -0.1058  0.3379
    6CHL1   C13  396   1.147   0.996   9.693 -0.0210 -1.0198  0.1939
    6CHL1   C18  397   1.013   1.074   9.689 -0.3915  0.1445  0.6350
    6CHL1  H18A  398   0.944   1.053   9.773 -0.4168 -2.8612 -0.0854
    6CHL1  H18B  399   1.023   1.185   9.693 -0.8327  0.1494  1.6619
    6CHL1  H18C  400   0.958   1.064   9.592 -0.4350 -1.0240  0.7724
    6CHL1   C12  401   1.129   0.848   9.714  0.3151  0.2093  0.1417
    6CHL1  H12A  402   1.053   0.803   9.648  0.4731  0.0676  0.0562
    6CHL1  H12B  403   1.226   0.798   9.694 -0.1643  0.3195 -2.6011
    6CHL1   C11  404   1.087   0.822   9.858  0.5012 -0.5315  1.0769
    6CHL1  H11A  405   0.982   0.856   9.863  0.7349  0.5736 -1.1385
    6CHL1  H11B  406   1.101   0.713   9.875  1.0013 -0.8564 -1.2868
    6CHL1    C9  407   1.186   0.890   9.963  0.7093  0.1242  0.4215
    6CHL1    H9  408   1.291   0.856   9.949  1.1129  0.8776  1.6014
    6CHL1   C10  409   1.149   0.858  10.115  0.3100  0.4369 -0.0048
    6CHL1   C19  410   0.996   0.862  10.132 -0.4809  0.0931  0.9527
    6CHL1  H19A  411   0.941   0.796  10.061 -0.0615  1.0825 -0.3064
    6CHL1  H19B  412   0.967   0.823  10.232  1.1335  1.4109  1.9411
    6CHL1  H19C  413   0.953   0.962  10.111  0.2621 -0.0376 -1.4121
    6CHL1    C1  414   1.206   0.719  10.148 -0.7440 -0.0765  0.3036
    6CHL1   H1A  415   1.152   0.646  10.084 -0.9343  0.0615  0.3057
    6CHL1   H1B  416   1.311   0.705  10.115 -0.8984 -0.1201 -0.1813
    6CHL1    C2  417   1.200   0.673  10.295 -0.4267 -0.2321 -0.5245
    6CHL1   H2A  418   1.257   0.579  10.311 -0.0544  0.3906  2.1655
    6CHL1   H2B  419   1.092   0.659  10.319 -0.1808 -1.5253 -0.1029
    6CHL1   C20  420   1.145   1.042   9.420 -0.4781  0.3375 -0.3832
    6CHL1   H20  421   1.059   1.112   9.425  1.1639  2.3076  0.4920
    6CHL1   C21  422   1.097   0.898   9.378 -0.3323  0.3627 -0.1845
    6CHL1  H21A  423   1.049   0.894   9.278 -0.3428 -1.3829 -0.1258
    6CHL1  H21B  424   1.010   0.857   9.434  0.2976  0.3521  0.8004
    6CHL1  H21C  425   1.188   0.835   9.366  0.5128  1.3886  0.7846
    6CHL1   C22  426   1.248   1.099   9.315  0.6509 -0.6066  0.4322
    6CHL1  H22A  427   1.243   1.209   9.330 -3.3620 -0.8335  1.3607
    6CHL1  H22B  428   1.347   1.056   9.337  1.8195  0.6722 -2.1459
    6CHL1   C23  429   1.205   1.052   9.178 -0.6677 -0.2939 -1.1179
    6CHL1  H23A  430   1.227   0.944   9.166 -0.1042 -0.3521  0.3734
    6CHL1  H23B  431   1.096   1.071   9.174 -0.9628 -1.3477  1.4904
    6CHL1   C24  432   1.285   1.114   9.068  0.1748 -0.4582 -0.0465
    6CHL1  H24A  433   1.280   1.225   9.058  0.0335 -0.6439 -2.2891
    6CHL1  H24B  434   1.387   1.074   9.084 -0.5061 -1.4617  2.0388
    6CHL1   C25  435   1.236   1.053   8.941  0.8844  0.2421  0.2927
    6CHL1   H25  436   1.248   0.943   8.937 -1.7199 -0.0871  0.9748
    6CHL1   C26  437   1.089   1.084   8.922 -0.1131  0.0127 -0.2981
    6CHL1  H26A  438   1.063   1.191   8.939 -0.9464 -0.5178  1.8419
    6CHL1  H26B  439   1.069   1.054   8.817  2.7522  0.1406 -0.9280
    6CHL1  H26C  440   1.021   1.025   8.986 -1.2540  1.1378 -0.4583
    6CHL1   C27  441   1.322   1.110   8.818  0.4286 -0.2462  0.0219
    6CHL1  H27A  442   1.298   1.065   8.719 -2.6071  0.0541  0.5739
    6CHL1  H27B  443   1.318   1.220   8.809  0.0343 -0.4310 -2.5549
    6CHL1  H27C  444   1.430   1.085   8.830  0.7762 -0.4647 -3.0242
    7CHL1    C3  445   4.318   4.059  10.544 -0.8709 -0.5092  0.0981
    7CHL1    H3  446   4.426   4.049  10.569 -0.4019  1.4681 -1.0800
    7CHL1    O3  447   4.254   4.064  10.665 -0.3504  0.2317 -0.1305
    7CHL1   H3'  448   4.187   4.133  10.662 -1.2005 -0.5888 -0.5089
    7CHL1    C4  449   4.293   4.191  10.472  0.1696 -0.2932  0.1757
    7CHL1   H4A  450   4.185   4.205  10.449  0.6350  0.8756 -1.3678
    7CHL1   H4B  451   4.327   4.272  10.540  0.6053 -1.0730  0.8954
    7CHL1    C5  452   4.359   4.184  10.336 -1.2751  0.3413  0.2102
    7CHL1    C6  453   4.460   4.269  10.304 -0.0030  0.5041  0.3761
    7CHL1    H6  454   4.487   4.348  10.375 -1.5052  1.3717 -0.0083
    7CHL1    C7  455   4.526   4.286  10.173 -0.7399  0.1953  0.5681
    7CHL1   H7A  456   4.516   4.391  10.136 -0.3440  0.1271  0.2628
    7CHL1   H7B  457   4.629   4.244  10.176 -0.8278  0.0620  2.0781
    7CHL1    C8  458   4.448   4.212  10.057  0.1963 -0.3549  0.0967
    7CHL1    H8  459   4.359   4.276  10.037  1.1971  0.9162 -0.3368
    7CHL1   C14  460   4.533   4.209   9.938  0.7316  0.3812 -0.4900
    7CHL1   H14  461   4.617   4.143   9.971 -0.0949  0.3151  1.5687
    7CHL1   C15  462   4.595   4.332   9.880  0.4148  0.0267 -0.4370
    7CHL1  H15A  463   4.505   4.395   9.861 -0.1370  0.0270  1.9936
    7CHL1  H15B  464   4.665   4.390   9.943  0.0641  2.0574 -1.8667
    7CHL1   C16  465   4.654   4.277   9.742  0.2050 -0.5401 -0.3747
    7CHL1  H16A  466   4.631   4.339   9.653 -2.1394  0.7975  1.0939
    7CHL1  H16B  467   4.763   4.257   9.749  0.6205  1.2817 -1.3097
    7CHL1   C17  468   4.594   4.138   9.722  0.1821 -0.4708  0.1737
    7CHL1   H17  469   4.662   4.052   9.739  1.3673 -0.1930 -2.8071
    7CHL1   C13  470   4.478   4.129   9.818 -0.4769  0.2167  0.8290
    7CHL1   C18  471   4.351   4.200   9.767  0.6799  0.1198  0.2768
    7CHL1  H18A  472   4.264   4.213   9.834 -1.6506  2.0680 -2.9453
    7CHL1  H18B  473   4.372   4.304   9.733  3.8031 -0.2954  0.7729
    7CHL1  H18C  474   4.315   4.138   9.682  1.8956 -1.2408  0.7336
    7CHL1   C12  475   4.444   3.984   9.865  0.4472 -0.6220  0.3462
    7CHL1  H12A  476   4.395   3.918   9.791  0.3079 -0.4231  0.2613
    7CHL1  H12B  477   4.545   3.947   9.896  0.2051  0.3868  2.4734
    7CHL1   C11  478   4.346   3.986   9.984  0.8003  0.1865 -0.7962
    7CHL1  H11A  479   4.249   4.025   9.946  0.8316  0.7494 -0.3073
    7CHL1  H11B  480   4.323   3.884  10.023  0.5735  0.2485 -0.7635
    7CHL1    C9  481   4.395   4.075  10.103 -0.2187 -0.0193 -0.3073
    7CHL1    H9  482   4.485   4.020  10.136 -0.4195 -0.1374  0.0536
    7CHL1   C10  483   4.302   4.079  10.235 -0.0961  1.0728 -0.1211
    7CHL1   C19  484   4.156   4.119  10.195  0.3091 -0.3627  0.0107
    7CHL1  H19A  485   4.099   4.039  10.143 -4.3650  2.0914  1.0741
    7CHL1  H19B  486   4.100   4.154  10.284  1.1214  0.7822  0.0849
    7CHL1  H19C  487   4.162   4.208  10.129  1.6118  1.2352  2.2472
    7CHL1    C1  488   4.312   3.947  10.312  0.4619  0.3657  0.1525
    7CHL1   H1A  489   4.251   3.870  10.260 -0.7869  1.5494 -0.1647
    7CHL1   H1B  490   4.418   3.916  10.299  0.7177  1.6433 -0.8874
    7CHL1    C2  491   4.259   3.947  10.453 -0.3761  0.1414  0.1462
    7CHL1   H2A  492   4.277   3.848  10.501 -0.1822  0.9781  1.8321
    7CHL1   H2B  493   4.151   3.968  10.447 -0.5403 -0.1814  1.6859
    7CHL1   C20  494   4.555   4.112   9.569 -0.3682  0.7005 -0.0656
    7CHL1   H20  495   4.486   4.194   9.541 -1.9145  0.0686  1.8217
    7CHL1   C21  496   4.497   3.976   9.556 -0.5394  0.7632 -0.0124
    7CHL1  H21A  497   4.490   3.945   9.450  0.9831 -1.2798  0.4614
    7CHL1  H21B  498   4.393   3.971   9.594 -1.3755  0.6349 -2.2756
    7CHL1  H21C  499   4.555   3.900   9.613 -1.2090  0.3038  0.0503
    7CHL1   C22  500   4.674   4.127   9.469  0.4394  0.2720 -1.2646
    7CHL1  H22A  501   4.723   4.224   9.493  2.1834 -1.3676  1.9817
    7CHL1  H22B  502   4.743   4.040   9.470 -0.3802 -0.3956  2.7943
    7CHL1   C23  503   4.622   4.149   9.332  0.4405 -0.5322 -0.3484
    7CHL1  H23A  504   4.572   4.061   9.285 -2.5884  0.8214  0.2726
    7CHL1  H23B  505   4.537   4.220   9.330  0.8630 -0.0182 -0.0369
    7CHL1   C24  506   4.729   4.198   9.224 -0.2261 -0.3967  0.0768
    7CHL1  H24A  507   4.727   4.309   9.216  0.6816 -0.3625  0.3246
    7CHL1  H24B  508   4.831   4.172   9.259 -0.1960 -0.0651  0.2405
    7CHL1   C25  509   4.688   4.141   9.090  0.6743 -0.1176  0.2652
    7CHL1   H25  510   4.687   4.030   9.093  1.0952 -0.1640 -1.1545
    7CHL1   C26  511   4.562   4.212   9.035  0.4635 -0.0121 -0.1132
    7CHL1  H26A  512   4.536   4.189   8.929  1.2192 -0.8308 -0.1271
    7CHL1  H26B  513   4.464   4.199   9.086 -0.7259  1.9588 -1.8128
    7CHL1  H26C  514   4.577   4.322   9.040 -2.2462  0.3169  1.7136
    7CHL1   C27  515   4.801   4.182   8.991  0.1114  0.0077  0.4515
    7CHL1  H27A  516   4.901   4.144   9.022  0.6956  0.3426 -0.9404
    7CHL1  H27B  517   4.777   4.136   8.892 -0.0596  0.1265  0.4373
    7CHL1  H27C  518   4.797   4.292   8.973  2.4428 -0.0933 -0.9298
    8CHL1    C3  519   4.932   5.240  10.178  0.6527 -0.1487  0.2388
    8CHL1    H3  520   5.034   5.253  10.136  1.6061 -0.4671  2.4025
    8CHL1    O3  521   4.962   5.205  10.317 -0.5769 -0.1582 -0.0336
    8CHL1   H3'  522   4.874   5.199  10.354 -1.4947  2.2749 -1.7183
    8CHL1    C4  523   4.847   5.374  10.156  0.2387 -0.8501 -0.1777
    8CHL1   H4A  524   4.750   5.378  10.211  0.2018  3.4988 -0.3949
    8CHL1   H4B  525   4.909   5.452  10.207 -0.5769 -0.1518 -0.2365
    8CHL1    C5  526   4.820   5.402  10.013 -0.3017 -0.7540  0.3946
    8CHL1    C6  527   4.869   5.517   9.961 -0.2813 -0.5290 -0.3183
    8CHL1    H6  528   4.906   5.589  10.036 -3.4769  0.1172  0.7244
    8CHL1    C7  529   4.861   5.560   9.819  0.3721 -0.9060 -0.3947
    8CHL1   H7A  530   4.821   5.663   9.809 -0.5746 -1.2445 -0.1271
    8CHL1   H7B  531   4.963   5.555   9.776  0.7869 -5.1447  0.8842
    8CHL1    C8  532   4.763   5.474   9.731 -0.2517  0.0054 -0.5439
    8CHL1    H8  533   4.655   5.502   9.740 -0.6572 -1.8539  0.4996
    8CHL1   C14  534   4.795   5.490   9.584  0.6312  0.6931 -0.2531
    8CHL1   H14  535   4.900   5.460   9.567  1.2266  1.2988  2.1713
    8CHL1   C15  536   4.793   5.635   9.529 -0.5716  0.3989  0.6769
    8CHL1  H15A  537   4.714   5.705   9.563 -1.7914 -1.1440  1.0545
    8CHL1  H15B  538   4.891   5.680   9.556 -0.3037  0.1788  0.0765
    8CHL1   C16  539   4.780   5.607   9.380  0.4151 -0.2153  0.1338
    8CHL1  H16A  540   4.688   5.664   9.357  0.2824  0.0288  1.2150
    8CHL1  H16B  541   4.870   5.640   9.325  0.4212  0.6740  0.6613
    8CHL1   C17  542   4.763   5.456   9.355  0.3131 -0.1638 -0.3033
    8CHL1   H17  543   4.867   5.417   9.357  0.3928  0.1098  0.9492
    8CHL1   C13  544   4.709   5.409   9.485 -0.0531 -1.2584  0.2285
    8CHL1   C18  545   4.555   5.455   9.488  0.7556 -0.8931 -0.1015
    8CHL1  H18A  546   4.503   5.393   9.412  0.8116  0.2907 -1.1256
    8CHL1  H18B  547   4.506   5.443   9.587  0.5045  0.5404 -0.0459
    8CHL1  H18C  548   4.539   5.560   9.456 -0.8408 -1.0725  0.0577
    8CHL1   C12  549   4.726   5.256   9.529 -0.2719 -0.6656 -0.1838
    8CHL1  H12A  550   4.663   5.190   9.466 -1.5031 -0.3453  0.6964
    8CHL1  H12B  551   4.826   5.218   9.501  0.0916 -2.0271  2.7639
    8CHL1   C11  552   4.691   5.232   9.678 -0.5279  0.2339  0.4271
    8CHL1  H11A  553   4.582   5.257   9.680 -0.9004 -1.4351  2.0240
    8CHL1  H11B  554   4.706   5.129   9.716 -2.3891  0.5746  2.1835
    8CHL1    C9  555   4.777   5.328   9.772 -0.0697 -0.0035  0.2513
    8CHL1    H9  556   4.881   5.298   9.749 -0.6828 -1.8353 -0.1961
    8CHL1   C10  557   4.759   5.295   9.923 -0.1590 -0.2602 -0.2753
    8CHL1   C19  558   4.607   5.290   9.959 -0.0131  0.2123 -0.8420
    8CHL1  H19A  559   4.591   5.281  10.068  3.3363  0.0156 -0.2975
    8CHL1  H19B  560   4.561   5.386   9.927 -1.7094  0.1856  1.4244
    8CHL1  H19C  561   4.557   5.203   9.911 -0.2542 -1.0177  1.5741
    8CHL1    C1  562   4.830   5.158   9.954 -0.5655 -0.4025  0.4054
    8CHL1   H1A  563   4.755   5.082   9.923  0.5611 -1.6345  0.6819
    8CHL1   H1B  564   4.923   5.152   9.894  0.0651  1.6661  1.1174
    8CHL1    C2  565   4.859   5.132  10.109  0.8214  0.0080  0.2928
    8CHL1   H2A  566   4.920   5.039  10.116  0.2913 -0.3527  0.2061
    8CHL1   H2B  567   4.761   5.134  10.162  0.0500 -1.4677 -1.0205
    8CHL1   C20  568   4.701   5.433   9.218 -0.6732  0.9245  0.8001
    8CHL1   H20  569   4.591   5.451   9.230 -1.1858 -1.6608  0.2507
    8CHL1   C21  570   4.720   5.289   9.167  0.1806  0.2048  0.1436
    8CHL1  H21A  571   4.668   5.220   9.238  1.0714  0.0292  0.6357
    8CHL1  H21B  572   4.829   5.269   9.166  0.2380  0.2676  2.7197
    8CHL1  H21C  573   4.682   5.263   9.066  0.6280  2.1316 -0.5276
    8CHL1   C22  574   4.750   5.547   9.127  0.4547 -0.4669  0.4309
    8CHL1  H22A  575   4.706   5.645   9.155 -0.7381 -1.1662  1.0477
    8CHL1  H22B  576   4.861   5.552   9.118  0.4879  0.8702  1.3897
    8CHL1   C23  577   4.716   5.529   8.977  0.2434  0.3304  0.2291
    8CHL1  H23A  578   4.782   5.448   8.940  2.0360  2.6744 -1.8641
    8CHL1  H23B  579   4.609   5.497   8.974  0.4766 -0.8621  3.1972
    8CHL1   C24  580   4.755   5.649   8.894 -0.4606 -0.1792 -0.4229
    8CHL1  H24A  581   4.704   5.738   8.936 -0.7285 -0.0300 -1.0586
    8CHL1  H24B  582   4.863   5.674   8.907 -1.1207  2.2321  0.6902
    8CHL1   C25  583   4.726   5.649   8.748  0.6113  0.2451 -0.1761
    8CHL1   H25  584   4.616   5.664   8.740  0.4497 -1.6879 -2.2173
    8CHL1   C26  585   4.786   5.777   8.687 -0.2286 -0.1819 -0.2754
    8CHL1  H26A  586   4.896   5.764   8.690 -0.3186 -1.1564 -0.7210
    8CHL1  H26B  587   4.753   5.793   8.582  0.0751  0.6244 -0.2470
    8CHL1  H26C  588   4.755   5.869   8.741 -0.5245  0.7475 -1.9897
    8CHL1   C27  589   4.766   5.528   8.668 -0.3535 -0.1327  0.1432
    8CHL1  H27A  590   4.703   5.440   8.693 -0.2349 -0.2191  0.1401
    8CHL1  H27B  591   4.739   5.554   8.564 -0.7641 -0.5011  0.1519
    8CHL1  H27C  592   4.874   5.504   8.681 -0.9375 -2.0631  1.7383
    9CHL1    C3  593   1.017   2.122  10.069  0.0930  0.1444 -0.3354
    9CHL1    H3  594   1.037   2.231  10.066 -4.1251  0.9830 -0.8695
    9CHL1    O3  595   0.960   2.085  10.193  0.4409  0.1875  0.2602
    9CHL1   H3'  596   0.881   2.033  10.177  0.2620  0.6783 -0.4772
    9CHL1    C4  597   0.931   2.082   9.950  0.3321  0.3657  0.1352
    9CHL1   H4A  598   0.918   1.972   9.958 -0.3524  0.2745 -1.8378
    9CHL1   H4B  599   0.835   2.138   9.956  1.4149  2.3778 -0.6696
    9CHL1    C5  600   0.992   2.108   9.806  0.3025  0.3761 -0.8689
    9CHL1    C6  601   0.931   2.193   9.722 -0.1139  0.7766 -0.0533
    9CHL1    H6  602   0.830   2.230   9.744 -1.2317 -0.4541 -2.9336
    9CHL1    C7  603   0.998   2.233   9.586  0.4234  0.5587 -0.8938
    9CHL1   H7A  604   0.931   2.216   9.498 -0.4139 -2.5788  0.2848
    9CHL1   H7B  605   1.021   2.341   9.592  0.8016  0.3628  1.5603
    9CHL1    C8  606   1.126   2.138   9.553  0.4299 -0.2518  0.4534
    9CHL1    H8  607   1.089   2.042   9.511  3.3295 -1.7683  1.2415
    9CHL1   C14  608   1.207   2.198   9.440 -0.4864 -0.5123 -0.6321
    9CHL1   H14  609   1.242   2.297   9.476  1.1388 -1.1048 -0.5444
    9CHL1   C15  610   1.133   2.239   9.310 -0.4191 -0.6549 -0.1393
    9CHL1  H15A  611   1.057   2.166   9.275 -2.4272  1.8544 -1.1802
    9CHL1  H15B  612   1.087   2.340   9.323  0.8049 -0.0176 -0.7098
    9CHL1   C16  613   1.240   2.246   9.203 -0.2719 -0.3444  0.1127
    9CHL1  H16A  614   1.216   2.162   9.135 -1.3112  0.1827 -0.1814
    9CHL1  H16B  615   1.247   2.337   9.140  2.2318 -1.5589 -1.4177
    9CHL1   C17  616   1.375   2.210   9.268  0.3561  0.3729 -0.0781
    9CHL1   H17  617   1.415   2.306   9.307  1.9483 -0.7705  1.1883
    9CHL1   C13  618   1.335   2.125   9.390 -0.2686  0.4415  0.5644
    9CHL1   C18  619   1.295   1.987   9.336 -0.6492 -0.5841 -0.3916
    9CHL1  H18A  620   1.377   1.938   9.280  0.8222  1.3808 -0.0132
    9CHL1  H18B  621   1.233   1.930   9.410 -0.6195  0.8852  0.8023
    9CHL1  H18C  622   1.229   2.006   9.249 -0.1761  0.7399 -0.4661
    9CHL1   C12  623   1.428   2.127   9.514  0.0924  0.3086  1.6224
    9CHL1  H12A  624   1.524   2.076   9.490  1.0709  1.9813  1.9089
    9CHL1  H12B  625   1.465   2.221   9.560  2.6952 -0.6606  1.5642
    9CHL1   C11  626   1.344   2.059   9.636 -0.7064  0.0373  0.0661
    9CHL1  H11A  627   1.334   1.951   9.611  0.3384 -0.5189  1.9963
    9CHL1  H11B  628   1.412   2.052   9.723 -0.3264  0.0033 -0.2367
    9CHL1    C9  629   1.212   2.123   9.671 -0.3148 -0.0017 -0.6271
    9CHL1    H9  630   1.227   2.224   9.714 -3.4834  0.8287 -1.4127
    9CHL1   C10  631   1.131   2.049   9.784 -0.0600 -1.0154  0.0356
    9CHL1   C19  632   1.122   1.897   9.761  0.2729  0.0109 -0.8523
    9CHL1  H19A  633   1.090   1.883   9.656 -0.4572  3.1809 -1.0994
    9CHL1  H19B  634   1.220   1.846   9.776  0.4077  0.8283  1.2631
    9CHL1  H19C  635   1.046   1.841   9.820  0.3652  0.4594 -0.3093
    9CHL1    C1  636   1.212   2.072   9.913 -0.3273 -0.2128  0.6960
    9CHL1   H1A  637   1.303   2.008   9.913  0.1659  0.4690  1.1032
    9CHL1   H1B  638   1.243   2.178   9.926 -1.0816  0.1778 -0.6735
    9CHL1    C2  639   1.144   2.036  10.049  0.3175 -0.7783  0.2659
    9CHL1   H2A  640   1.210   2.063  10.134  0.3681  1.8889 -0.5599
    9CHL1   H2B  641   1.115   1.929  10.053 -0.0328 -0.6757  0.4790
    9CHL1   C20  642   1.490   2.159   9.174 -0.0155  0.0507  0.1995
    9CHL1   H20  643   1.458   2.063   9.129  1.7680 -0.8361  0.8007
    9CHL1   C21  644   1.618   2.152   9.254 -0.2399 -0.2807 -0.2821
    9CHL1  H21A  645   1.625   2.245   9.313  1.6026  2.4579 -4.6185
    9CHL1  H21B  646   1.702   2.134   9.184  1.3446 -3.3137  2.2246
    9CHL1  H21C  647   1.618   2.059   9.316 -1.1887 -0.2472 -0.2349
    9CHL1   C22  648   1.517   2.256   9.048 -0.4084 -0.5567 -0.0857
    9CHL1  H22A  649   1.423   2.286   8.996 -0.3589  0.1473  0.2300
    9CHL1  H22B  650   1.561   2.353   9.080 -0.2700 -0.5943 -0.1610
    9CHL1   C23  651   1.601   2.200   8.937  0.0529 -0.1983 -0.8400
    9CHL1  H23A  652   1.699   2.165   8.976  0.3247  0.5374 -0.8578
    9CHL1  H23B  653   1.546   2.114   8.892 -2.2469  0.9864 -0.3960
    9CHL1   C24  654   1.624   2.298   8.819 -0.8073 -0.5563 -0.2530
    9CHL1  H24A  655   1.685   2.241   8.746  0.4302  3.2658 -2.3310
    9CHL1  H24B  656   1.523   2.307   8.772  0.1053  1.5279 -1.8941
    9CHL1   C25  657   1.679   2.441   8.845 -0.4835  0.7082  0.0545
    9CHL1   H25  658   1.609   2.495   8.912 -0.1879 -0.3748  1.2598
    9CHL1   C26  659   1.812   2.437   8.929 -0.2490  0.2698 -0.0661
    9CHL1  H26A  660   1.891   2.399   8.860  0.2765  1.7629 -0.3034
    9CHL1  H26B  661   1.848   2.532   8.973 -0.7870  2.2804 -3.8183
    9CHL1  H26C  662   1.797   2.379   9.022  2.1687 -1.0660 -0.4424
    9CHL1   C27  663   1.702   2.533   8.720  0.2270 -0.0815  0.7250
    9CHL1  H27A  664   1.788   2.512   8.652 -0.0987 -0.0923  0.3110
    9CHL1  H27B  665   1.611   2.524   8.657  1.9579  3.9738 -2.6323
    9CHL1  H27C  666   1.697   2.642   8.736 -1.8258 -0.2916  1.5822
   10CHL1    C3  667   0.074   5.911  10.153  0.1306 -0.2560 -0.6222
   10CHL1    H3  668   0.017   5.816  10.163 -0.8812  0.4134 -0.0373
   10CHL1    O3  669   0.085   5.958  10.287  0.2005 -0.5098 -0.4331
   10CHL1   H3'  670   0.137   6.038  10.279  0.9752 -0.9593  0.0809
   10CHL1    C4  671   0.215   5.895  10.087 -0.0995 -0.9663 -0.6622
   10CHL1   H4A  672   0.266   5.993  10.106 -0.2406 -0.7752 -1.2648
   10CHL1   H4B  673   0.274   5.816  10.140  4.5139  1.4600 -1.8537
   10CHL1    C5  674   0.213   5.864   9.940  0.3726 -0.2907  0.9790
   10CHL1    C6  675   0.268   5.754   9.891 -0.7544  0.4804  0.2016
   10CHL1    H6  676   0.322   5.694   9.966 -0.0760  0.1081 -0.5759
   10CHL1    C7  677   0.268   5.716   9.743 -0.5677 -1.0038  0.2994
   10CHL1   H7A  678   0.369   5.672   9.726 -0.9651 -1.5958 -0.5333
   10CHL1   H7B  679   0.190   5.639   9.724 -1.7517  0.2126  0.1698
   10CHL1    C8  680   0.224   5.841   9.655  0.6331  0.0720 -0.7433
   10CHL1    H8  681   0.304   5.917   9.651  1.1396 -0.2078  2.6708
   10CHL1   C14  682   0.187   5.795   9.514  0.0802 -0.4591 -0.3274
   10CHL1   H14  683   0.112   5.713   9.514 -0.1922 -0.2229 -1.4666
   10CHL1   C15  684   0.298   5.718   9.447 -0.8544 -0.0789 -0.9509
   10CHL1  H15A  685   0.396   5.768   9.468 -1.3533  0.6097 -0.2408
   10CHL1  H15B  686   0.299   5.611   9.477 -0.3588  0.2872  0.3715
   10CHL1   C16  687   0.258   5.717   9.296  0.5302  0.6873  0.5697
   10CHL1  H16A  688   0.351   5.724   9.235  2.0904 -2.4192  2.4464
   10CHL1  H16B  689   0.222   5.612   9.281  1.2430  0.3424  1.2252
   10CHL1   C17  690   0.138   5.816   9.287 -0.1329  0.1475  0.4792
   10CHL1   H17  691   0.049   5.751   9.300  0.3482 -0.7050 -0.4211
   10CHL1   C13  692   0.146   5.899   9.413 -0.2402  0.4512  0.4388
   10CHL1   C18  693   0.265   6.006   9.386  0.1527 -0.4335  0.9009
   10CHL1  H18A  694   0.355   5.966   9.334 -1.3056  0.7449 -2.6914
   10CHL1  H18B  695   0.233   6.079   9.309 -1.7053  0.6652  2.6738
   10CHL1  H18C  696   0.293   6.062   9.478  1.9955  0.7379 -0.3577
   10CHL1   C12  697   0.025   5.964   9.477 -0.1074  0.0167 -0.9949
   10CHL1  H12A  698  -0.030   6.031   9.409  1.3742  2.1866 -0.1075
   10CHL1  H12B  699  -0.045   5.877   9.480 -0.6234  0.4650  0.6503
   10CHL1   C11  700   0.041   6.015   9.623  0.0139 -0.0863 -0.4799
   10CHL1  H11A  701   0.102   6.108   9.618 -1.9239  1.2781  0.8001
   10CHL1  H11B  702  -0.056   6.045   9.667 -0.1536 -2.6197  0.9352
   10CHL1    C9  703   0.103   5.912   9.721  0.1067  0.8591  0.0546
   10CHL1    H9  704   0.026   5.833   9.728  0.6725  0.2476 -0.4601
   10CHL1   C10  705   0.127   5.966   9.868  0.0689 -0.4764 -0.0292
   10CHL1   C19  706   0.203   6.099   9.853  0.0200 -0.2648  0.8868
   10CHL1  H19A  707   0.284   6.098   9.777  0.3562  0.2696  1.2356
   10CHL1  H19B  708   0.132   6.178   9.820  2.8047  1.5123 -1.0104
   10CHL1  H19C  709   0.251   6.125   9.950  1.0753 -0.0607  0.3127
   10CHL1    C1  710  -0.014   5.985   9.936  0.3940 -0.3481  0.0544
   10CHL1   H1A  711  -0.071   6.066   9.886  0.4183 -0.7299 -0.6008
   10CHL1   H1B  712  -0.067   5.890   9.914  0.4411 -0.7136  1.4780
   10CHL1    C2  713  -0.016   6.011  10.083 -0.4598 -0.1981 -0.1344
   10CHL1   H2A  714  -0.111   6.011  10.141  0.5369 -1.5394  1.5714
   10CHL1   H2B  715   0.033   6.110  10.095 -0.7262  0.1043 -1.4473
   10CHL1   C20  716   0.128   5.886   9.148  0.0704  0.0866 -0.2716
   10CHL1   H20  717   0.217   5.952   9.137 -0.7798  1.6821  2.0408
   10CHL1   C21  718   0.002   5.979   9.145 -0.3759 -0.0531 -0.2644
   10CHL1  H21A  719  -0.093   5.926   9.168 -0.7507  0.7096 -0.0406
   10CHL1  H21B  720  -0.012   6.033   9.049  0.3584 -0.9880 -0.9026
   10CHL1  H21C  721   0.025   6.058   9.219  1.9462 -2.1460  1.3124
   10CHL1   C22  722   0.139   5.793   9.029  0.8659  0.0741 -0.1913
   10CHL1  H22A  723   0.225   5.728   9.058  0.1682 -0.3375  0.9836
   10CHL1  H22B  724   0.054   5.725   9.009 -0.0572  0.4660  2.3119
   10CHL1   C23  725   0.189   5.873   8.910 -0.5809  0.9059  0.3412
   10CHL1  H23A  726   0.101   5.898   8.847 -0.3506  0.4063 -0.1792
   10CHL1  H23B  727   0.232   5.969   8.944 -1.3524  1.1721  0.5854
   10CHL1   C24  728   0.289   5.798   8.820 -0.1196 -1.0616 -0.2430
   10CHL1  H24A  729   0.376   5.773   8.884  0.5048 -0.1196 -0.7094
   10CHL1  H24B  730   0.258   5.695   8.791  0.1640 -1.3836  0.5809
   10CHL1   C25  731   0.335   5.874   8.693  1.1972  0.1899  0.3883
   10CHL1   H25  732   0.404   5.811   8.634 -1.5024 -1.4443 -1.1414
   10CHL1   C26  733   0.209   5.897   8.602 -0.0848  1.0098 -0.2076
   10CHL1  H26A  734   0.160   5.801   8.576 -0.1321  1.3329 -1.3769
   10CHL1  H26B  735   0.138   5.970   8.648  0.5206  1.9166 -0.6889
   10CHL1  H26C  736   0.235   5.942   8.503  2.4269 -2.1373 -1.0679
   10CHL1   C27  737   0.405   6.004   8.730  0.2227  0.0124 -0.5389
   10CHL1  H27A  738   0.331   6.081   8.762 -0.1029 -0.2162 -0.7497
   10CHL1  H27B  739   0.477   5.985   8.812  0.8658  2.7714 -0.4203
   10CHL1  H27C  740   0.449   6.046   8.636 -1.1806  0.0644 -1.1819
   11CHL1    C3  741   3.144   2.395  10.052  0.0573 -0.1412  0.0072
   11CHL1    H3  742   3.133   2.503  10.027  0.6370  0.9637  4.1680
   11CHL1    O3  743   3.134   2.374  10.188  0.4203 -0.1469 -0.2277
   11CHL1   H3'  744   3.163   2.282  10.191 -1.4673 -0.7890 -1.2238
   11CHL1    C4  745   3.035   2.304   9.981  0.6422 -0.5745  0.0972
   11CHL1   H4A  746   3.053   2.197  10.002  0.4998 -0.6102  0.0289
   11CHL1   H4B  747   2.933   2.320  10.021  0.6353 -1.6685  0.5264
   11CHL1    C5  748   3.051   2.337   9.837  0.5822  0.2573 -0.9705
   11CHL1    C6  749   2.948   2.373   9.763  0.6057 -0.6479  0.1263
   11CHL1    H6  750   2.847   2.385   9.805 -0.5692 -2.2688 -2.1528
   11CHL1    C7  751   2.959   2.404   9.614  0.4757  0.4540  0.6373
   11CHL1   H7A  752   2.870   2.365   9.560 -0.4692  2.6042  0.5803
   11CHL1   H7B  753   2.965   2.513   9.593  0.7932  0.2148 -0.5007
   11CHL1    C8  754   3.083   2.347   9.543 -0.0603 -0.8105 -0.3737
   11CHL1    H8  755   3.074   2.236   9.538  1.9498 -1.0145  0.0206
   11CHL1   C14  756   3.101   2.418   9.406 -0.0909  0.2113  0.3915
   11CHL1   H14  757   3.118   2.527   9.413  0.1958  0.0856  1.9914
   11CHL1   C15  758   2.981   2.416   9.313 -0.4722  0.1944 -0.3076
   11CHL1  H15A  759   2.943   2.312   9.307 -2.6646  1.0736 -2.0591
   11CHL1  H15B  760   2.902   2.488   9.342  0.5840  0.6002  1.6534
   11CHL1   C16  761   3.040   2.445   9.172  0.4341 -0.1725  0.5512
   11CHL1  H16A  762   3.003   2.358   9.114  0.3132  0.3863 -0.2061
   11CHL1  H16B  763   2.994   2.534   9.126 -2.0035 -1.8448 -0.3347
   11CHL1   C17  764   3.200   2.438   9.191  0.0430 -0.2934 -0.0836
   11CHL1   H17  765   3.235   2.541   9.210  0.0374 -0.0673 -1.2887
   11CHL1   C13  766   3.216   2.365   9.324 -0.8306  0.6640 -0.7228
   11CHL1   C18  767   3.211   2.212   9.300 -0.6947 -1.1484 -0.4659
   11CHL1  H18A  768   3.118   2.186   9.247 -0.6410 -1.3478 -0.4630
   11CHL1  H18B  769   3.308   2.176   9.258  0.8534 -0.1129  2.0352
   11CHL1  H18C  770   3.200   2.160   9.398 -0.6225 -2.6986 -1.2589
   11CHL1   C12  771   3.339   2.406   9.412  0.0899  0.1020  0.3102
   11CHL1  H12A  772   3.434   2.375   9.363 -0.6190  0.6464 -1.4362
   11CHL1  H12B  773   3.345   2.517   9.417  1.1362  0.0510  0.2877
   11CHL1   C11  774   3.338   2.346   9.553  0.2868  0.7306  0.4659
   11CHL1  H11A  775   3.348   2.236   9.543  1.4163  0.9318 -0.8570
   11CHL1  H11B  776   3.430   2.387   9.599  1.3953  0.4892 -1.4526
   11CHL1    C9  777   3.206   2.375   9.624  0.0521  0.3914 -1.1106
   11CHL1    H9  778   3.206   2.480   9.657  0.1966  0.4127 -1.1823
   11CHL1   C10  779   3.193   2.308   9.770  0.0225  0.1898  0.2871
   11CHL1   C19  780   3.214   2.152   9.750  0.0161  0.6680 -0.4981
   11CHL1  H19A  781   3.319   2.117   9.750 -0.6723 -1.4293 -0.6852
   11CHL1  H19B  782   3.162   2.101   9.834 -1.3019  0.8744 -1.1758
   11CHL1  H19C  783   3.160   2.117   9.659  0.8483  0.8353 -1.0588
   11CHL1    C1  784   3.299   2.368   9.859  0.0339 -0.6336 -0.0354
   11CHL1   H1A  785   3.394   2.321   9.826  1.0392 -0.3680  2.4347
   11CHL1   H1B  786   3.287   2.476   9.840 -0.4924 -0.6787  0.0104
   11CHL1    C2  787   3.285   2.348  10.009  0.3456 -0.7226 -0.0645
   11CHL1   H2A  788   3.351   2.423  10.058 -0.7242 -0.8660  1.6112
   11CHL1   H2B  789   3.307   2.240  10.025  0.7748 -1.0734 -2.7817
   11CHL1   C20  790   3.268   2.385   9.058  0.2325  1.0275 -1.1127
   11CHL1   H20  791   3.221   2.286   9.041 -0.3596  0.7337  2.0396
   11CHL1   C21  792   3.415   2.360   9.076 -0.4805  0.7679 -0.3241
   11CHL1  H21A  793   3.468   2.359   8.979 -0.9574  1.6444 -0.5956
   11CHL1  H21B  794   3.440   2.266   9.131 -1.6758  1.7821  2.0148
   11CHL1  H21C  795   3.465   2.445   9.127  3.4726 -0.8609 -1.3003
   11CHL1   C22  796   3.243   2.473   8.930  0.8989 -0.0108 -0.1043
   11CHL1  H22A  797   3.135   2.492   8.915  1.1898 -1.6291 -5.2108
   11CHL1  H22B  798   3.292   2.569   8.959  0.9816 -0.0411 -0.1422
   11CHL1   C23  799   3.301   2.422   8.792 -0.5418  0.2225 -0.6735
   11CHL1  H23A  800   3.412   2.430   8.793 -0.7522  4.3724 -1.4661
   11CHL1  H23B  801   3.281   2.319   8.754  0.6047 -1.0864  2.1430
   11CHL1   C24  802   3.258   2.518   8.683  0.9243  0.5265 -0.5209
   11CHL1  H24A  803   3.147   2.516   8.691  0.9845  0.3247  0.3625
   11CHL1  H24B  804   3.290   2.621   8.710  0.7554  0.4027  0.1792
   11CHL1   C25  805   3.309   2.488   8.544 -0.6204  0.4555 -0.0007
   11CHL1   H25  806   3.274   2.390   8.503 -1.0462 -0.6419  2.8896
   11CHL1   C26  807   3.269   2.603   8.453 -0.1202  0.1974 -0.3013
   11CHL1  H26A  808   3.306   2.579   8.351  0.2942  1.6455 -0.4989
   11CHL1  H26B  809   3.159   2.608   8.442 -0.6553 -1.2011  3.5466
   11CHL1  H26C  810   3.296   2.702   8.494 -1.4861  0.4493 -0.0148
   11CHL1   C27  811   3.469   2.492   8.539 -0.0263 -0.5947  0.0487
   11CHL1  H27A  812   3.503   2.580   8.599 -0.5420  0.6055 -1.3771
   11CHL1  H27B  813   3.515   2.398   8.576 -0.7197 -0.4436  1.2939
   11CHL1  H27C  814   3.512   2.509   8.438  1.9509  0.1987  0.9935
   12CHL1    C3  815   5.678   5.157  10.271  0.0173 -0.2472 -0.2388
   12CHL1    H3  816   5.680   5.263  10.306  1.6746 -0.0048 -1.0069
   12CHL1    O3  817   5.716   5.068  10.378 -0.0944 -0.0215  0.2376
   12CHL1   H3'  818   5.651   5.073  10.448  1.4053 -0.5641  1.7001
   12CHL1    C4  819   5.540   5.108  10.229  0.2454 -0.2576 -0.4245
   12CHL1   H4A  820   5.536   4.997  10.226  2.5178 -0.4057  1.4319
   12CHL1   H4B  821   5.468   5.133  10.309  0.2146 -1.2597 -0.1355
   12CHL1    C5  822   5.489   5.182  10.107 -1.2005 -0.5441 -0.0311
   12CHL1    C6  823   5.369   5.243  10.100 -0.7879  0.3429  0.3056
   12CHL1    H6  824   5.302   5.247  10.187 -0.1676 -0.0540  0.8043
   12CHL1    C7  825   5.313   5.308   9.980  0.0609 -0.1352  0.2548
   12CHL1   H7A  826   5.206   5.282   9.968 -0.2427 -0.2331  2.9537
   12CHL1   H7B  827   5.324   5.417   9.998  0.5876 -0.0580 -0.5281
   12CHL1    C8  828   5.381   5.264   9.853 -0.1911  0.5180  0.3403
   12CHL1    H8  829   5.349   5.159   9.834 -0.1364  0.6966 -0.7805
   12CHL1   C14  830   5.347   5.357   9.739 -0.0834  0.3186  0.4798
   12CHL1   H14  831   5.391   5.454   9.769 -1.5280  1.1131  0.1085
   12CHL1   C15  832   5.198   5.371   9.709 -0.3691  0.3348  0.2851
   12CHL1  H15A  833   5.152   5.270   9.721 -1.4658  0.6368 -1.2008
   12CHL1  H15B  834   5.141   5.439   9.776 -1.4054  0.2545 -0.5020
   12CHL1   C16  835   5.189   5.405   9.559 -0.4238 -0.0827  0.7006
   12CHL1  H16A  836   5.123   5.333   9.506  0.0028 -0.9092  1.2957
   12CHL1  H16B  837   5.153   5.510   9.552 -1.2402 -0.4395 -0.7790
   12CHL1   C17  838   5.332   5.413   9.512  0.9231 -0.1674  0.0310
   12CHL1   H17  839   5.372   5.515   9.531  1.6821 -0.3666 -0.5182
   12CHL1   C13  840   5.413   5.320   9.609 -0.3465 -0.0539  0.4905
   12CHL1   C18  841   5.382   5.174   9.574  0.1767  1.1063  0.3067
   12CHL1  H18A  842   5.417   5.091   9.639 -0.6076 -0.0897 -0.7743
   12CHL1  H18B  843   5.274   5.161   9.552  0.0555 -0.4306  1.7262
   12CHL1  H18C  844   5.434   5.158   9.477  0.6948 -0.0425  0.7753
   12CHL1   C12  845   5.563   5.351   9.625  0.1424 -0.9470 -0.3258
   12CHL1  H12A  846   5.609   5.320   9.529 -1.8405 -0.7464 -1.3692
   12CHL1  H12B  847   5.573   5.460   9.646 -1.5560 -0.1704 -3.2749
   12CHL1   C11  848   5.626   5.266   9.739 -0.3095  0.8226  0.5489
   12CHL1  H11A  849   5.612   5.164   9.698  0.9838 -0.5984  3.5017
   12CHL1  H11B  850   5.736   5.276   9.749  0.1443 -1.5158 -1.6586
   12CHL1    C9  851   5.540   5.270   9.869 -0.0064  0.0696  0.0707
   12CHL1    H9  852   5.560   5.371   9.912  5.1844 -1.5877  2.0278
   12CHL1   C10  853   5.586   5.174   9.987 -0.6639 -0.2167  0.5107
   12CHL1   C19  854   5.579   5.029   9.926 -0.4390  0.2316 -0.6338
   12CHL1  H19A  855   5.597   4.946   9.999  0.0243  0.7683 -0.1317
   12CHL1  H19B  856   5.477   5.012   9.886 -0.6026 -3.4609  1.1440
   12CHL1  H19C  857   5.655   5.023   9.846  1.7907  0.4806  1.4125
   12CHL1    C1  858   5.725   5.221  10.037 -1.0426 -0.0946 -0.0442
   12CHL1   H1A  859   5.792   5.214   9.949 -0.0488 -0.0582  0.7096
   12CHL1   H1B  860   5.719   5.330  10.059  2.5209  0.2393 -0.4037
   12CHL1    C2  861   5.774   5.137  10.154  0.0987 -0.5140  0.6634
   12CHL1   H2A  862   5.882   5.150  10.177  0.3011 -1.2161  0.1563
   12CHL1   H2B  863   5.772   5.028  10.131 -0.0917  0.1378 -2.6691
   12CHL1   C20  864   5.345   5.396   9.358  0.3918 -0.1393  0.0670
   12CHL1   H20  865   5.314   5.294   9.325  0.7058  0.5280 -2.3705
   12CHL1   C21  866   5.495   5.406   9.320 -0.5430 -0.4396  0.1183
   12CHL1  H21A  867   5.553   5.482   9.377 -1.2558 -0.0725  0.3606
   12CHL1  H21B  868   5.502   5.426   9.211  4.6134 -0.2577  0.3866
   12CHL1  H21C  869   5.540   5.305   9.324 -1.6111 -0.9205  0.1528
   12CHL1   C22  870   5.247   5.497   9.285  0.2316 -0.8850  0.2870
   12CHL1  H22A  871   5.142   5.485   9.322  0.3835  2.9930  2.1733
   12CHL1  H22B  872   5.262   5.600   9.323  0.3528  0.6687 -3.7066
   12CHL1   C23  873   5.226   5.477   9.126 -0.1117  0.1784 -0.2628
   12CHL1  H23A  874   5.154   5.553   9.089 -1.1006 -1.4153 -1.7273
   12CHL1  H23B  875   5.318   5.488   9.065 -0.7638  3.0838 -0.7555
   12CHL1   C24  876   5.157   5.341   9.103 -0.5036  0.1072  0.1209
   12CHL1  H24A  877   5.219   5.258   9.143  3.0000  1.6684 -1.7886
   12CHL1  H24B  878   5.050   5.350   9.132 -0.7266  0.3348 -0.7615
   12CHL1   C25  879   5.160   5.310   8.957 -0.0853  0.5160 -0.1915
   12CHL1   H25  880   5.147   5.413   8.917 -2.0086  0.1228 -0.6478
   12CHL1   C26  881   5.296   5.253   8.909 -0.9155  0.3438 -0.0123
   12CHL1  H26A  882   5.376   5.310   8.960  0.1890  0.5789 -1.9619
   12CHL1  H26B  883   5.313   5.144   8.922  0.3516  0.4171 -0.9492
   12CHL1  H26C  884   5.309   5.273   8.800  0.7518  0.5405  0.2047
   12CHL1   C27  885   5.036   5.226   8.913  0.2893  0.2429  0.2008
   12CHL1  H27A  886   5.039   5.233   8.802 -1.3936  2.6655  0.2841
   12CHL1  H27B  887   5.034   5.119   8.943 -1.4215  1.1272  3.3709
   12CHL1  H27C  888   4.939   5.275   8.934  0.6331  1.2458 -0.5037
   13CHL1    C3  889   4.443   0.287   9.864  0.0303  0.0453  0.9973
   13CHL1    H3  890   4.501   0.193   9.856  1.6762  1.1254 -0.1174
   13CHL1    O3  891   4.420   0.308  10.004  0.2831  0.1413  0.3413
   13CHL1   H3'  892   4.503   0.306  10.050  1.0567  1.0599 -0.9689
   13CHL1    C4  893   4.532   0.407   9.816 -0.3400 -0.1222  0.3683
   13CHL1   H4A  894   4.475   0.501   9.834 -0.5934  0.2045 -1.9508
   13CHL1   H4B  895   4.608   0.410   9.898 -1.2373 -1.6380  1.2794
   13CHL1    C5  896   4.569   0.396   9.676  0.0911 -0.9469  0.2863
   13CHL1    C6  897   4.697   0.397   9.640 -1.4391  0.0476  0.0728
   13CHL1    H6  898   4.771   0.402   9.721 -0.7243  2.7370 -0.6893
   13CHL1    C7  899   4.746   0.404   9.496 -0.1941  0.7025 -0.3651
   13CHL1   H7A  900   4.814   0.491   9.488  3.3710 -1.8476  0.8402
   13CHL1   H7B  901   4.806   0.311   9.483 -1.1983 -0.1530  1.0772
   13CHL1    C8  902   4.629   0.431   9.395  0.4114 -0.1696  0.4815
   13CHL1    H8  903   4.599   0.537   9.381 -0.4613 -0.6323 -1.2507
   13CHL1   C14  904   4.680   0.377   9.259 -0.2585 -0.3405 -0.7956
   13CHL1   H14  905   4.678   0.267   9.271 -0.5311 -0.1486  1.1397
   13CHL1   C15  906   4.820   0.412   9.207  0.4135  0.5952  0.0403
   13CHL1  H15A  907   4.856   0.508   9.249  0.1869 -1.0388  4.1300
   13CHL1  H15B  908   4.886   0.326   9.229 -1.4627 -1.1709 -1.0327
   13CHL1   C16  909   4.801   0.427   9.053 -0.6300 -0.3894 -0.0268
   13CHL1  H16A  910   4.792   0.533   9.020  0.0405 -0.6923 -1.2229
   13CHL1  H16B  911   4.875   0.375   8.989 -0.3684 -1.7737  1.3764
   13CHL1   C17  912   4.663   0.359   9.028  0.1795  0.0640 -0.7587
   13CHL1   H17  913   4.680   0.250   9.038  0.9345  0.0968 -1.6478
   13CHL1   C13  914   4.577   0.398   9.146  0.3172 -0.0215  0.0554
   13CHL1   C18  915   4.548   0.553   9.132 -0.1785  0.2534 -0.0358
   13CHL1  H18A  916   4.492   0.599   9.216  1.4706 -0.0549  1.2640
   13CHL1  H18B  917   4.634   0.623   9.121 -0.8951  1.3130  0.9168
   13CHL1  H18C  918   4.490   0.583   9.043 -0.7634  0.9917  0.5787
   13CHL1   C12  919   4.450   0.311   9.181 -0.3805  0.2607  0.1234
   13CHL1  H12A  920   4.375   0.331   9.102 -1.1346 -0.2749  0.6948
   13CHL1  H12B  921   4.488   0.207   9.173  1.3705  0.9933 -1.5719
   13CHL1   C11  922   4.389   0.348   9.319 -0.3007  0.9249 -0.0603
   13CHL1  H11A  923   4.351   0.451   9.307 -2.2873  0.2084 -0.2006
   13CHL1  H11B  924   4.305   0.284   9.353 -0.8835  2.1317  0.7904
   13CHL1    C9  925   4.498   0.353   9.426  0.2860 -0.1592 -0.4955
   13CHL1    H9  926   4.534   0.248   9.437  1.4117  0.4020  1.3489
   13CHL1   C10  927   4.451   0.372   9.573  0.3503  0.2363 -0.1563
   13CHL1   C19  928   4.371   0.505   9.573 -0.8337  0.0714  0.5510
   13CHL1  H19A  929   4.434   0.585   9.528  1.1437 -3.3494 -3.0384
   13CHL1  H19B  930   4.275   0.496   9.519  0.6534 -0.8136 -2.0372
   13CHL1  H19C  931   4.339   0.531   9.676 -0.3932 -1.3473  1.0536
   13CHL1    C1  932   4.361   0.253   9.623  0.4159  0.5220  0.1380
   13CHL1   H1A  933   4.268   0.257   9.563 -0.1528 -0.3612  0.9614
   13CHL1   H1B  934   4.418   0.158   9.621 -0.8344 -0.3308  3.2173
   13CHL1    C2  935   4.312   0.273   9.772  0.6476 -0.4262  0.2141
   13CHL1   H2A  936   4.252   0.188   9.810  1.4424 -1.8125 -1.5508
   13CHL1   H2B  937   4.250   0.365   9.783  0.0921 -0.8395  0.5817
   13CHL1   C20  938   4.602   0.377   8.894  0.2548  1.1694 -0.2872
   13CHL1   H20  939   4.506   0.431   8.909 -0.3641 -0.2896  1.1493
   13CHL1   C21  940   4.569   0.235   8.845 -0.3085  0.1747  0.8504
   13CHL1  H21A  941   4.666   0.183   8.831 -0.6197 -0.0643 -0.5034
   13CHL1  H21B  942   4.525   0.221   8.744  2.6544 -0.5639 -0.4073
   13CHL1  H21C  943   4.515   0.181   8.925  1.4013 -1.8802  0.6545
   13CHL1   C22  944   4.698   0.447   8.793  0.6329 -0.6459  0.0984
   13CHL1  H22A  945   4.705   0.553   8.825 -0.0506 -0.4066 -0.5422
   13CHL1  H22B  946   4.800   0.402   8.791  0.5415 -0.8472 -0.0102
   13CHL1   C23  947   4.642   0.445   8.644  0.4195 -0.0605 -0.3573
   13CHL1  H23A  948   4.640   0.339   8.612  0.1659 -0.2367  0.2543
   13CHL1  H23B  949   4.541   0.491   8.642 -0.3413 -1.6623  0.6099
   13CHL1   C24  950   4.742   0.512   8.554  0.2031  0.1123 -0.5407
   13CHL1  H24A  951   4.778   0.608   8.598 -1.9897  1.6025 -1.9355
   13CHL1  H24B  952   4.829   0.445   8.542 -0.6390 -0.7363 -1.9461
   13CHL1   C25  953   4.687   0.534   8.410  0.2033 -0.5410 -0.6072
   13CHL1   H25  954   4.588   0.584   8.412  0.6816  0.3650  0.2665
   13CHL1   C26  955   4.772   0.623   8.325  0.1862 -0.1696  0.0612
   13CHL1  H26A  956   4.874   0.582   8.309  0.8942  2.0891 -1.4756
   13CHL1  H26B  957   4.725   0.630   8.224 -1.7066 -1.9892  0.7893
   13CHL1  H26C  958   4.790   0.719   8.377 -0.0282 -1.1775  2.0378
   13CHL1   C27  959   4.672   0.387   8.352  0.4980 -0.4513  0.1464
   13CHL1  H27A  960   4.576   0.338   8.377  0.7109 -0.9999 -0.1161
   13CHL1  H27B  961   4.689   0.384   8.242  1.9440 -0.2497  0.3574
   13CHL1  H27C  962   4.756   0.328   8.393  1.0567  0.5877  0.5184
   14CHL1    C3  963   4.292   3.509  10.466  0.0191 -0.0102  0.1214
   14CHL1    H3  964   4.311   3.618  10.479  2.7552 -0.4285 -0.0430
   14CHL1    O3  965   4.290   3.464  10.599  0.7866  0.0954  0.2806
   14CHL1   H3'  966   4.269   3.371  10.587  0.8164  0.0295  0.7139
   14CHL1    C4  967   4.157   3.488  10.401  0.2165  0.0030 -0.6839
   14CHL1   H4A  968   4.140   3.378  10.409 -1.6664  0.2214 -1.2876
   14CHL1   H4B  969   4.078   3.533  10.465 -0.0373  2.1419 -2.4366
   14CHL1    C5  970   4.159   3.541  10.259 -0.2121  0.0405 -0.4686
   14CHL1    C6  971   4.072   3.639  10.218 -0.1600  0.6477 -0.9481
   14CHL1    H6  972   3.994   3.674  10.288  2.5044 -1.0138  3.0484
   14CHL1    C7  973   4.057   3.692  10.083 -0.3103  0.3019  0.6618
   14CHL1   H7A  974   3.951   3.674  10.056 -0.7397  2.2961  0.9155
   14CHL1   H7B  975   4.077   3.801  10.084 -0.1368  0.2672  2.6391
   14CHL1    C8  976   4.142   3.613   9.982  1.4099 -0.6387  0.0672
   14CHL1    H8  977   4.089   3.517   9.965 -0.9559  0.2811  1.9248
   14CHL1   C14  978   4.155   3.682   9.844  0.0862 -0.2158 -0.2542
   14CHL1   H14  979   4.220   3.770   9.866  0.3459 -0.5014  0.1284
   14CHL1   C15  980   4.028   3.722   9.763  0.4493  0.0769 -0.2541
   14CHL1  H15A  981   3.942   3.653   9.772  0.4681 -0.0323 -0.8831
   14CHL1  H15B  982   3.983   3.817   9.799  0.5593  0.0806 -0.1293
   14CHL1   C16  983   4.070   3.725   9.612  1.1063  0.0007 -0.0837
   14CHL1  H16A  984   4.007   3.656   9.552  0.7814  0.2131  0.0083
   14CHL1  H16B  985   4.052   3.824   9.566  0.7823  0.0998  0.2476
   14CHL1   C17  986   4.220   3.690   9.620  0.1345  0.4858 -0.2861
   14CHL1   H17  987   4.278   3.780   9.652  1.9748 -0.7193 -0.1502
   14CHL1   C13  988   4.239   3.600   9.744  0.4648 -0.1544  0.0898
   14CHL1   C18  989   4.192   3.456   9.726  0.1962 -0.5597  0.1553
   14CHL1  H18A  990   4.088   3.449   9.689 -0.8279  0.0159  2.8478
   14CHL1  H18B  991   4.258   3.411   9.649 -2.8453 -2.2218 -1.5518
   14CHL1  H18C  992   4.198   3.385   9.811  0.3855 -0.6310  0.0842
   14CHL1   C12  993   4.385   3.599   9.791 -0.0811 -0.9983 -0.1014
   14CHL1  H12A  994   4.455   3.549   9.720  0.1431  0.1793 -0.7111
   14CHL1  H12B  995   4.417   3.705   9.789  2.2328 -1.6561 -0.5271
   14CHL1   C11  996   4.397   3.541   9.933 -0.0078  0.5078 -1.2307
   14CHL1  H11A  997   4.399   3.431   9.920  0.6661  0.2249  0.9634
   14CHL1  H11B  998   4.501   3.559   9.969 -0.6560  2.7096 -0.3432
   14CHL1    C9  999   4.282   3.582  10.032  0.5207  0.7378 -0.0857
   14CHL1    H9 1000   4.320   3.679  10.070  2.5107  0.4597 -1.2512
   14CHL1   C10 1001   4.280   3.499  10.162  0.2884 -0.1512 -0.6792
   14CHL1   C19 1002   4.260   3.349  10.121 -0.6254  0.2919 -0.0287
   14CHL1  H19A 1003   4.356   3.313  10.077 -1.0788  0.1328 -0.8936
   14CHL1  H19B 1004   4.243   3.288  10.212 -1.0616  3.3611  2.0050
   14CHL1  H19C 1005   4.177   3.334  10.049 -0.8905  2.6546 -0.2344
   14CHL1    C1 1006   4.417   3.507  10.240  0.4759  0.0378  0.1543
   14CHL1   H1A 1007   4.505   3.461  10.190  0.7092  2.0791 -1.3610
   14CHL1   H1B 1008   4.445   3.614  10.245 -0.1867  0.2432 -0.5429
   14CHL1    C2 1009   4.409   3.449  10.389 -0.4497  0.3887 -0.0821
   14CHL1   H2A 1010   4.499   3.482  10.446  0.8337 -0.2862 -1.6817
   14CHL1   H2B 1011   4.410   3.339  10.404  1.5118  0.4132  0.1166
   14CHL1   C20 1012   4.260   3.646   9.481  0.5308  0.1152  0.0888
   14CHL1   H20 1013   4.188   3.566   9.454  1.4030  0.0609 -2.2267
   14CHL1   C21 1014   4.408   3.592   9.476  0.4996  0.3001  0.5782
   14CHL1  H21A 1015   4.415   3.503   9.541 -1.6589  0.1566  0.6414
   14CHL1  H21B 1016   4.485   3.669   9.499  0.5555  0.1972  0.7331
   14CHL1  H21C 1017   4.428   3.543   9.379 -0.2937 -1.6283  1.3737
   14CHL1   C22 1018   4.252   3.756   9.373  0.3939  0.4459 -0.0711
   14CHL1  H22A 1019   4.165   3.824   9.386  1.9060  2.3549  0.2024
   14CHL1  H22B 1020   4.338   3.826   9.377 -0.5659  1.6620 -0.3312
   14CHL1   C23 1021   4.253   3.711   9.225  0.5323 -0.1867 -0.0107
   14CHL1  H23A 1022   4.349   3.662   9.197  1.4396  1.3871  0.2315
   14CHL1  H23B 1023   4.177   3.632   9.234  0.3878  0.1076  1.5889
   14CHL1   C24 1024   4.231   3.822   9.124  0.5954 -0.5588 -0.2050
   14CHL1  H24A 1025   4.126   3.855   9.136  1.5556  2.2321  0.7260
   14CHL1  H24B 1026   4.299   3.905   9.150 -0.4057 -0.0267  0.7700
   14CHL1   C25 1027   4.246   3.776   8.976 -0.1821  0.2851 -0.8917
   14CHL1   H25 1028   4.349   3.735   8.968 -0.5843 -0.4675 -2.4983
   14CHL1   C26 1029   4.150   3.672   8.932  0.4769  0.5209  0.7270
   14CHL1  H26A 1030   4.177   3.566   8.948  1.4657  0.5013 -0.9035
   14CHL1  H26B 1031   4.050   3.707   8.965 -0.0098 -1.7393  1.7186
   14CHL1  H26C 1032   4.152   3.676   8.821  0.4626 -3.5689  0.5296
   14CHL1   C27 1033   4.234   3.895   8.878  0.7519  0.6666 -0.1936
   14CHL1  H27A 1034   4.289   3.879   8.783  3.8345  3.0793  1.1121
   14CHL1  H27B 1035   4.132   3.931   8.851  0.5638  1.6845  1.8155
   14CHL1  H27C 1036   4.297   3.978   8.917  1.6937 -0.6958  1.2566
   15CHL1    C3 1037   4.680   2.610  10.133  0.8335  0.3230  0.0703
   15CHL1    H3 1038   4.591   2.676  10.134  0.3117 -0.3592 -1.3099
   15CHL1    O3 1039   4.696   2.543  10.259 -0.6238  0.3736 -0.2422
   15CHL1   H3' 1040   4.791   2.533  10.265 -0.7587 -2.0968 -1.3650
   15CHL1    C4 1041   4.647   2.505  10.027 -0.3697 -0.1611 -0.6846
   15CHL1   H4A 1042   4.722   2.423  10.029 -2.2254 -1.8738 -0.4025
   15CHL1   H4B 1043   4.553   2.450  10.048  1.3028 -2.8582  0.0296
   15CHL1    C5 1044   4.661   2.568   9.883  0.3429  0.0090  0.0375
   15CHL1    C6 1045   4.560   2.558   9.793  0.4752 -0.4228 -1.0162
   15CHL1    H6 1046   4.469   2.503   9.818  0.2161  0.8123  0.8606
   15CHL1    C7 1047   4.572   2.605   9.655  0.1682  0.6034  0.2010
   15CHL1   H7A 1048   4.529   2.525   9.592  1.5413 -1.1798  1.4595
   15CHL1   H7B 1049   4.511   2.694   9.626  0.2828  0.6282  0.0367
   15CHL1    C8 1050   4.718   2.640   9.608 -0.8199 -0.2561  0.7041
   15CHL1    H8 1051   4.775   2.545   9.596 -1.7463 -0.7697  0.2961
   15CHL1   C14 1052   4.718   2.713   9.480  0.4056  0.3280 -0.2275
   15CHL1   H14 1053   4.680   2.815   9.503 -1.7269 -0.5987  0.4266
   15CHL1   C15 1054   4.630   2.664   9.367 -0.2418  0.2393  0.1788
   15CHL1  H15A 1055   4.639   2.554   9.355  0.2104  0.0356  2.2551
   15CHL1  H15B 1056   4.522   2.686   9.381  0.0597  1.0170  1.4071
   15CHL1   C16 1057   4.683   2.757   9.254  0.0257  0.7175  0.0985
   15CHL1  H16A 1058   4.705   2.695   9.165 -2.5363 -0.3878  0.1860
   15CHL1  H16B 1059   4.604   2.830   9.224 -0.7498 -0.0936  0.1379
   15CHL1   C17 1060   4.820   2.821   9.293  0.0086  0.0099 -0.0571
   15CHL1   H17 1061   4.794   2.924   9.327  0.7141 -0.4266  1.8426
   15CHL1   C13 1062   4.856   2.750   9.420  0.1184 -0.0171 -0.0331
   15CHL1   C18 1063   4.922   2.610   9.388  0.6011  0.6639  0.6492
   15CHL1  H18A 1064   5.028   2.619   9.356  0.4714  0.2112  0.0720
   15CHL1  H18B 1065   4.908   2.542   9.474 -0.7750  2.1368  1.6332
   15CHL1  H18C 1066   4.869   2.561   9.303  1.6227 -0.9126  0.9174
   15CHL1   C12 1067   4.936   2.828   9.525  0.1162  0.1403  0.4581
   15CHL1  H12A 1068   5.041   2.846   9.494 -0.2946 -0.7548 -1.5188
   15CHL1  H12B 1069   4.890   2.928   9.541  1.4620  0.6935  0.9252
   15CHL1   C11 1070   4.937   2.750   9.656 -0.0999 -0.1473 -0.1139
   15CHL1  H11A 1071   4.993   2.655   9.641 -1.0991 -1.3051  3.1235
   15CHL1  H11B 1072   4.984   2.805   9.740  1.4326 -1.5967  0.0028
   15CHL1    C9 1073   4.791   2.719   9.716  1.0205 -0.1665  0.1920
   15CHL1    H9 1074   4.735   2.814   9.726  0.7211 -0.1877 -1.1289
   15CHL1   C10 1075   4.789   2.648   9.850 -0.8031  0.0835 -0.3649
   15CHL1   C19 1076   4.915   2.553   9.852 -0.7801  0.3646  0.4628
   15CHL1  H19A 1077   4.903   2.490   9.761  4.1592  1.4433 -1.0618
   15CHL1  H19B 1078   5.015   2.600   9.850  0.0563 -1.3740 -0.0687
   15CHL1  H19C 1079   4.925   2.479   9.935 -0.8202 -1.0623 -0.7714
   15CHL1    C1 1080   4.817   2.753   9.964  0.5590  0.8331  0.3915
   15CHL1   H1A 1081   4.915   2.806   9.960  0.9316  0.1374  0.2324
   15CHL1   H1B 1082   4.737   2.829   9.956 -0.7809 -0.5203  0.7170
   15CHL1    C2 1083   4.812   2.690  10.108 -0.4023 -0.8474  0.2389
   15CHL1   H2A 1084   4.823   2.770  10.184 -0.9395  0.8082 -1.4179
   15CHL1   H2B 1085   4.900   2.625  10.125 -1.7992 -2.5848  0.9938
   15CHL1   C20 1086   4.910   2.846   9.168  0.5887 -0.1879  0.3323
   15CHL1   H20 1087   4.932   2.746   9.124 -1.5633  0.0200 -1.3249
   15CHL1   C21 1088   5.033   2.926   9.221  0.0431 -0.0648 -0.1901
   15CHL1  H21A 1089   5.103   2.953   9.139  0.5938  1.1372  0.6515
   15CHL1  H21B 1090   5.092   2.868   9.295 -0.7328  0.8467  1.1528
   15CHL1  H21C 1091   5.004   3.016   9.279  2.6066  1.5216 -1.2551
   15CHL1   C22 1092   4.837   2.933   9.058  0.0868  0.6578 -0.0147
   15CHL1  H22A 1093   4.754   2.873   9.014  0.2162  0.3605  0.1453
   15CHL1  H22B 1094   4.798   3.016   9.122  0.1871  0.1614  0.6946
   15CHL1   C23 1095   4.928   2.975   8.944  0.1502 -1.1981  0.7805
   15CHL1  H23A 1096   4.995   3.049   8.993  0.3991 -0.4237 -0.7217
   15CHL1  H23B 1097   5.004   2.899   8.918  0.9605  0.0637 -0.6259
   15CHL1   C24 1098   4.866   3.046   8.820 -0.1104  0.3892 -0.1794
   15CHL1  H24A 1099   4.798   2.982   8.761 -1.6289  0.3199  1.5889
   15CHL1  H24B 1100   4.826   3.146   8.847  1.6513  1.2571 -0.6821
   15CHL1   C25 1101   4.977   3.081   8.720  0.6189 -0.1313 -0.5607
   15CHL1   H25 1102   5.041   2.990   8.726  1.8080  0.8602  2.3990
   15CHL1   C26 1103   4.931   3.108   8.575  0.0972 -0.0144  0.2823
   15CHL1  H26A 1104   4.914   3.011   8.524 -0.2913 -0.9184  2.0802
   15CHL1  H26B 1105   4.844   3.178   8.572  1.5537  1.9342  1.6014
   15CHL1  H26C 1106   5.012   3.154   8.515 -1.1676  2.0681  0.1250
   15CHL1   C27 1107   5.069   3.191   8.766 -0.0805  0.0097 -0.1796
   15CHL1  H27A 1108   5.114   3.179   8.867 -1.4934  1.5271  0.6539
   15CHL1  H27B 1109   5.149   3.193   8.690 -0.0712 -0.6495 -0.1895
   15CHL1  H27C 1110   5.027   3.294   8.767  0.7898  0.3598  1.5945
   16CHL1    C3 1111   5.000   3.402  10.421  0.3999 -0.9414  0.6444
   16CHL1    H3 1112   4.895   3.377  10.395 -0.0921  0.8863  0.8242
   16CHL1    O3 1113   5.007   3.422  10.560  0.0535  0.3050  0.1160
   16CHL1   H3' 1114   5.098   3.441  10.582 -0.4679  1.4480  1.3346
   16CHL1    C4 1115   5.079   3.277  10.384  0.3728 -0.0861  0.1786
   16CHL1   H4A 1116   5.182   3.283  10.425  0.7183 -3.3163 -0.1237
   16CHL1   H4B 1117   5.014   3.196  10.423 -1.9361  3.3731  3.9397
   16CHL1    C5 1118   5.088   3.261  10.227  1.2851  0.5964  1.0035
   16CHL1    C6 1119   5.040   3.155  10.159 -0.4719 -0.1414 -0.2687
   16CHL1    H6 1120   4.983   3.078  10.212  0.8275 -0.3353  0.8968
   16CHL1    C7 1121   5.066   3.128  10.011 -0.1314 -0.2148  0.5064
   16CHL1   H7A 1122   5.090   3.023   9.986 -0.1874 -0.3493  1.0230
   16CHL1   H7B 1123   4.972   3.145   9.954 -0.6152 -0.5109  1.2063
   16CHL1    C8 1124   5.168   3.227   9.956 -0.0650  0.0924 -0.6784
   16CHL1    H8 1125   5.272   3.193   9.975  0.7731  1.9166 -1.7828
   16CHL1   C14 1126   5.138   3.223   9.805 -0.5523 -0.5169  0.0878
   16CHL1   H14 1127   5.034   3.262   9.795 -0.9420 -1.0319  1.8866
   16CHL1   C15 1128   5.158   3.088   9.732  0.0614 -0.5446 -0.1341
   16CHL1  H15A 1129   5.247   3.035   9.771  1.2892 -0.1373 -2.2959
   16CHL1  H15B 1130   5.069   3.023   9.747  1.7461 -2.9721 -0.4162
   16CHL1   C16 1131   5.188   3.121   9.588 -0.1175 -0.1147  0.1763
   16CHL1  H16A 1132   5.282   3.071   9.556  0.8890  0.2786  2.4237
   16CHL1  H16B 1133   5.101   3.095   9.524  0.3049 -2.0555  0.3518
   16CHL1   C17 1134   5.201   3.274   9.582 -0.5323  0.3402  0.1403
   16CHL1   H17 1135   5.102   3.321   9.566  0.6284  1.7925 -3.2209
   16CHL1   C13 1136   5.238   3.313   9.723 -0.2908 -0.4546 -0.5582
   16CHL1   C18 1137   5.386   3.274   9.751 -0.9892 -0.5316  0.5702
   16CHL1  H18A 1138   5.413   3.259   9.858 -2.8386 -0.3829  1.0836
   16CHL1  H18B 1139   5.423   3.180   9.704 -0.8278  0.6569 -1.7491
   16CHL1  H18C 1140   5.454   3.352   9.711 -1.6301  0.7018  1.8692
   16CHL1   C12 1141   5.205   3.457   9.774 -0.9690  1.3433 -0.3721
   16CHL1  H12A 1142   5.277   3.528   9.728  1.2754  0.4200  1.5891
   16CHL1  H12B 1143   5.100   3.484   9.754 -0.9613  1.1973 -0.6016
   16CHL1   C11 1144   5.224   3.471   9.920 -0.3347 -0.4973  0.0351
   16CHL1  H11A 1145   5.331   3.450   9.945  0.0470  0.8778 -0.4237
   16CHL1  H11B 1146   5.211   3.567   9.973  0.5966 -1.2697  1.7214
   16CHL1    C9 1147   5.144   3.365  10.006  0.3068  0.9510  0.3698
   16CHL1    H9 1148   5.037   3.381   9.981  0.8944  3.2402 -0.7727
   16CHL1   C10 1149   5.157   3.379  10.155  0.1837 -0.1718 -0.1100
   16CHL1   C19 1150   5.304   3.383  10.185 -0.0129 -0.5861 -0.7196
   16CHL1  H19A 1151   5.364   3.295  10.154  0.7510 -0.8306  1.3516
   16CHL1  H19B 1152   5.342   3.478  10.140 -0.0241 -0.0733  0.3461
   16CHL1  H19C 1153   5.328   3.387  10.293  3.1397 -0.6400 -1.3537
   16CHL1    C1 1154   5.084   3.513  10.200  0.7750 -0.1313  0.0441
   16CHL1   H1A 1155   5.150   3.597  10.171  0.2460  0.1772 -0.2710
   16CHL1   H1B 1156   4.990   3.512  10.141  1.0761  1.6688 -0.4808
   16CHL1    C2 1157   5.058   3.528  10.352  1.1073  0.0965 -0.1163
   16CHL1   H2A 1158   5.000   3.617  10.382 -1.0128 -1.4375  0.4855
   16CHL1   H2B 1159   5.161   3.537  10.394  1.5860  1.7936 -1.5974
   16CHL1   C20 1160   5.286   3.326   9.467  0.0831  0.5806 -0.2422
   16CHL1   H20 1161   5.392   3.329   9.499 -0.2181 -2.5289  1.1886
   16CHL1   C21 1162   5.239   3.473   9.440  0.0642  0.5855 -0.0811
   16CHL1  H21A 1163   5.316   3.521   9.376  1.8726  0.1115  1.6883
   16CHL1  H21B 1164   5.214   3.543   9.523 -0.7916 -0.1287  0.2751
   16CHL1  H21C 1165   5.142   3.470   9.387 -0.4299 -0.3097  0.8567
   16CHL1   C22 1166   5.273   3.243   9.339  0.7121 -0.3121  0.5869
   16CHL1  H22A 1167   5.263   3.134   9.358 -0.1663 -0.1456  1.1341
   16CHL1  H22B 1168   5.173   3.268   9.300  0.7688 -0.3550  0.4141
   16CHL1   C23 1169   5.364   3.263   9.227 -0.1812 -0.5428 -0.1233
   16CHL1  H23A 1170   5.354   3.367   9.190 -1.3063  0.0876  1.9244
   16CHL1  H23B 1171   5.468   3.262   9.267 -0.4747  0.5857  0.6923
   16CHL1   C24 1172   5.353   3.151   9.112 -0.1224 -0.8955 -0.8040
   16CHL1  H24A 1173   5.379   3.052   9.155  2.0014  1.0985  2.8015
   16CHL1  H24B 1174   5.251   3.140   9.071  0.1934 -1.5548 -1.4333
   16CHL1   C25 1175   5.449   3.174   9.004 -0.4236  0.1857  1.1513
   16CHL1   H25 1176   5.546   3.173   9.058  0.1960 -2.6608  0.0616
   16CHL1   C26 1177   5.457   3.055   8.906  0.8229 -0.2334 -0.3973
   16CHL1  H26A 1178   5.497   2.967   8.961  1.6338  1.1577  1.2886
   16CHL1  H26B 1179   5.354   3.048   8.866 -0.0614  1.2475  1.5490
   16CHL1  H26C 1180   5.524   3.082   8.822 -0.0314 -1.2586 -1.4236
   16CHL1   C27 1181   5.429   3.303   8.923  0.0633  0.2376  0.8409
   16CHL1  H27A 1182   5.507   3.299   8.844  0.4660  1.3157  1.1681
   16CHL1  H27B 1183   5.330   3.285   8.878  0.6303  0.0555 -0.3510
   16CHL1  H27C 1184   5.431   3.397   8.983 -0.8357  0.7449  0.0943
   17CHL1    C3 1185   0.581   0.028  10.229 -0.1615 -0.4026 -0.1855
   17CHL1    H3 1186   0.647  -0.061  10.224 -0.8491 -1.0087  1.4709
   17CHL1    O3 1187   0.560   0.064  10.364  0.0849 -0.0595 -0.1023
   17CHL1   H3' 1188   0.530   0.154  10.352 -1.5284 -0.6316 -0.5723
   17CHL1    C4 1189   0.665   0.142  10.166  0.9116 -0.6999  0.0549
   17CHL1   H4A 1190   0.608   0.237  10.166  0.3005 -0.9925  3.8936
   17CHL1   H4B 1191   0.754   0.159  10.231  1.0433 -0.1300 -0.2695
   17CHL1    C5 1192   0.699   0.115  10.014  0.3591  0.5428 -0.2136
   17CHL1    C6 1193   0.825   0.111   9.964  0.2092 -0.1873  0.2485
   17CHL1    H6 1194   0.911   0.142  10.025  1.8913 -1.7117 -1.3037
   17CHL1    C7 1195   0.846   0.087   9.811  0.4403 -0.2218 -0.1725
   17CHL1   H7A 1196   0.924   0.156   9.771  1.4341  1.5493  4.5134
   17CHL1   H7B 1197   0.865  -0.021   9.798  2.2772  0.0338  0.2014
   17CHL1    C8 1198   0.719   0.112   9.725  0.1117 -0.4969  0.3334
   17CHL1    H8 1199   0.699   0.221   9.722  0.4071 -0.4587 -0.3138
   17CHL1   C14 1200   0.745   0.057   9.580  0.1901  0.1214 -0.5906
   17CHL1   H14 1201   0.758  -0.053   9.585  0.2263  0.1358 -0.3543
   17CHL1   C15 1202   0.863   0.111   9.502  0.0583  0.0301 -0.5122
   17CHL1  H15A 1203   0.872   0.221   9.506 -0.0762  0.0082  0.8012
   17CHL1  H15B 1204   0.955   0.063   9.542  1.0072  1.0264 -1.4741
   17CHL1   C16 1205   0.837   0.066   9.354  0.0463  0.4307  0.0267
   17CHL1  H16A 1206   0.871   0.133   9.273  2.7012 -2.8638 -1.7105
   17CHL1  H16B 1207   0.888  -0.032   9.339 -0.8731 -0.1347  0.5145
   17CHL1   C17 1208   0.688   0.031   9.348 -0.3838  0.1677  0.0216
   17CHL1   H17 1209   0.686  -0.080   9.353 -2.1352  0.1500 -0.6314
   17CHL1   C13 1210   0.628   0.072   9.487 -0.2240  1.0661 -0.6894
   17CHL1   C18 1211   0.578   0.216   9.478 -0.4565  0.4093  0.1029
   17CHL1  H18A 1212   0.497   0.216   9.402 -1.0933  2.0410  0.7574
   17CHL1  H18B 1213   0.542   0.249   9.578 -2.1890  0.3933 -0.4973
   17CHL1  H18C 1214   0.655   0.280   9.430  0.1640 -0.9074 -0.6763
   17CHL1   C12 1215   0.516  -0.021   9.545 -0.0869  0.6462 -0.5187
   17CHL1  H12A 1216   0.430  -0.006   9.477  0.1176  0.3026 -0.8562
   17CHL1  H12B 1217   0.561  -0.123   9.541 -0.3000  0.5175  0.3381
   17CHL1   C11 1218   0.481   0.025   9.686  0.1402 -0.3916  0.4500
   17CHL1  H11A 1219   0.411   0.111   9.688 -1.7617 -1.9077  3.4158
   17CHL1  H11B 1220   0.424  -0.057   9.735  0.8739 -1.4285 -0.4137
   17CHL1    C9 1221   0.601   0.038   9.784 -0.1689 -0.3625 -0.5073
   17CHL1    H9 1222   0.650  -0.062   9.783 -2.4368 -1.5213  0.4991
   17CHL1   C10 1223   0.567   0.080   9.932  0.5501 -0.0197  0.3641
   17CHL1   C19 1224   0.487   0.213   9.931 -0.1417  0.2198 -0.4496
   17CHL1  H19A 1225   0.551   0.290   9.882 -0.2655 -0.9885 -2.5500
   17CHL1  H19B 1226   0.393   0.195   9.875 -0.4069 -0.5061  0.2148
   17CHL1  H19C 1227   0.460   0.247  10.033 -0.7156 -3.1764  0.5922
   17CHL1    C1 1228   0.480  -0.036  10.000  0.1645 -0.5718 -0.8322
   17CHL1   H1A 1229   0.383  -0.056   9.949 -1.1031  0.8464  0.9535
   17CHL1   H1B 1230   0.547  -0.123   9.987  2.2997  1.0009 -0.6786
   17CHL1    C2 1231   0.455  -0.009  10.151 -0.0725 -0.0563 -0.0978
   17CHL1   H2A 1232   0.416  -0.101  10.198 -0.4526 -0.3642 -1.0113
   17CHL1   H2B 1233   0.387   0.076  10.175  0.1043  0.6516 -1.9979
   17CHL1   C20 1234   0.623   0.082   9.213  0.9928 -0.2978 -0.8501
   17CHL1   H20 1235   0.617   0.193   9.226  0.7535 -0.4101  0.0415
   17CHL1   C21 1236   0.477   0.024   9.205  0.7121  0.2409  0.7683
   17CHL1  H21A 1237   0.401   0.054   9.280  1.5915  1.2386  1.2774
   17CHL1  H21B 1238   0.477  -0.087   9.217  0.0965  0.1748  0.1914
   17CHL1  H21C 1239   0.430   0.053   9.109  2.1852 -1.0845 -0.3949
   17CHL1   C22 1240   0.707   0.045   9.086  0.2108  0.1654  0.5267
   17CHL1  H22A 1241   0.814   0.072   9.097  0.4723  0.1477 -1.8144
   17CHL1  H22B 1242   0.698  -0.064   9.067  0.2226  0.2388  0.0908
   17CHL1   C23 1243   0.656   0.123   8.966  0.4665  0.6878  0.1200
   17CHL1  H23A 1244   0.554   0.091   8.935  0.7263  0.0225 -0.0639
   17CHL1  H23B 1245   0.629   0.227   8.995 -1.2964  0.0392  0.8968
   17CHL1   C24 1246   0.744   0.091   8.839  0.2332 -0.7366 -0.3926
   17CHL1  H24A 1247   0.852   0.113   8.854  0.2976 -2.9221  2.8602
   17CHL1  H24B 1248   0.742  -0.017   8.815  2.5602 -1.3198  1.8779
   17CHL1   C25 1249   0.684   0.159   8.717  0.3148 -0.1671  0.3644
   17CHL1   H25 1250   0.580   0.126   8.697 -0.6266  1.0969  2.9579
   17CHL1   C26 1251   0.679   0.318   8.718  0.2055 -0.0837  0.1023
   17CHL1  H26A 1252   0.661   0.354   8.615 -1.1876 -1.2599 -0.0859
   17CHL1  H26B 1253   0.604   0.359   8.789  0.0011 -2.4566  1.3236
   17CHL1  H26C 1254   0.780   0.352   8.750  0.4724 -1.6306  1.0133
   17CHL1   C27 1255   0.758   0.110   8.594 -0.7946  0.5111  0.7311
   17CHL1  H27A 1256   0.721   0.006   8.594 -0.0622  0.2487 -0.2043
   17CHL1  H27B 1257   0.729   0.164   8.501 -1.2025 -0.0157  0.5572
   17CHL1  H27C 1258   0.869   0.105   8.603 -0.4176  0.7986 -2.9860
   18CHL1    C3 1259   6.633   5.343  10.221  0.6529  0.8633 -0.1905
   18CHL1    H3 1260   6.638   5.235  10.195 -1.5721  0.0703  2.4035
   18CHL1    O3 1261   6.625   5.359  10.361 -0.1953 -0.1664  0.2606
   18CHL1   H3' 1262   6.552   5.418  10.381  0.8359  0.6503  1.7486
   18CHL1    C4 1263   6.745   5.429  10.156 -0.5630 -1.2676  0.1090
   18CHL1   H4A 1264   6.728   5.533  10.189 -0.1841 -0.7351 -1.3406
   18CHL1   H4B 1265   6.845   5.393  10.187 -0.6300 -1.1513  0.4568
   18CHL1    C5 1266   6.747   5.424   9.999  0.7138  0.0511  0.1856
   18CHL1    C6 1267   6.860   5.390   9.931  0.8847  0.3978  0.1286
   18CHL1    H6 1268   6.950   5.374   9.993  0.7830 -0.2540  0.1133
   18CHL1    C7 1269   6.857   5.375   9.779 -0.9600 -0.6616  0.1037
   18CHL1   H7A 1270   6.944   5.424   9.729 -0.9017 -0.6844  0.1825
   18CHL1   H7B 1271   6.875   5.270   9.746  1.6715  0.1285 -1.1955
   18CHL1    C8 1272   6.736   5.438   9.711 -0.5520  0.2326 -0.2784
   18CHL1    H8 1273   6.753   5.547   9.727 -0.6106 -0.0715  1.9788
   18CHL1   C14 1274   6.719   5.387   9.569 -0.2914 -0.8554  0.0655
   18CHL1   H14 1275   6.708   5.277   9.580  1.6932 -1.0936 -0.0749
   18CHL1   C15 1276   6.844   5.397   9.483 -0.4350 -0.6311 -0.1461
   18CHL1  H15A 1277   6.906   5.484   9.514 -0.4880 -0.0406 -1.6719
   18CHL1  H15B 1278   6.905   5.304   9.483 -1.6646 -1.4636 -2.7120
   18CHL1   C16 1279   6.794   5.413   9.338  0.0451 -0.0511  0.1495
   18CHL1  H16A 1280   6.815   5.514   9.297  1.5501 -1.2429 -2.1507
   18CHL1  H16B 1281   6.839   5.333   9.275 -3.4813 -0.6380 -1.7120
   18CHL1   C17 1282   6.640   5.408   9.344 -0.5593  0.3126  0.2195
   18CHL1   H17 1283   6.613   5.300   9.341 -2.3460  0.7659 -0.1652
   18CHL1   C13 1284   6.603   5.450   9.488 -0.1137  0.2605  0.0659
   18CHL1   C18 1285   6.604   5.600   9.506  0.1851 -0.1316 -0.2823
   18CHL1  H18A 1286   6.710   5.631   9.501  0.5867 -1.2357  1.0229
   18CHL1  H18B 1287   6.546   5.653   9.428  0.5712  0.2048 -0.3366
   18CHL1  H18C 1288   6.556   5.625   9.603  0.0903 -1.0683 -0.0837
   18CHL1   C12 1289   6.479   5.390   9.554 -0.1218  0.3818  0.2090
   18CHL1  H12A 1290   6.381   5.416   9.507 -0.7092  1.3483  1.8920
   18CHL1  H12B 1291   6.490   5.282   9.532  1.6921  0.6374 -0.2028
   18CHL1   C11 1292   6.473   5.408   9.705 -0.1332 -0.0239 -0.4854
   18CHL1  H11A 1293   6.437   5.511   9.725  3.0528  0.4450  3.4912
   18CHL1  H11B 1294   6.398   5.344   9.758  1.4543 -0.1650  1.6582
   18CHL1    C9 1295   6.611   5.396   9.777  0.1170  0.1285 -0.1933
   18CHL1    H9 1296   6.620   5.285   9.782  4.1817  0.3266 -2.0552
   18CHL1   C10 1297   6.615   5.448   9.925  0.0633  0.3896 -0.1054
   18CHL1   C19 1298   6.568   5.601   9.929 -0.2365 -0.0549 -0.3614
   18CHL1  H19A 1299   6.585   5.643  10.030  0.7886 -2.9190  0.7033
   18CHL1  H19B 1300   6.624   5.649   9.846 -0.5892 -0.0502 -0.5994
   18CHL1  H19C 1301   6.461   5.605   9.900 -0.3975  1.6972  0.4125
   18CHL1    C1 1302   6.508   5.369  10.012  0.3952  0.3995  0.3727
   18CHL1   H1A 1303   6.412   5.400   9.967  0.5335 -2.2162 -1.8529
   18CHL1   H1B 1304   6.515   5.261   9.987  0.7372  0.7652 -1.1234
   18CHL1    C2 1305   6.507   5.388  10.165  0.3745 -0.6069  0.0198
   18CHL1   H2A 1306   6.417   5.333  10.198 -0.4061 -0.5237 -1.9356
   18CHL1   H2B 1307   6.487   5.496  10.186  0.7821 -0.0552 -2.2947
   18CHL1   C20 1308   6.579   5.475   9.221  0.4999 -0.5523  0.5472
   18CHL1   H20 1309   6.606   5.582   9.225  0.9085 -0.6766  1.3869
   18CHL1   C21 1310   6.426   5.451   9.223 -0.1369 -0.1815  0.5919
   18CHL1  H21A 1311   6.376   5.485   9.130 -0.0129  1.1154  0.9883
   18CHL1  H21B 1312   6.378   5.512   9.303 -0.3848  1.7856 -1.0105
   18CHL1  H21C 1313   6.400   5.345   9.239 -1.3145  0.0129  0.0245
   18CHL1   C22 1314   6.635   5.416   9.087  0.2999 -0.1724 -0.6003
   18CHL1  H22A 1315   6.745   5.413   9.092  0.3338 -0.4475 -1.3456
   18CHL1  H22B 1316   6.611   5.309   9.068  1.2797 -0.4471 -0.2747
   18CHL1   C23 1317   6.605   5.509   8.967  0.5794  0.2405  0.3860
   18CHL1  H23A 1318   6.495   5.513   8.953  0.2483 -2.8418  1.8660
   18CHL1  H23B 1319   6.651   5.608   8.987  0.2620  0.5902 -0.5582
   18CHL1   C24 1320   6.663   5.459   8.836 -0.8449  0.1969 -0.2288
   18CHL1  H24A 1321   6.772   5.446   8.853 -0.5147  1.7622 -1.0773
   18CHL1  H24B 1322   6.625   5.358   8.810  1.1335 -0.5784 -0.1583
   18CHL1   C25 1323   6.652   5.550   8.720  0.9059 -0.5741 -0.0196
   18CHL1   H25 1324   6.559   5.607   8.739  0.9681 -0.9341  1.3622
   18CHL1   C26 1325   6.761   5.663   8.714  0.1727 -0.0260  0.4186
   18CHL1  H26A 1326   6.868   5.637   8.696 -0.0768 -0.4069 -0.5442
   18CHL1  H26B 1327   6.720   5.730   8.635 -2.2145 -2.6993 -0.6836
   18CHL1  H26C 1328   6.752   5.718   8.810  2.0398  1.1921 -0.0496
   18CHL1   C27 1329   6.657   5.477   8.583 -0.4711  0.4824  0.1591
   18CHL1  H27A 1330   6.755   5.426   8.569 -0.8608  0.4188 -2.5413
   18CHL1  H27B 1331   6.584   5.395   8.568  0.0215  0.3028 -1.3164
   18CHL1  H27C 1332   6.643   5.550   8.501 -1.2846 -1.0236 -1.0447
   19CHL1    C3 1333   4.159   1.948  10.181  0.7793 -0.1266 -0.8791
   19CHL1    H3 1334   4.106   2.009  10.105 -1.7230 -1.4093 -0.2346
   19CHL1    O3 1335   4.153   2.025  10.305 -0.0115  0.7158 -0.1619
   19CHL1   H3' 1336   4.062   2.044  10.325 -1.1346  0.1196 -4.1341
   19CHL1    C4 1337   4.083   1.813  10.200 -0.5816 -0.3862 -0.2816
   19CHL1   H4A 1338   4.133   1.753  10.279 -0.7012  0.2799  0.3119
   19CHL1   H4B 1339   3.983   1.837  10.243 -0.3379  1.6268 -0.7512
   19CHL1    C5 1340   4.083   1.744  10.066 -0.0018 -0.0352  0.0600
   19CHL1    C6 1341   3.968   1.725  10.007  0.3156  0.2389 -0.0190
   19CHL1    H6 1342   3.871   1.747  10.053 -0.4359 -1.3452 -0.8195
   19CHL1    C7 1343   3.953   1.682   9.867  0.4457  0.3661  0.7984
   19CHL1   H7A 1344   3.877   1.601   9.856 -0.7427  1.8393 -2.2538
   19CHL1   H7B 1345   3.926   1.769   9.803  2.2184  1.4602  1.5076
   19CHL1    C8 1346   4.086   1.628   9.805  0.5536  1.4383 -0.2026
   19CHL1    H8 1347   4.089   1.528   9.853  1.1383  1.3234 -0.4694
   19CHL1   C14 1348   4.075   1.611   9.656 -0.0189  0.0043  0.2692
   19CHL1   H14 1349   4.072   1.714   9.614 -1.6187  0.4011  1.3082
   19CHL1   C15 1350   3.947   1.549   9.593 -0.9149 -0.6970 -0.4495
   19CHL1  H15A 1351   3.917   1.457   9.647  1.7055 -1.4709 -0.2316
   19CHL1  H15B 1352   3.869   1.628   9.587  1.0876  1.2157 -2.0372
   19CHL1   C16 1353   3.987   1.514   9.448  0.0536  0.5705  0.3075
   19CHL1  H16A 1354   3.981   1.404   9.436  2.3258  0.0979  2.9857
   19CHL1  H16B 1355   3.932   1.562   9.364  0.5262 -0.0172 -0.3542
   19CHL1   C17 1356   4.142   1.542   9.436 -0.4827 -0.1857  1.0899
   19CHL1   H17 1357   4.152   1.643   9.392 -3.0333 -0.3435  0.0417
   19CHL1   C13 1358   4.197   1.552   9.586 -0.5388  0.6091  0.6614
   19CHL1   C18 1359   4.227   1.401   9.636 -0.2134  0.0523 -0.3918
   19CHL1  H18A 1360   4.320   1.384   9.578 -0.4756 -2.4182 -0.1504
   19CHL1  H18B 1361   4.243   1.406   9.746 -1.9762 -1.2795 -0.0408
   19CHL1  H18C 1362   4.137   1.344   9.606 -1.1249  2.3908 -2.2766
   19CHL1   C12 1363   4.320   1.647   9.617 -0.1270  0.0268  0.4342
   19CHL1  H12A 1364   4.406   1.613   9.556 -0.5343  2.3188 -1.5120
   19CHL1  H12B 1365   4.289   1.747   9.578  1.2845 -0.7605 -2.8683
   19CHL1   C11 1366   4.340   1.664   9.769  0.0033 -0.6143  0.7309
   19CHL1  H11A 1367   4.378   1.563   9.792  1.1183 -0.7047 -1.4335
   19CHL1  H11B 1368   4.422   1.732   9.800  0.7118 -0.2798 -1.8038
   19CHL1    C9 1369   4.208   1.710   9.843 -0.3066  0.2801 -0.6003
   19CHL1    H9 1370   4.183   1.812   9.806 -0.0213  0.7078  0.3807
   19CHL1   C10 1371   4.216   1.727   9.996 -0.4429 -0.9863 -0.4181
   19CHL1   C19 1372   4.275   1.594  10.044 -0.2139  0.2082  0.4199
   19CHL1  H19A 1373   4.288   1.602  10.154 -1.8961  0.9261  0.5836
   19CHL1  H19B 1374   4.207   1.507  10.032  0.2727 -0.1619  0.3356
   19CHL1  H19C 1375   4.379   1.571  10.014 -0.2899  0.4019  0.0074
   19CHL1    C1 1376   4.317   1.841  10.029  0.0247 -0.0382  0.1850
   19CHL1   H1A 1377   4.417   1.794  10.013  1.2462  3.2439 -2.2730
   19CHL1   H1B 1378   4.302   1.909   9.943  0.5893  0.5979  0.5813
   19CHL1    C2 1379   4.301   1.923  10.157 -0.5257 -0.1784  0.5186
   19CHL1   H2A 1380   4.362   2.015  10.162 -1.6927  0.5526  1.7466
   19CHL1   H2B 1381   4.343   1.859  10.238  1.8703 -0.8600 -1.1981
   19CHL1   C20 1382   4.207   1.436   9.334  0.4042 -0.3183  0.2913
   19CHL1   H20 1383   4.212   1.341   9.392 -0.1415  0.2595  1.3153
   19CHL1   C21 1384   4.358   1.477   9.312  0.0771 -0.4339 -0.2352
   19CHL1  H21A 1385   4.407   1.406   9.242 -0.7447 -1.6204  0.3632
   19CHL1  H21B 1386   4.417   1.473   9.406 -0.7856 -0.3797  0.3231
   19CHL1  H21C 1387   4.365   1.578   9.267 -1.0102 -0.4126 -0.3761
   19CHL1   C22 1388   4.123   1.412   9.199  0.3115  0.2005 -1.0774
   19CHL1  H22A 1389   4.190   1.338   9.151  0.2404  0.2458 -1.2471
   19CHL1  H22B 1390   4.024   1.371   9.227  0.1720  0.3173 -1.3992
   19CHL1   C23 1391   4.107   1.538   9.100  0.0270 -0.7436 -0.6457
   19CHL1  H23A 1392   4.088   1.626   9.164 -0.3774 -1.2233 -0.1089
   19CHL1  H23B 1393   4.206   1.557   9.052 -0.0596  0.3747 -0.3909
   19CHL1   C24 1394   4.010   1.508   8.985 -0.0776 -0.2223 -0.3603
   19CHL1  H24A 1395   4.060   1.428   8.926  1.8481  0.7121 -0.0390
   19CHL1  H24B 1396   3.913   1.471   9.025 -0.6650  1.1939 -0.4341
   19CHL1   C25 1397   3.987   1.635   8.890  0.1762  0.0283 -0.3230
   19CHL1   H25 1398   4.079   1.672   8.840  0.7028 -1.0807 -0.1933
   19CHL1   C26 1399   3.898   1.591   8.775 -0.2229  0.4786  0.1130
   19CHL1  H26A 1400   3.798   1.569   8.818 -0.5946 -1.7358 -1.7800
   19CHL1  H26B 1401   3.874   1.662   8.694 -1.4228 -1.0658 -0.9102
   19CHL1  H26C 1402   3.941   1.498   8.731 -0.4139  0.3330  0.2350
   19CHL1   C27 1403   3.917   1.762   8.950  0.3233 -0.0914 -0.3113
   19CHL1  H27A 1404   3.811   1.737   8.973  0.7161 -1.6207 -0.1408
   19CHL1  H27B 1405   3.963   1.819   9.033  0.8145 -1.0562  0.0880
   19CHL1  H27C 1406   3.896   1.831   8.865 -0.0868  0.5105  0.2765
   20CHL1    C3 1407   6.283   2.794  10.310  0.2449 -0.4568 -0.1392
   20CHL1    H3 1408   6.387   2.798  10.274  0.2137  0.3802 -0.1466
   20CHL1    O3 1409   6.265   2.806  10.447 -0.3565  0.1037  0.1824
   20CHL1   H3' 1410   6.305   2.891  10.465  1.1263 -0.4978 -0.2487
   20CHL1    C4 1411   6.210   2.910  10.245 -0.8230 -0.0354  0.2472
   20CHL1   H4A 1412   6.101   2.905  10.262 -0.7802  0.0736  0.5645
   20CHL1   H4B 1413   6.240   3.010  10.284  1.5664 -1.1216  1.2784
   20CHL1    C5 1414   6.237   2.913  10.097  0.4711 -1.0446 -0.5748
   20CHL1    C6 1415   6.305   3.013  10.048 -0.4325  0.5240 -0.4100
   20CHL1    H6 1416   6.352   3.089  10.111  2.0976  0.8320 -2.5876
   20CHL1    C7 1417   6.346   3.026   9.905 -0.1591 -0.1652 -0.2099
   20CHL1   H7A 1418   6.314   3.124   9.863  0.3620 -0.0410 -0.3245
   20CHL1   H7B 1419   6.457   3.016   9.912 -0.1778 -2.7260 -2.8103
   20CHL1    C8 1420   6.279   2.922   9.815 -0.0525 -0.0898 -1.1785
   20CHL1    H8 1421   6.174   2.953   9.798  0.3326  1.2286 -1.2146
   20CHL1   C14 1422   6.352   2.913   9.682  0.7115 -0.3305 -0.3126
   20CHL1   H14 1423   6.453   2.873   9.704  0.8442 -0.0954 -0.4984
   20CHL1   C15 1424   6.367   3.044   9.603 -0.6551  0.4921  0.2321
   20CHL1  H15A 1425   6.273   3.103   9.597  0.3412  2.3796  2.2576
   20CHL1  H15B 1426   6.450   3.109   9.639 -0.5533 -0.9585  2.7147
   20CHL1   C16 1427   6.407   2.989   9.465  0.5038 -0.3305 -0.8459
   20CHL1  H16A 1428   6.361   3.045   9.381  1.3519  0.1694 -0.9786
   20CHL1  H16B 1429   6.515   3.003   9.440  0.0790  0.6957 -2.1477
   20CHL1   C17 1430   6.379   2.839   9.455 -0.2730  0.5584 -0.2433
   20CHL1   H17 1431   6.464   2.776   9.489  0.0041  0.1569 -1.6740
   20CHL1   C13 1432   6.286   2.814   9.584 -0.2918 -0.0447 -0.0047
   20CHL1   C18 1433   6.142   2.859   9.545 -0.2224 -0.5468  0.7655
   20CHL1  H18A 1434   6.145   2.955   9.489 -2.9143 -2.4265 -2.8555
   20CHL1  H18B 1435   6.101   2.778   9.481  0.8460  0.0821 -0.7492
   20CHL1  H18C 1436   6.081   2.868   9.637 -0.3817  1.9970  0.4517
   20CHL1   C12 1437   6.289   2.674   9.652 -0.0344  0.0006  0.9560
   20CHL1  H12A 1438   6.246   2.598   9.584 -2.1947  1.0402  1.1184
   20CHL1  H12B 1439   6.395   2.660   9.683 -0.2495  0.6252  2.0220
   20CHL1   C11 1440   6.211   2.680   9.785 -0.4568 -0.2793  0.2704
   20CHL1  H11A 1441   6.103   2.692   9.763  0.1328  1.4760 -1.8734
   20CHL1  H11B 1442   6.224   2.576   9.824  1.5968 -0.7826 -1.6188
   20CHL1    C9 1443   6.262   2.786   9.883 -0.0149 -0.1579  0.4650
   20CHL1    H9 1444   6.367   2.751   9.896 -0.6729 -1.8873  1.3254
   20CHL1   C10 1445   6.195   2.786  10.022  0.5525 -0.3663 -0.9067
   20CHL1   C19 1446   6.038   2.781  10.010 -0.4206  0.2725 -0.5541
   20CHL1  H19A 1447   6.011   2.683   9.965  0.1241 -0.2289  0.2140
   20CHL1  H19B 1448   5.988   2.767  10.108  0.0303 -4.9175 -0.9106
   20CHL1  H19C 1449   5.994   2.864   9.951 -0.7942  0.5425  0.1017
   20CHL1    C1 1450   6.233   2.656  10.109  0.3379  0.0305  1.0051
   20CHL1   H1A 1451   6.165   2.578  10.070  0.3924  0.4241  0.1125
   20CHL1   H1B 1452   6.337   2.622  10.088 -0.1716 -1.2069  0.4133
   20CHL1    C2 1453   6.218   2.661  10.258  0.7201 -0.2037 -0.2342
   20CHL1   H2A 1454   6.265   2.570  10.302 -1.1678 -0.6811  0.8373
   20CHL1   H2B 1455   6.110   2.655  10.284  0.4548  0.1663 -1.2013
   20CHL1   C20 1456   6.337   2.808   9.312  0.0790  0.0197 -0.3370
   20CHL1   H20 1457   6.246   2.866   9.286 -0.1630  0.0794  0.6175
   20CHL1   C21 1458   6.301   2.661   9.302  0.6422  0.0890  0.0172
   20CHL1  H21A 1459   6.277   2.632   9.198  3.7449  0.5966 -0.8846
   20CHL1  H21B 1460   6.209   2.643   9.362 -0.0107  0.6475 -0.8031
   20CHL1  H21C 1461   6.385   2.603   9.348  1.0210  0.3996 -0.2830
   20CHL1   C22 1462   6.450   2.840   9.201  0.3187  0.3696 -0.4374
   20CHL1  H22A 1463   6.408   2.820   9.100  0.2548  2.4550 -0.8552
   20CHL1  H22B 1464   6.472   2.949   9.193  0.8218  0.3553  0.5986
   20CHL1   C23 1465   6.587   2.769   9.219 -0.2503  0.0522  0.0523
   20CHL1  H23A 1466   6.619   2.774   9.325  0.6703 -0.6753 -0.1823
   20CHL1  H23B 1467   6.566   2.662   9.196  0.2500 -1.2608  5.1468
   20CHL1   C24 1468   6.710   2.811   9.133 -0.2864  0.8189 -0.4392
   20CHL1  H24A 1469   6.730   2.919   9.148  0.3001  0.2175  3.8324
   20CHL1  H24B 1470   6.806   2.770   9.171 -1.2271  0.0358  1.1535
   20CHL1   C25 1471   6.690   2.794   8.982 -0.3057 -0.9813  0.1064
   20CHL1   H25 1472   6.595   2.844   8.952  1.3563  0.5644 -2.7170
   20CHL1   C26 1473   6.801   2.875   8.911  0.0027 -0.3425 -0.3450
   20CHL1  H26A 1474   6.787   2.870   8.801 -2.0290  2.4321 -0.2844
   20CHL1  H26B 1475   6.794   2.983   8.937 -0.4416 -0.1395 -1.3005
   20CHL1  H26C 1476   6.899   2.835   8.945 -1.9031 -3.0321  2.2621
   20CHL1   C27 1477   6.697   2.650   8.935  0.0498  0.0580  0.4157
   20CHL1  H27A 1478   6.785   2.596   8.976 -1.2064 -0.4255  2.4973
   20CHL1  H27B 1479   6.610   2.597   8.977  0.2899 -1.5991 -1.1040
   20CHL1  H27C 1480   6.701   2.649   8.824 -0.0467  2.9157  0.3463
   21CHL1    C3 1481   5.704   5.694  10.304 -0.1221 -0.9365  0.1592
   21CHL1    H3 1482   5.651   5.782  10.347  1.9083 -1.1680  3.3445
   21CHL1    O3 1483   5.772   5.623  10.410  0.0102  0.1714  0.2859
   21CHL1   H3' 1484   5.839   5.680  10.448  0.6074 -1.6941  2.1562
   21CHL1    C4 1485   5.609   5.610  10.226  0.2594  1.0634  1.2057
   21CHL1   H4A 1486   5.659   5.517  10.192 -2.1159  0.0348  0.3616
   21CHL1   H4B 1487   5.536   5.566  10.298 -0.0868  0.6556  0.6128
   21CHL1    C5 1488   5.545   5.667  10.101  0.5485  0.5136 -0.3709
   21CHL1    C6 1489   5.415   5.671  10.078 -0.0238 -0.4591  0.3401
   21CHL1    H6 1490   5.346   5.622  10.149  1.5451  0.9241  2.8989
   21CHL1    C7 1491   5.368   5.739   9.948  0.6235  0.2631  0.0665
   21CHL1   H7A 1492   5.288   5.668   9.915 -1.4055  0.1682  4.8808
   21CHL1   H7B 1493   5.327   5.839   9.973 -2.1410 -0.5652 -0.8586
   21CHL1    C8 1494   5.461   5.762   9.830 -0.4852  0.0322 -0.7049
   21CHL1    H8 1495   5.473   5.669   9.770  1.0714  0.2134 -0.7084
   21CHL1   C14 1496   5.404   5.861   9.730 -0.7070 -0.3784  0.5751
   21CHL1   H14 1497   5.396   5.961   9.777 -1.2160  1.2181 -2.7702
   21CHL1   C15 1498   5.264   5.845   9.666  0.3540 -0.0404  0.7574
   21CHL1  H15A 1499   5.257   5.736   9.646 -2.7394  0.0224  1.3163
   21CHL1  H15B 1500   5.188   5.878   9.741  0.4441  1.3802  0.2473
   21CHL1   C16 1501   5.274   5.923   9.529 -0.2208 -0.5974 -0.9824
   21CHL1  H16A 1502   5.276   5.846   9.448 -0.4261  1.2815 -2.8073
   21CHL1  H16B 1503   5.189   5.994   9.517 -0.0108  0.0259  1.0188
   21CHL1   C17 1504   5.414   5.988   9.534 -0.7702  0.8885 -0.1964
   21CHL1   H17 1505   5.403   6.069   9.610  1.8656 -1.7433  3.1489
   21CHL1   C13 1506   5.501   5.894   9.611  0.1307 -0.0485  0.0384
   21CHL1   C18 1507   5.530   5.768   9.532 -0.4719  0.5064  0.3619
   21CHL1  H18A 1508   5.434   5.726   9.493 -0.3915 -0.6677  1.3800
   21CHL1  H18B 1509   5.598   5.799   9.450 -1.9079  2.3102 -0.1800
   21CHL1  H18C 1510   5.582   5.688   9.589  0.9820  0.0236 -1.5802
   21CHL1   C12 1511   5.632   5.954   9.672 -0.6228  0.0646  0.1933
   21CHL1  H12A 1512   5.713   5.983   9.602 -0.2010 -0.7099  0.3472
   21CHL1  H12B 1513   5.596   6.047   9.720 -1.6869  1.2981 -2.8686
   21CHL1   C11 1514   5.686   5.857   9.773 -0.3202 -0.4063 -0.1148
   21CHL1  H11A 1515   5.738   5.770   9.727 -0.8067 -0.8990  0.2678
   21CHL1  H11B 1516   5.767   5.918   9.818  0.0946 -1.4960  0.6487
   21CHL1    C9 1517   5.589   5.821   9.889 -0.0730 -0.2710  0.3289
   21CHL1    H9 1518   5.551   5.911   9.943 -1.6566 -1.4080  1.1500
   21CHL1   C10 1519   5.654   5.734  10.006  0.1021  0.2468 -0.6955
   21CHL1   C19 1520   5.735   5.620   9.943 -0.4806 -0.0325 -0.0954
   21CHL1  H19A 1521   5.674   5.572   9.863  0.1448  0.6443 -0.9872
   21CHL1  H19B 1522   5.826   5.664   9.897 -0.7494  3.2260  2.3298
   21CHL1  H19C 1523   5.774   5.550  10.020  1.6376  1.1002 -0.1101
   21CHL1    C1 1524   5.749   5.822  10.089  0.0925 -0.7222 -0.1809
   21CHL1   H1A 1525   5.830   5.866  10.025  0.5099  0.4766  1.1445
   21CHL1   H1B 1526   5.691   5.908  10.129  0.7511 -1.5485  2.6110
   21CHL1    C2 1527   5.821   5.750  10.207  0.5151  0.3898 -0.2404
   21CHL1   H2A 1528   5.887   5.819  10.263 -1.3740  1.7001  0.4489
   21CHL1   H2B 1529   5.880   5.667  10.164 -1.5153 -0.4064 -1.5873
   21CHL1   C20 1530   5.464   6.050   9.404  0.1822 -0.2586  0.1851
   21CHL1   H20 1531   5.571   6.080   9.409 -0.6226  3.5420 -3.2490
   21CHL1   C21 1532   5.394   6.185   9.387  0.1706  0.0604  0.2587
   21CHL1  H21A 1533   5.436   6.247   9.469  1.3720  1.9910 -1.7691
   21CHL1  H21B 1534   5.285   6.185   9.408  0.3404 -1.7638  1.2655
   21CHL1  H21C 1535   5.407   6.237   9.290  2.2199  0.3986  0.6925
   21CHL1   C22 1536   5.423   5.969   9.281  0.1351 -0.2853 -0.0570
   21CHL1  H22A 1537   5.446   5.864   9.309  0.5547 -1.3653 -4.2104
   21CHL1  H22B 1538   5.313   5.982   9.270  0.2363  1.0372  0.4589
   21CHL1   C23 1539   5.505   6.003   9.154 -0.7310 -0.0964  0.6084
   21CHL1  H23A 1540   5.519   6.113   9.144  0.5091 -0.5339 -3.6844
   21CHL1  H23B 1541   5.608   5.967   9.174 -0.8233 -0.4579  0.4386
   21CHL1   C24 1542   5.448   5.940   9.026 -0.4894  0.3103 -0.1623
   21CHL1  H24A 1543   5.353   5.992   9.002 -0.0191  2.3012  2.0540
   21CHL1  H24B 1544   5.522   5.967   8.949 -1.1106  0.7867 -0.6009
   21CHL1   C25 1545   5.427   5.784   9.034 -0.0052 -0.0908  0.7584
   21CHL1   H25 1546   5.366   5.780   9.127  1.5633  3.0635  1.9945
   21CHL1   C26 1547   5.369   5.724   8.905 -0.0931  0.1595  0.4438
   21CHL1  H26A 1548   5.313   5.811   8.865 -0.5305  0.1991  1.1221
   21CHL1  H26B 1549   5.450   5.696   8.834 -0.5899  0.0305 -0.0709
   21CHL1  H26C 1550   5.294   5.643   8.921 -2.0335  1.9319  0.5404
   21CHL1   C27 1551   5.558   5.711   9.070 -0.1956 -0.5514  0.3479
   21CHL1  H27A 1552   5.537   5.605   9.097  1.7902 -1.2183 -0.6279
   21CHL1  H27B 1553   5.629   5.733   8.988  1.6246 -1.5143  1.5981
   21CHL1  H27C 1554   5.612   5.762   9.153  0.4933 -0.4200 -0.1705
   22CHL1    C3 1555   5.667   0.193   9.980 -0.1969  0.6408 -0.8163
   22CHL1    H3 1556   5.569   0.235   9.950 -0.4662  1.2498  0.8709
   22CHL1    O3 1557   5.673   0.199  10.116  0.0818 -0.0965 -0.6320
   22CHL1   H3' 1558   5.750   0.144  10.135 -1.6539 -2.3176  0.2519
   22CHL1    C4 1559   5.670   0.047   9.931  0.0598 -0.0030 -0.1974
   22CHL1   H4A 1560   5.765  -0.002   9.962  1.0352  0.1917 -2.7880
   22CHL1   H4B 1561   5.600  -0.010   9.996  0.3288 -0.0688  0.0350
   22CHL1    C5 1562   5.655   0.044   9.784  0.2191 -0.4596 -0.4337
   22CHL1    C6 1563   5.551  -0.017   9.719  0.1588 -0.1017  0.7102
   22CHL1    H6 1564   5.475  -0.077   9.770  1.4637 -1.6371  0.8744
   22CHL1    C7 1565   5.534  -0.023   9.571  0.3461  0.0657  0.1630
   22CHL1   H7A 1566   5.511  -0.128   9.546 -2.5103  0.3973  1.2535
   22CHL1   H7B 1567   5.448   0.042   9.545  0.1266 -1.5766 -3.3712
   22CHL1    C8 1568   5.649   0.027   9.486 -0.0555  0.4423 -0.0503
   22CHL1    H8 1569   5.731  -0.048   9.490  1.1247  1.7891  1.8410
   22CHL1   C14 1570   5.607   0.066   9.348 -0.1786 -0.0333 -0.8614
   22CHL1   H14 1571   5.541   0.155   9.355 -0.9171 -0.7800  2.0960
   22CHL1   C15 1572   5.527  -0.039   9.274  0.2156  0.5987  0.1076
   22CHL1  H15A 1573   5.559  -0.142   9.300 -1.3147  0.0790 -0.0277
   22CHL1  H15B 1574   5.419  -0.029   9.301 -0.1093  1.3350 -1.4540
   22CHL1   C16 1575   5.539   0.015   9.127 -0.0144  0.2554  0.3205
   22CHL1  H16A 1576   5.568  -0.073   9.065 -2.8566 -0.3367 -0.2779
   22CHL1  H16B 1577   5.440   0.052   9.091  0.6112  0.9162 -0.7449
   22CHL1   C17 1578   5.652   0.125   9.124  0.8968  0.4255  0.2729
   22CHL1   H17 1579   5.596   0.220   9.135  0.1988  0.0904 -0.3507
   22CHL1   C13 1580   5.724   0.097   9.256  0.0123 -0.1212 -0.1788
   22CHL1   C18 1581   5.819  -0.027   9.238  0.0238 -0.0828 -0.0774
   22CHL1  H18A 1582   5.900  -0.014   9.163 -0.3660 -0.3971 -0.5544
   22CHL1  H18B 1583   5.869  -0.060   9.331 -1.0714 -0.3876  0.4212
   22CHL1  H18C 1584   5.761  -0.120   9.219  1.4586 -0.9017 -0.4718
   22CHL1   C12 1585   5.795   0.217   9.316 -0.9935 -0.7607  0.1541
   22CHL1  H12A 1586   5.880   0.243   9.249 -0.2744 -0.4947  1.1512
   22CHL1  H12B 1587   5.718   0.296   9.315 -1.4734 -1.1922  1.5870
   22CHL1   C11 1588   5.836   0.195   9.462  0.6107 -0.2234  0.8650
   22CHL1  H11A 1589   5.918   0.119   9.464  1.1774  0.3432 -0.2317
   22CHL1  H11B 1590   5.876   0.290   9.502 -2.3765  1.2278  0.5081
   22CHL1    C9 1591   5.718   0.149   9.552 -0.0717 -0.3270 -0.2282
   22CHL1    H9 1592   5.640   0.228   9.548  1.5003  1.3096  0.4325
   22CHL1   C10 1593   5.764   0.124   9.700  1.1528  0.4513 -0.3656
   22CHL1   C19 1594   5.895   0.044   9.700 -0.0291 -0.2926  0.3043
   22CHL1  H19A 1595   5.980   0.111   9.677  1.5939 -2.1580  0.7420
   22CHL1  H19B 1596   5.921   0.022   9.806  2.0457  2.3868  0.4295
   22CHL1  H19C 1597   5.895  -0.048   9.638 -2.4053  0.7902 -1.3900
   22CHL1    C1 1598   5.783   0.262   9.764  0.5591 -0.0488  0.1024
   22CHL1   H1A 1599   5.873   0.310   9.719 -0.2005  0.5117 -0.8354
   22CHL1   H1B 1600   5.699   0.326   9.728  0.8464 -0.6359 -1.6836
   22CHL1    C2 1601   5.788   0.273   9.915  0.0246  0.5138  0.8796
   22CHL1   H2A 1602   5.780   0.375   9.959 -0.5939  1.1112 -0.6106
   22CHL1   H2B 1603   5.888   0.238   9.948  0.0827 -0.0905  0.0703
   22CHL1   C20 1604   5.728   0.123   8.988  0.1137 -0.2753 -0.1103
   22CHL1   H20 1605   5.762   0.018   8.978 -0.9513 -0.5157 -1.3040
   22CHL1   C21 1606   5.848   0.229   8.976  0.1213 -0.0430 -0.4583
   22CHL1  H21A 1607   5.887   0.238   8.872 -1.2383  1.2919 -0.8672
   22CHL1  H21B 1608   5.929   0.193   9.043  0.5763  3.6889  1.1608
   22CHL1  H21C 1609   5.805   0.326   9.008  1.2169  0.2762  0.0787
   22CHL1   C22 1610   5.635   0.147   8.863 -0.8600  0.5106 -0.3519
   22CHL1  H22A 1611   5.534   0.110   8.890 -0.1730  0.7180  2.6227
   22CHL1  H22B 1612   5.628   0.256   8.843 -0.0603  0.8097  0.9668
   22CHL1   C23 1613   5.694   0.065   8.740  0.5757 -0.6887 -0.3975
   22CHL1  H23A 1614   5.797   0.105   8.728 -0.7982  3.0142 -0.4250
   22CHL1  H23B 1615   5.698  -0.043   8.765  0.0107 -0.3199  1.3110
   22CHL1   C24 1616   5.617   0.087   8.606 -1.0802 -0.5693 -0.0535
   22CHL1  H24A 1617   5.627   0.195   8.584  1.1765 -0.5702  0.8763
   22CHL1  H24B 1618   5.657   0.025   8.522  1.2448  1.4155 -0.4867
   22CHL1   C25 1619   5.464   0.059   8.616  0.5397  0.4690  0.5372
   22CHL1   H25 1620   5.420   0.125   8.694 -2.0680  1.3114 -1.6173
   22CHL1   C26 1621   5.395   0.097   8.485 -0.5003  0.1218 -0.2788
   22CHL1  H26A 1622   5.416   0.007   8.423 -1.6618 -0.3810  0.0441
   22CHL1  H26B 1623   5.290   0.122   8.508 -0.1354  1.8957 -0.4804
   22CHL1  H26C 1624   5.429   0.187   8.429  3.5340 -1.6264 -0.7903
   22CHL1   C27 1625   5.416  -0.081   8.650  0.1637  0.2709  0.3493
   22CHL1  H27A 1626   5.305  -0.088   8.643  0.0454  1.2224  1.0664
   22CHL1  H27B 1627   5.467  -0.161   8.594 -2.7056 -1.8600  0.6569
   22CHL1  H27C 1628   5.446  -0.111   8.753  2.0159  0.6360 -0.0710
   23CHL1    C3 1629   1.888   1.107  10.144  0.8110  0.2826  0.0840
   23CHL1    H3 1630   1.955   1.191  10.116 -0.5514  0.8515 -1.6247
   23CHL1    O3 1631   1.881   1.104  10.286 -0.3867  0.0310  0.5683
   23CHL1   H3' 1632   1.954   1.048  10.314  1.4126  1.4397 -1.2104
   23CHL1    C4 1633   1.745   1.145  10.088 -0.7348 -1.0402 -0.1146
   23CHL1   H4A 1634   1.674   1.066  10.122  1.5109 -4.3204 -2.7748
   23CHL1   H4B 1635   1.709   1.234  10.145  0.1074 -1.9543  1.9124
   23CHL1    C5 1636   1.753   1.148   9.938 -0.1919  0.9039 -0.4049
   23CHL1    C6 1637   1.742   1.270   9.883  0.5272 -0.4352  0.5974
   23CHL1    H6 1638   1.720   1.352   9.953 -1.0211 -1.3308  1.2022
   23CHL1    C7 1639   1.735   1.297   9.738 -0.1065  0.4035  0.9738
   23CHL1   H7A 1640   1.651   1.368   9.720  1.0818  1.3250 -1.0906
   23CHL1   H7B 1641   1.834   1.337   9.710  1.1815 -3.7948 -0.8804
   23CHL1    C8 1642   1.727   1.163   9.661 -0.0910  0.1548  0.1143
   23CHL1    H8 1643   1.624   1.122   9.667  0.1692 -0.2354  2.2631
   23CHL1   C14 1644   1.771   1.182   9.517 -0.5411  0.2334 -0.5909
   23CHL1   H14 1645   1.878   1.206   9.531  0.2046 -2.5587 -1.3290
   23CHL1   C15 1646   1.705   1.293   9.436 -0.7934  0.5618 -0.8344
   23CHL1  H15A 1647   1.594   1.284   9.440 -0.6511 -1.1721 -0.6705
   23CHL1  H15B 1648   1.738   1.394   9.469  0.1861  0.2227 -0.7641
   23CHL1   C16 1649   1.754   1.256   9.292 -0.0173 -0.4938 -1.0509
   23CHL1  H16A 1650   1.659   1.255   9.235 -0.1718  1.0962 -0.8379
   23CHL1  H16B 1651   1.827   1.329   9.252  1.6187 -2.0797 -1.0487
   23CHL1   C17 1652   1.827   1.118   9.300 -0.1349  0.6530 -0.4852
   23CHL1   H17 1653   1.933   1.140   9.322 -0.7081  1.2586  1.8698
   23CHL1   C13 1654   1.772   1.057   9.439  0.5008 -0.3048 -0.7282
   23CHL1   C18 1655   1.631   0.998   9.407 -1.3530 -0.7762  0.7702
   23CHL1  H18A 1656   1.583   1.065   9.332 -1.1395 -1.5871 -0.1020
   23CHL1  H18B 1657   1.646   0.897   9.363 -2.6388 -0.6194 -0.0576
   23CHL1  H18C 1658   1.574   1.002   9.502 -0.6158 -0.0502  1.1877
   23CHL1   C12 1659   1.867   0.957   9.502 -0.5699  0.0177  0.3187
   23CHL1  H12A 1660   1.859   0.870   9.433  1.4153 -0.3080  0.4554
   23CHL1  H12B 1661   1.974   0.987   9.496 -0.8608  0.7047 -1.7124
   23CHL1   C11 1662   1.825   0.915   9.641  0.5483 -1.0482 -0.2600
   23CHL1  H11A 1663   1.721   0.876   9.632  0.4033 -1.3931  2.3137
   23CHL1  H11B 1664   1.899   0.846   9.686  0.9295 -0.5301 -0.0888
   23CHL1    C9 1665   1.826   1.047   9.719 -0.7097  0.3825  0.2817
   23CHL1    H9 1666   1.932   1.080   9.715 -0.1367 -1.2272  1.6594
   23CHL1   C10 1667   1.796   1.022   9.870 -0.1198  0.8436  0.0925
   23CHL1   C19 1668   1.686   0.913   9.874  0.2484  0.3400  0.3921
   23CHL1  H19A 1669   1.621   0.910   9.964  0.6710  1.7846  0.7609
   23CHL1  H19B 1670   1.615   0.915   9.788 -0.7927 -1.6494  1.1789
   23CHL1  H19C 1671   1.738   0.815   9.872  0.2242  0.3155 -4.3528
   23CHL1    C1 1672   1.925   0.975   9.932 -0.0096 -0.6815 -0.3894
   23CHL1   H1A 1673   1.945   0.878   9.883 -0.6097 -1.4145  0.7944
   23CHL1   H1B 1674   2.010   1.042   9.904  1.2772 -1.3088  1.8289
   23CHL1    C2 1675   1.924   0.969  10.086 -0.3131 -0.3966  0.6120
   23CHL1   H2A 1676   2.025   0.945  10.126 -0.6150 -1.4451  0.7540
   23CHL1   H2B 1677   1.851   0.891  10.118 -1.8790  0.7175 -0.1647
   23CHL1   C20 1678   1.806   1.035   9.173 -0.4283  0.0044  0.0520
   23CHL1   H20 1679   1.696   1.023   9.163 -0.8401  1.6406  2.2535
   23CHL1   C21 1680   1.866   0.891   9.170 -0.1984 -0.1245 -0.5934
   23CHL1  H21A 1681   1.866   0.847   9.067 -0.5096  0.0347 -0.6626
   23CHL1  H21B 1682   1.792   0.825   9.221 -1.4927 -0.2721 -2.5619
   23CHL1  H21C 1683   1.967   0.881   9.214 -0.2592  1.0922 -0.1697
   23CHL1   C22 1684   1.844   1.107   9.036 -0.0161  0.1080 -0.4628
   23CHL1  H22A 1685   1.827   1.217   9.034  1.5767  0.3753  0.5455
   23CHL1  H22B 1686   1.953   1.108   9.017 -0.0539 -0.2834 -0.6939
   23CHL1   C23 1687   1.767   1.044   8.914  0.2532 -0.2345 -0.1945
   23CHL1  H23A 1688   1.805   0.943   8.890  0.1160 -0.8781  2.1477
   23CHL1  H23B 1689   1.660   1.035   8.943  0.6438 -1.1064  1.0391
   23CHL1   C24 1690   1.768   1.137   8.788 -0.1187  0.0114 -0.4124
   23CHL1  H24A 1691   1.701   1.104   8.706  0.2953  0.5854 -0.9905
   23CHL1  H24B 1692   1.739   1.241   8.811 -0.9542 -0.2711 -0.1986
   23CHL1   C25 1693   1.917   1.142   8.726 -0.4859  0.5061  0.1698
   23CHL1   H25 1694   1.992   1.193   8.790  0.2814 -0.4294  0.0463
   23CHL1   C26 1695   1.979   1.006   8.690 -0.0487  0.2019  0.4780
   23CHL1  H26A 1696   1.928   0.959   8.603 -0.5737 -1.3226  1.5948
   23CHL1  H26B 1697   2.083   1.015   8.654  0.1211  2.4200  1.4256
   23CHL1  H26C 1698   1.990   0.931   8.770 -1.1939  0.8332  1.2435
   23CHL1   C27 1699   1.919   1.227   8.593 -0.3313  0.2961 -0.3607
   23CHL1  H27A 1700   1.876   1.326   8.615 -1.6587 -0.2316 -0.5323
   23CHL1  H27B 1701   2.025   1.238   8.560  0.0800 -2.4117 -0.0757
   23CHL1  H27C 1702   1.853   1.175   8.519  3.0452 -1.8791 -1.9906
   24CHL1    C3 1703   3.565   2.070  10.196 -0.5991  1.0099 -0.8855
   24CHL1    H3 1704   3.464   2.066  10.149 -1.5629  0.6955  1.1418
   24CHL1    O3 1705   3.555   2.052  10.335 -0.2241 -0.0416  0.3440
   24CHL1   H3' 1706   3.565   2.142  10.368  1.8291 -1.1431  2.9570
   24CHL1    C4 1707   3.637   1.949  10.133 -0.0279 -0.1721 -0.4729
   24CHL1   H4A 1708   3.735   1.929  10.182 -0.3884  2.3792  1.4561
   24CHL1   H4B 1709   3.567   1.863  10.144 -1.3673  1.1894  2.4001
   24CHL1    C5 1710   3.654   1.980   9.980 -0.4440 -0.5468  0.0522
   24CHL1    C6 1711   3.611   1.889   9.892 -0.2816 -0.7066  0.3761
   24CHL1    H6 1712   3.550   1.807   9.933 -0.1892 -1.1047 -0.2799
   24CHL1    C7 1713   3.623   1.904   9.748 -0.3178 -0.6880  0.4713
   24CHL1   H7A 1714   3.641   1.804   9.704 -0.2881 -0.3648 -0.2603
   24CHL1   H7B 1715   3.520   1.926   9.714  0.4490  1.3334 -0.6326
   24CHL1    C8 1716   3.724   2.008   9.696  0.3396 -0.0331  1.0344
   24CHL1    H8 1717   3.827   1.970   9.714 -0.2460 -1.2925  1.7504
   24CHL1   C14 1718   3.704   2.043   9.552  0.8171 -0.7350 -0.4082
   24CHL1   H14 1719   3.598   2.071   9.538  0.7706 -0.9303 -0.4482
   24CHL1   C15 1720   3.718   1.932   9.447  0.3565  0.2870  0.7672
   24CHL1  H15A 1721   3.799   1.862   9.475  0.2328  0.3822  1.3803
   24CHL1  H15B 1722   3.632   1.864   9.434  1.4452 -0.4426 -3.1001
   24CHL1   C16 1723   3.748   2.001   9.315 -0.1212  0.3105  0.4198
   24CHL1  H16A 1724   3.832   1.942   9.274 -0.6416 -0.0037 -0.2126
   24CHL1  H16B 1725   3.668   1.985   9.239 -0.7195  1.0118  0.9000
   24CHL1   C17 1726   3.744   2.152   9.349  0.1549  0.1341  0.4971
   24CHL1   H17 1727   3.639   2.189   9.342 -0.7700 -2.2273  1.1843
   24CHL1   C13 1728   3.777   2.162   9.497 -0.4281  0.1122  0.8227
   24CHL1   C18 1729   3.935   2.117   9.514 -0.0836 -0.1598 -0.4968
   24CHL1  H18A 1730   3.952   2.015   9.473 -4.0622 -1.3614  0.6121
   24CHL1  H18B 1731   4.000   2.187   9.457 -1.9802 -0.5989 -3.3340
   24CHL1  H18C 1732   3.967   2.118   9.620  1.0771  1.9670 -0.8428
   24CHL1   C12 1733   3.744   2.287   9.577  0.3363  0.5748 -0.4688
   24CHL1  H12A 1734   3.789   2.387   9.558  2.3370  0.1129  1.6275
   24CHL1  H12B 1735   3.635   2.298   9.556  0.4069  0.0285 -1.1165
   24CHL1   C11 1736   3.767   2.261   9.727  0.9842  0.4917 -0.3246
   24CHL1  H11A 1737   3.876   2.258   9.747  0.5637  1.0639  2.2030
   24CHL1  H11B 1738   3.728   2.346   9.786  0.6466  1.7453 -2.3345
   24CHL1    C9 1739   3.698   2.134   9.785 -0.0296  0.0512  0.3337
   24CHL1    H9 1740   3.589   2.157   9.786 -0.2127 -0.6162 -1.7494
   24CHL1   C10 1741   3.715   2.117   9.938  0.1004 -0.3442  0.9514
   24CHL1   C19 1742   3.860   2.102   9.972 -0.5318  0.4155 -0.2346
   24CHL1  H19A 1743   3.911   2.199   9.955  1.0531 -0.1074  1.4138
   24CHL1  H19B 1744   3.874   2.066  10.076  1.3381  2.2141  0.1672
   24CHL1  H19C 1745   3.915   2.029   9.909  0.6066  0.9283  0.1637
   24CHL1    C1 1746   3.650   2.231  10.023 -0.3876  0.2703 -0.2935
   24CHL1   H1A 1747   3.691   2.329   9.992  3.4901 -0.6517  1.7143
   24CHL1   H1B 1748   3.546   2.242   9.984 -1.0742  1.3805  1.7286
   24CHL1    C2 1749   3.644   2.196  10.176  0.5123  0.8049  0.1421
   24CHL1   H2A 1750   3.593   2.286  10.215 -1.3546 -0.1149 -0.1096
   24CHL1   H2B 1751   3.746   2.182  10.219  0.1965 -1.7633  0.1385
   24CHL1   C20 1752   3.832   2.236   9.249  0.0693  0.0812  0.0669
   24CHL1   H20 1753   3.933   2.193   9.263  0.6727  1.0871 -1.1076
   24CHL1   C21 1754   3.854   2.388   9.283  0.1657  0.2376 -0.5278
   24CHL1  H21A 1755   3.938   2.429   9.223 -0.6838  1.5474 -0.8600
   24CHL1  H21B 1756   3.884   2.394   9.389 -1.0770 -0.0413 -0.1561
   24CHL1  H21C 1757   3.761   2.448   9.278 -0.6640 -1.0079 -0.2952
   24CHL1   C22 1758   3.784   2.229   9.099  0.1931 -0.2531  0.3743
   24CHL1  H22A 1759   3.771   2.120   9.081  2.3855 -0.2756 -1.2163
   24CHL1  H22B 1760   3.688   2.279   9.075 -1.8395 -4.5374 -0.8688
   24CHL1   C23 1761   3.888   2.263   8.990  0.5619 -0.0128  0.0375
   24CHL1  H23A 1762   3.931   2.363   9.013 -1.7299  0.7929  1.0282
   24CHL1  H23B 1763   3.964   2.183   8.986  0.5735  0.0235 -0.4373
   24CHL1   C24 1764   3.816   2.262   8.843 -0.5938 -0.1459 -0.0863
   24CHL1  H24A 1765   3.749   2.174   8.829 -0.1272 -0.5184 -0.0191
   24CHL1  H24B 1766   3.751   2.351   8.836 -1.1592 -0.5893 -0.4597
   24CHL1   C25 1767   3.924   2.258   8.733  0.7498 -0.2902 -0.4592
   24CHL1   H25 1768   3.970   2.157   8.744 -1.0349 -1.1311 -0.5760
   24CHL1   C26 1769   3.847   2.265   8.600  0.6156  0.3474  0.6696
   24CHL1  H26A 1770   3.919   2.249   8.517  0.7357 -1.8715  1.1782
   24CHL1  H26B 1771   3.771   2.186   8.587  1.4182 -0.2010 -0.7975
   24CHL1  H26C 1772   3.793   2.362   8.589 -0.8778 -0.1533  3.2437
   24CHL1   C27 1773   4.036   2.365   8.748 -0.4422  0.3800  0.2691
   24CHL1  H27A 1774   4.080   2.361   8.850  1.1696  1.9905 -0.3444
   24CHL1  H27B 1775   4.111   2.348   8.668  1.1210  2.2738  1.3001
   24CHL1  H27C 1776   4.003   2.471   8.741 -0.2239  0.3633 -1.1918
   25CHL1    C3 1777   4.715   3.891  10.516  0.2233 -0.6188 -0.0672
   25CHL1    H3 1778   4.607   3.889  10.488  0.3653 -0.5224 -0.6329
   25CHL1    O3 1779   4.732   3.887  10.664  0.3957  0.2032 -0.6411
   25CHL1   H3' 1780   4.826   3.897  10.681  0.3189  0.1980 -0.1980
   25CHL1    C4 1781   4.778   3.768  10.457 -0.0365  0.1517 -0.0347
   25CHL1   H4A 1782   4.884   3.758  10.490  0.0334 -0.3112 -0.3898
   25CHL1   H4B 1783   4.730   3.678  10.500  0.9953 -0.1643  0.4691
   25CHL1    C5 1784   4.781   3.779  10.303  0.0455  0.2840 -0.0358
   25CHL1    C6 1785   4.728   3.679  10.229 -0.2182 -0.3274 -0.2169
   25CHL1    H6 1786   4.673   3.591  10.266 -1.0032  0.0229 -0.5575
   25CHL1    C7 1787   4.741   3.689  10.079 -0.1361  0.1064  0.1488
   25CHL1   H7A 1788   4.766   3.589  10.037 -4.1212 -0.6610 -0.6303
   25CHL1   H7B 1789   4.648   3.736  10.039  0.5739  1.5248  0.1591
   25CHL1    C8 1790   4.856   3.770  10.026 -0.0607 -0.3373  0.5626
   25CHL1    H8 1791   4.944   3.713  10.062 -0.0921 -0.6559  0.1351
   25CHL1   C14 1792   4.857   3.781   9.868  0.7568  0.1701 -0.2841
   25CHL1   H14 1793   4.766   3.836   9.835 -1.6814 -2.5638  1.6937
   25CHL1   C15 1794   4.849   3.650   9.797  0.5327  0.1312  0.0078
   25CHL1  H15A 1795   4.912   3.570   9.841  2.2944  1.2467 -0.4457
   25CHL1  H15B 1796   4.745   3.610   9.800  0.3621  0.5439 -0.3595
   25CHL1   C16 1797   4.895   3.691   9.659  0.4045  0.0863 -0.1307
   25CHL1  H16A 1798   4.985   3.633   9.631 -0.1882 -0.9080 -0.0055
   25CHL1  H16B 1799   4.816   3.691   9.581 -2.1195  0.5693  2.3304
   25CHL1   C17 1800   4.940   3.847   9.659 -0.3946  0.0889 -0.5682
   25CHL1   H17 1801   4.848   3.901   9.629 -0.9814 -1.4229 -1.5716
   25CHL1   C13 1802   4.974   3.865   9.809  0.5591 -0.5664  0.7083
   25CHL1   C18 1803   5.109   3.803   9.841  0.1064 -0.3892 -0.0521
   25CHL1  H18A 1804   5.123   3.713   9.777  3.3391 -0.6985  0.9764
   25CHL1  H18B 1805   5.189   3.864   9.794  0.5412  0.0060  1.1950
   25CHL1  H18C 1806   5.135   3.790   9.948  0.7285  0.4420 -0.1042
   25CHL1   C12 1807   4.968   4.010   9.868 -0.0850 -0.3116 -0.1593
   25CHL1  H12A 1808   5.057   4.070   9.836  1.2308 -2.5352 -0.7905
   25CHL1  H12B 1809   4.880   4.063   9.827 -0.2884 -0.5738 -0.0617
   25CHL1   C11 1810   4.961   4.009  10.021  0.1898  0.4712 -0.6585
   25CHL1  H11A 1811   5.060   3.970  10.053  1.6660  3.0584 -1.9391
   25CHL1  H11B 1812   4.957   4.113  10.059 -3.6362  0.0311  0.4044
   25CHL1    C9 1813   4.855   3.911  10.091  0.4994 -0.4290 -1.0344
   25CHL1    H9 1814   4.754   3.951  10.067 -0.3249 -1.3316  0.8760
   25CHL1   C10 1815   4.853   3.905  10.246  0.5429 -0.2118 -0.7576
   25CHL1   C19 1816   4.998   3.894  10.288  0.3872  0.3258  0.0655
   25CHL1  H19A 1817   5.025   3.790  10.257 -1.3990 -0.5978  1.4749
   25CHL1  H19B 1818   5.072   3.959  10.237  2.0913 -1.8529 -0.3106
   25CHL1  H19C 1819   5.022   3.897  10.397 -0.3378  0.4934  0.2230
   25CHL1    C1 1820   4.788   4.031  10.305 -0.0372  0.5280  0.0545
   25CHL1   H1A 1821   4.854   4.116  10.278 -1.3174  1.7875  0.8656
   25CHL1   H1B 1822   4.688   4.044  10.259  1.2257  2.7930 -2.1722
   25CHL1    C2 1823   4.770   4.029  10.459  0.1025 -0.3560 -0.0409
   25CHL1   H2A 1824   4.690   4.100  10.488 -1.1126 -2.2493  1.3342
   25CHL1   H2B 1825   4.874   4.040  10.496  0.8743 -2.8179 -1.3199
   25CHL1   C20 1826   5.048   3.877   9.549  0.6529 -0.8435 -0.2282
   25CHL1   H20 1827   5.148   3.841   9.584  0.3150 -1.2009  0.3758
   25CHL1   C21 1828   5.044   4.031   9.524  0.3076  0.4535  0.0774
   25CHL1  H21A 1829   5.147   4.066   9.500  0.6505  0.2519  1.2234
   25CHL1  H21B 1830   5.012   4.087   9.615  0.9708  1.6297 -0.3949
   25CHL1  H21C 1831   4.974   4.056   9.442 -1.6827  3.0829  2.4628
   25CHL1   C22 1832   5.026   3.799   9.416  0.5092 -0.2938 -0.2832
   25CHL1  H22A 1833   5.025   3.688   9.428 -1.7031 -0.3684 -0.8225
   25CHL1  H22B 1834   4.924   3.821   9.377  1.3271 -1.6478 -3.3388
   25CHL1   C23 1835   5.125   3.836   9.307 -0.4583 -0.0310  0.1229
   25CHL1  H23A 1836   5.097   3.941   9.288 -2.1335 -0.5987 -0.6370
   25CHL1  H23B 1837   5.225   3.830   9.356 -0.5552  1.4331  0.5161
   25CHL1   C24 1838   5.122   3.749   9.186 -0.0445 -0.1004  0.1190
   25CHL1  H24A 1839   5.162   3.651   9.218  2.4299  1.0456  0.6415
   25CHL1  H24B 1840   5.027   3.733   9.129  0.5169 -2.4249 -0.2087
   25CHL1   C25 1841   5.217   3.797   9.069 -0.7567  0.9026  0.8090
   25CHL1   H25 1842   5.316   3.817   9.115 -0.3523  2.4516 -0.6553
   25CHL1   C26 1843   5.235   3.684   8.966 -0.0256  0.4447  0.9411
   25CHL1  H26A 1844   5.256   3.586   9.013  0.0182  1.3146  2.7502
   25CHL1  H26B 1845   5.151   3.666   8.895  1.4036  1.0656 -0.9482
   25CHL1  H26C 1846   5.322   3.703   8.900 -0.9770 -0.4012 -0.6008
   25CHL1   C27 1847   5.164   3.921   9.008 -0.0196 -0.2823  0.4352
   25CHL1  H27A 1848   5.063   3.905   8.966 -0.5726  1.6818  0.9741
   25CHL1  H27B 1849   5.158   3.994   9.091 -1.5258  0.4007 -0.2593
   25CHL1  H27C 1850   5.234   3.959   8.931  1.7049 -2.4221  0.8716
   26CHL1    C3 1851   6.006   6.519  10.280  0.1764  0.5458  0.0499
   26CHL1    H3 1852   5.974   6.623  10.261 -2.7699 -0.5912 -1.5590
   26CHL1    O3 1853   6.009   6.505  10.418  0.0095  0.1053  0.8427
   26CHL1   H3' 1854   6.099   6.479  10.435 -0.1679 -0.6860  0.6256
   26CHL1    C4 1855   5.899   6.416  10.226 -0.2752 -0.0049  0.4391
   26CHL1   H4A 1856   5.936   6.317  10.259  2.0883  0.9479  0.7496
   26CHL1   H4B 1857   5.801   6.438  10.273  0.0927  0.9197  0.7867
   26CHL1    C5 1858   5.885   6.411  10.075  0.7206 -0.2041  0.1796
   26CHL1    C6 1859   5.770   6.443  10.019  0.1689 -0.2079 -0.0519
   26CHL1    H6 1860   5.686   6.474  10.083  0.8609  0.6002  0.4791
   26CHL1    C7 1861   5.748   6.442   9.873  0.6506  0.1622  0.7286
   26CHL1   H7A 1862   5.652   6.397   9.839  0.0013  1.5077  0.7543
   26CHL1   H7B 1863   5.760   6.545   9.835  1.8156 -0.4067 -0.4946
   26CHL1    C8 1864   5.856   6.361   9.796  0.8495  0.2825 -0.8981
   26CHL1    H8 1865   5.839   6.254   9.824 -1.0556  0.6353 -0.6895
   26CHL1   C14 1866   5.845   6.391   9.645  0.1303  0.4078  0.0465
   26CHL1   H14 1867   5.862   6.501   9.644  1.6745  0.1878  1.1634
   26CHL1   C15 1868   5.709   6.374   9.580 -0.5606 -0.1055  0.0786
   26CHL1  H15A 1869   5.679   6.278   9.628 -0.1788  0.6873  1.9812
   26CHL1  H15B 1870   5.633   6.453   9.590  1.1552  1.3929  1.8387
   26CHL1   C16 1871   5.744   6.375   9.433 -0.5633  0.3723  0.7571
   26CHL1  H16A 1872   5.700   6.291   9.375  2.3468  1.4819 -3.2752
   26CHL1  H16B 1873   5.714   6.469   9.381  0.8947  0.1968 -0.4524
   26CHL1   C17 1874   5.898   6.375   9.423 -1.0007  0.0945 -0.3269
   26CHL1   H17 1875   5.927   6.481   9.407 -1.7148  0.3198 -0.1416
   26CHL1   C13 1876   5.950   6.330   9.557  0.0018  0.2269 -0.3729
   26CHL1   C18 1877   5.948   6.172   9.576 -0.0070 -0.0784  0.9713
   26CHL1  H18A 1878   5.948   6.135   9.680 -3.4577 -1.6868  0.4725
   26CHL1  H18B 1879   5.851   6.135   9.537  0.6488 -1.5065  0.6917
   26CHL1  H18C 1880   6.039   6.130   9.528  0.2687 -0.2692  1.6666
   26CHL1   C12 1881   6.088   6.381   9.610  0.0654  0.6810  0.0548
   26CHL1  H12A 1882   6.167   6.321   9.560  0.0851  1.0370 -0.3361
   26CHL1  H12B 1883   6.095   6.490   9.590  0.4722  0.4110 -1.2889
   26CHL1   C11 1884   6.110   6.361   9.763  0.2284 -0.1533  0.8901
   26CHL1  H11A 1885   6.141   6.255   9.771 -1.2764 -0.7466 -0.7061
   26CHL1  H11B 1886   6.200   6.425   9.781 -0.0011  1.2879 -2.7148
   26CHL1    C9 1887   5.992   6.417   9.850 -0.2319  0.1104 -0.1314
   26CHL1    H9 1888   5.993   6.524   9.820 -2.1481  0.1100 -0.2982
   26CHL1   C10 1889   6.009   6.383  10.000  0.4447 -0.2479  0.6741
   26CHL1   C19 1890   6.050   6.233  10.015 -0.6587  0.1359  0.1245
   26CHL1  H19A 1891   5.977   6.163   9.969 -0.4218 -0.0851  0.0831
   26CHL1  H19B 1892   6.152   6.215   9.976 -0.9174 -1.6519  0.1963
   26CHL1  H19C 1893   6.080   6.202  10.118  1.0438 -1.5415 -0.8325
   26CHL1    C1 1894   6.116   6.482  10.059  0.0977  0.3466 -0.0027
   26CHL1   H1A 1895   6.212   6.467  10.006 -0.0557 -0.8808  0.0460
   26CHL1   H1B 1896   6.082   6.586  10.043 -1.0487 -0.0688 -0.3379
   26CHL1    C2 1897   6.140   6.484  10.212 -0.0750  0.6003  0.3941
   26CHL1   H2A 1898   6.227   6.549  10.236 -0.1870  1.9594 -2.6324
   26CHL1   H2B 1899   6.160   6.378  10.240 -2.0397  0.1381  0.0876
   26CHL1   C20 1900   5.958   6.292   9.306 -0.0577  0.1071  0.0363
   26CHL1   H20 1901   5.949   6.183   9.322 -2.9612  0.1466 -0.9563
   26CHL1   C21 1902   6.108   6.319   9.289  0.1525 -0.0898  0.9882
   26CHL1  H21A 1903   6.148   6.275   9.195  2.7745  2.2502  0.9449
   26CHL1  H21B 1904   6.164   6.273   9.373  0.3938 -1.2389  0.2118
   26CHL1  H21C 1905   6.144   6.424   9.291  0.8845 -0.3223 -0.0796
   26CHL1   C22 1906   5.888   6.327   9.176 -0.4242 -0.7666  0.6430
   26CHL1  H22A 1907   5.781   6.355   9.181 -0.3350 -0.2654 -0.2583
   26CHL1  H22B 1908   5.947   6.410   9.132 -2.7994  0.0865 -1.0050
   26CHL1   C23 1909   5.909   6.207   9.074 -0.5969 -0.3987  0.1168
   26CHL1  H23A 1910   6.006   6.220   9.022 -1.8477  1.9675 -1.7590
   26CHL1  H23B 1911   5.904   6.112   9.131 -2.6692  0.2116  1.0266
   26CHL1   C24 1912   5.807   6.203   8.964  0.4221  0.4788  0.4658
   26CHL1  H24A 1913   5.711   6.151   8.983  2.0172 -2.4723  0.6011
   26CHL1  H24B 1914   5.775   6.305   8.932  1.5462  0.9894  0.9390
   26CHL1   C25 1915   5.841   6.137   8.829  0.5987 -0.2354  0.6333
   26CHL1   H25 1916   5.923   6.186   8.772  0.0536  0.0276  0.0602
   26CHL1   C26 1917   5.881   5.992   8.829 -0.1034  0.0057  0.2287
   26CHL1  H26A 1918   5.962   5.977   8.903 -2.0299 -2.0896  2.0090
   26CHL1  H26B 1919   5.799   5.924   8.860  0.0795 -0.5087 -0.3988
   26CHL1  H26C 1920   5.925   5.953   8.735  2.5948  0.4018  1.3058
   26CHL1   C27 1921   5.730   6.157   8.732 -0.0811 -0.5889  0.0481
   26CHL1  H27A 1922   5.634   6.111   8.764  0.0436 -1.8602 -1.3184
   26CHL1  H27B 1923   5.719   6.264   8.704 -1.1400 -0.4755  0.8707
   26CHL1  H27C 1924   5.752   6.102   8.638 -0.4873  0.1054 -0.4653
   27CHL1    C3 1925   5.464   3.718  10.362 -0.3875 -0.1479  0.2450
   27CHL1    H3 1926   5.400   3.631  10.336 -0.1448 -1.0013  2.3450
   27CHL1    O3 1927   5.455   3.752  10.500  0.3715 -0.3116  0.5910
   27CHL1   H3' 1928   5.517   3.824  10.514 -1.6683  2.2200 -2.5710
   27CHL1    C4 1929   5.604   3.681  10.335 -1.0846 -0.4569  0.1243
   27CHL1   H4A 1930   5.666   3.767  10.370 -2.8729  1.7498 -1.8804
   27CHL1   H4B 1931   5.627   3.590  10.394 -0.1238 -0.7764 -0.7290
   27CHL1    C5 1932   5.631   3.655  10.187 -0.0040 -0.4906 -0.0662
   27CHL1    C6 1933   5.676   3.533  10.146  0.9011 -0.5654 -0.8324
   27CHL1    H6 1934   5.699   3.449  10.213  1.3513 -0.1213 -0.4335
   27CHL1    C7 1935   5.677   3.490  10.005  0.4791  0.6865  0.1155
   27CHL1   H7A 1936   5.772   3.434   9.997  0.5042  0.3519  2.3069
   27CHL1   H7B 1937   5.600   3.412   9.986  1.3103 -0.0349 -0.3297
   27CHL1    C8 1938   5.678   3.610   9.910  0.7284 -0.6874 -0.5405
   27CHL1    H8 1939   5.771   3.669   9.920  0.1931 -0.1836  1.8830
   27CHL1   C14 1940   5.657   3.564   9.770 -0.2845 -0.2515  0.3220
   27CHL1   H14 1941   5.554   3.523   9.763 -1.5652  2.8920 -0.2176
   27CHL1   C15 1942   5.748   3.448   9.704  0.4990 -0.3364 -0.6221
   27CHL1  H15A 1943   5.850   3.481   9.734  0.4138 -2.1627  1.8995
   27CHL1  H15B 1944   5.720   3.350   9.749  1.5793 -0.7312 -0.7982
   27CHL1   C16 1945   5.727   3.450   9.558  0.1507 -0.3715 -0.5119
   27CHL1  H16A 1946   5.828   3.459   9.511 -0.8099  1.6553 -2.2686
   27CHL1  H16B 1947   5.676   3.355   9.532  0.7070 -0.9866  0.6111
   27CHL1   C17 1948   5.640   3.576   9.535  0.0089 -0.0512 -0.0379
   27CHL1   H17 1949   5.533   3.546   9.540 -0.1483  0.5468  0.2757
   27CHL1   C13 1950   5.652   3.674   9.660  0.1849  0.3144  0.0730
   27CHL1   C18 1951   5.796   3.743   9.655 -0.2142  0.0289 -0.7064
   27CHL1  H18A 1952   5.869   3.665   9.624 -2.2632 -1.8880 -0.8402
   27CHL1  H18B 1953   5.800   3.822   9.576  1.7253  0.2255 -0.4398
   27CHL1  H18C 1954   5.833   3.784   9.751 -1.1172 -1.4093  0.2693
   27CHL1   C12 1955   5.537   3.771   9.697  0.0636  0.6436  0.1719
   27CHL1  H12A 1956   5.543   3.861   9.631 -1.0553  0.0131 -0.8265
   27CHL1  H12B 1957   5.437   3.726   9.684  0.8113 -1.1131  0.3990
   27CHL1   C11 1958   5.550   3.819   9.842 -0.8735 -0.7189  0.1282
   27CHL1  H11A 1959   5.639   3.886   9.844 -0.1622 -1.6630  0.8309
   27CHL1  H11B 1960   5.461   3.883   9.860 -2.3948 -3.3724  2.4295
   27CHL1    C9 1961   5.568   3.709   9.947 -0.0719  0.2119 -0.8233
   27CHL1    H9 1962   5.473   3.652   9.937 -0.2375 -0.0655  1.9570
   27CHL1   C10 1963   5.573   3.759  10.091 -0.6919  0.0482  0.4916
   27CHL1   C19 1964   5.682   3.873  10.103  0.1017 -0.5599 -1.1033
   27CHL1  H19A 1965   5.657   3.960  10.037 -1.7041 -0.2870 -0.1062
   27CHL1  H19B 1966   5.665   3.916  10.204 -1.3960 -3.4017 -0.0793
   27CHL1  H19C 1967   5.784   3.834  10.088  0.8379 -0.0750  2.2514
   27CHL1    C1 1968   5.439   3.815  10.134  0.1072  0.1935 -0.5554
   27CHL1   H1A 1969   5.431   3.906  10.070 -2.3588  0.6054  0.2902
   27CHL1   H1B 1970   5.354   3.745  10.118 -1.1753  1.5951  0.0303
   27CHL1    C2 1971   5.417   3.840  10.288  0.6242 -0.1086 -0.2460
   27CHL1   H2A 1972   5.309   3.860  10.304  0.4772 -0.6756 -0.5209
   27CHL1   H2B 1973   5.475   3.931  10.315  2.2117 -1.4220  0.8992
   27CHL1   C20 1974   5.662   3.627   9.393  0.2871  0.0294  0.6049
   27CHL1   H20 1975   5.769   3.654   9.381 -0.3506  3.2327  1.4831
   27CHL1   C21 1976   5.574   3.754   9.365 -0.2745  0.0885 -0.4051
   27CHL1  H21A 1977   5.614   3.792   9.269  1.6938  0.3094  0.4840
   27CHL1  H21B 1978   5.576   3.838   9.438 -0.6317  0.4398 -0.7970
   27CHL1  H21C 1979   5.467   3.727   9.353 -0.3102  0.8095 -1.7722
   27CHL1   C22 1980   5.639   3.528   9.279  0.0811  0.1672  0.3869
   27CHL1  H22A 1981   5.709   3.442   9.287 -1.0263 -0.6632  1.4046
   27CHL1  H22B 1982   5.537   3.486   9.299 -0.2484 -0.5890 -2.6351
   27CHL1   C23 1983   5.651   3.576   9.134 -0.3260  0.1701 -0.9723
   27CHL1  H23A 1984   5.630   3.492   9.064 -0.5512  0.9868 -1.8981
   27CHL1  H23B 1985   5.564   3.644   9.117 -1.6967 -1.7498 -1.8721
   27CHL1   C24 1986   5.787   3.634   9.097  0.0595  0.1017  0.5670
   27CHL1  H24A 1987   5.801   3.734   9.142  2.6286  0.2090 -0.3953
   27CHL1  H24B 1988   5.863   3.575   9.154 -0.8110 -1.3224  0.2910
   27CHL1   C25 1989   5.792   3.646   8.940 -0.4478  0.5094 -0.8757
   27CHL1   H25 1990   5.806   3.550   8.887  1.9522 -0.2943  1.1047
   27CHL1   C26 1991   5.671   3.715   8.874  0.0678 -0.5254 -0.1208
   27CHL1  H26A 1992   5.572   3.671   8.901  0.7043 -1.3476  0.9363
   27CHL1  H26B 1993   5.664   3.821   8.906  0.8420 -0.2470 -0.8673
   27CHL1  H26C 1994   5.676   3.715   8.763 -0.6044 -2.1939 -0.1712
   27CHL1   C27 1995   5.911   3.725   8.894 -0.1670  0.1240 -0.3220
   27CHL1  H27A 1996   5.920   3.740   8.785  1.1847 -0.0535 -0.2535
   27CHL1  H27B 1997   5.915   3.824   8.946 -2.7369  0.7088 -1.1936
   27CHL1  H27C 1998   6.007   3.688   8.938 -0.0976 -0.7216 -1.1859
   28CHL1    C3 1999   5.076   2.277  10.132 -0.3412  0.0796  0.0154
   28CHL1    H3 2000   5.039   2.380  10.112 -0.2136 -0.4166 -3.0648
   28CHL1    O3 2001   5.089   2.262  10.274 -0.4361  0.1268  0.3794
   28CHL1   H3' 2002   5.141   2.182  10.285  0.6872  0.5284 -1.6828
   28CHL1    C4 2003   4.977   2.170  10.077  0.5310 -0.2245 -0.2001
   28CHL1   H4A 2004   5.016   2.072  10.112 -2.0472 -1.2123 -0.0063
   28CHL1   H4B 2005   4.879   2.181  10.128  2.3406 -1.0908  3.7184
   28CHL1    C5 2006   4.951   2.176   9.931 -0.0346  0.3940  0.0673
   28CHL1    C6 2007   4.829   2.179   9.876 -0.4616 -0.6772 -0.4530
   28CHL1    H6 2008   4.740   2.174   9.940 -1.0420  1.4468 -1.0489
   28CHL1    C7 2009   4.802   2.191   9.725  0.4325 -0.2729 -0.5432
   28CHL1   H7A 2010   4.713   2.127   9.707 -0.0415  0.0858  0.4481
   28CHL1   H7B 2011   4.783   2.295   9.691 -2.0848 -1.2041 -2.1116
   28CHL1    C8 2012   4.924   2.160   9.644  0.2497  0.2725  0.1484
   28CHL1    H8 2013   4.931   2.049   9.638 -0.4175  0.2478 -0.2631
   28CHL1   C14 2014   4.911   2.218   9.504  0.4934 -0.8267  0.6001
   28CHL1   H14 2015   4.920   2.328   9.520 -1.3672 -0.4495 -0.7511
   28CHL1   C15 2016   4.772   2.196   9.425 -0.1776 -0.7217 -0.3734
   28CHL1  H15A 2017   4.732   2.095   9.451  0.2331 -0.5582  0.9285
   28CHL1  H15B 2018   4.701   2.272   9.465  1.8866  1.2135 -0.2938
   28CHL1   C16 2019   4.811   2.221   9.283 -0.2200 -0.5457 -0.8119
   28CHL1  H16A 2020   4.786   2.129   9.225 -0.2377 -0.3924 -1.0464
   28CHL1  H16B 2021   4.750   2.296   9.229 -0.4895  0.3286  0.6883
   28CHL1   C17 2022   4.968   2.249   9.282  0.4775 -0.5152  0.6462
   28CHL1   H17 2023   4.979   2.359   9.287  1.5694 -0.6324  0.8506
   28CHL1   C13 2024   5.015   2.184   9.410 -0.2490 -0.6694  1.1593
   28CHL1   C18 2025   5.015   2.028   9.393 -0.9846  0.0149  0.5478
   28CHL1  H18A 2026   5.049   1.966   9.479  1.4069  1.0099  0.3787
   28CHL1  H18B 2027   4.916   1.989   9.364 -0.4985 -1.0688  0.3314
   28CHL1  H18C 2028   5.087   2.007   9.311  2.1191 -0.1143  3.2038
   28CHL1   C12 2029   5.142   2.246   9.462 -0.3514  0.4048 -0.0670
   28CHL1  H12A 2030   5.230   2.213   9.404  1.6406  1.4813  2.2536
   28CHL1  H12B 2031   5.138   2.357   9.460  0.8514  0.4901  1.3730
   28CHL1   C11 2032   5.172   2.195   9.606 -0.2082  0.0128  0.3596
   28CHL1  H11A 2033   5.185   2.085   9.606  1.5727  0.2146  0.0686
   28CHL1  H11B 2034   5.264   2.245   9.642 -0.0331  0.1188 -0.2314
   28CHL1    C9 2035   5.054   2.223   9.703  0.3812 -0.6076  0.2069
   28CHL1    H9 2036   5.038   2.333   9.697  1.0425 -0.3915  2.1248
   28CHL1   C10 2037   5.077   2.179   9.849 -0.2576  0.0032 -0.4363
   28CHL1   C19 2038   5.130   2.031   9.854 -0.2463  0.1892  0.2881
   28CHL1  H19A 2039   5.064   1.975   9.784  0.2272  0.1901 -0.1589
   28CHL1  H19B 2040   5.236   2.032   9.821  0.5506 -4.0929  2.3337
   28CHL1  H19C 2041   5.134   1.990   9.957 -1.7395 -1.4608 -0.2927
   28CHL1    C1 2042   5.181   2.285   9.907  0.1136 -0.0317 -0.0847
   28CHL1   H1A 2043   5.280   2.269   9.861  1.4149  2.5607  1.6722
   28CHL1   H1B 2044   5.152   2.392   9.904  2.4602  0.7511  2.9781
   28CHL1    C2 2045   5.211   2.267  10.060  0.2275  0.5768 -0.2055
   28CHL1   H2A 2046   5.275   2.344  10.108  1.8803 -0.3413 -0.9050
   28CHL1   H2B 2047   5.242   2.164  10.088  0.5667  0.6276 -0.3869
   28CHL1   C20 2048   5.026   2.206   9.144 -0.4936 -0.5728 -0.4753
   28CHL1   H20 2049   5.013   2.096   9.147 -1.7956 -0.3732  2.2313
   28CHL1   C21 2050   5.167   2.258   9.136 -0.3641  0.7651 -0.7665
   28CHL1  H21A 2051   5.171   2.368   9.120 -3.6454  0.6808 -2.4417
   28CHL1  H21B 2052   5.222   2.208   9.053  0.1215 -1.4404  0.8358
   28CHL1  H21C 2053   5.228   2.234   9.226  0.0420  1.8300 -0.7477
   28CHL1   C22 2054   4.935   2.250   9.026 -0.0740 -0.0044 -0.0565
   28CHL1  H22A 2055   4.836   2.199   9.035 -0.5328  1.1572  1.7251
   28CHL1  H22B 2056   4.920   2.359   9.012  0.1114 -0.1973 -1.9152
   28CHL1   C23 2057   4.977   2.199   8.884 -0.1949 -0.3227  0.3731
   28CHL1  H23A 2058   5.071   2.252   8.859 -0.4188 -0.3144 -0.4851
   28CHL1  H23B 2059   4.986   2.089   8.894 -0.1313 -0.0822  3.4009
   28CHL1   C24 2060   4.870   2.237   8.774 -0.4378  0.1140  0.0317
   28CHL1  H24A 2061   4.776   2.202   8.821  0.2457 -1.1515  0.4492
   28CHL1  H24B 2062   4.861   2.347   8.762 -0.0511  0.0714 -0.6706
   28CHL1   C25 2063   4.894   2.166   8.635  0.1476  0.5251 -0.3434
   28CHL1   H25 2064   4.946   2.070   8.657  2.2450  1.6388 -0.3529
   28CHL1   C26 2065   4.758   2.131   8.570 -0.1694 -0.4447  0.1831
   28CHL1  H26A 2066   4.767   2.056   8.490  0.1864  0.0773 -0.2688
   28CHL1  H26B 2067   4.680   2.085   8.634 -0.4093 -0.6205 -0.2387
   28CHL1  H26C 2068   4.725   2.229   8.530 -0.4228 -1.2500 -1.6240
   28CHL1   C27 2069   4.978   2.236   8.531  0.5001  0.3222  0.1140
   28CHL1  H27A 2070   5.085   2.245   8.562  0.8766 -1.7108 -0.4907
   28CHL1  H27B 2071   4.977   2.171   8.440 -1.1256 -0.0994  0.4227
   28CHL1  H27C 2072   4.934   2.336   8.513 -0.2038  0.0004  0.0662
   29CHL1    C3 2073   5.997   0.578   6.533  0.2113 -0.3210  0.4622
   29CHL1    H3 2074   6.082   0.650   6.529 -1.3921  1.6527  1.1858
   29CHL1    O3 2075   5.935   0.526   6.421 -0.5966 -0.0519 -0.1363
   29CHL1   H3' 2076   5.879   0.455   6.455 -1.4580  0.4779 -0.4348
   29CHL1    C4 2077   6.049   0.450   6.604 -0.2124 -0.1061  0.6047
   29CHL1   H4A 2078   5.972   0.369   6.598 -0.4524  0.1816 -0.2553
   29CHL1   H4B 2079   6.138   0.412   6.550  0.7985  1.3027  1.2613
   29CHL1    C5 2080   6.082   0.472   6.748 -0.1107 -0.1037  0.1918
   29CHL1    C6 2081   6.205   0.427   6.785 -0.2472  0.0328  0.0837
   29CHL1    H6 2082   6.282   0.382   6.720 -0.5030  3.5625 -2.8375
   29CHL1    C7 2083   6.250   0.446   6.923 -0.2986  0.2698 -0.6223
   29CHL1   H7A 2084   6.304   0.360   6.968 -1.4617 -0.1641 -0.0511
   29CHL1   H7B 2085   6.325   0.528   6.931 -0.6356  0.6530 -1.2883
   29CHL1    C8 2086   6.139   0.486   7.028 -0.8814  0.1667 -1.5578
   29CHL1    H8 2087   6.069   0.402   7.049  0.6950 -0.3964  1.8141
   29CHL1   C14 2088   6.198   0.541   7.160  0.6644 -0.2432  0.3311
   29CHL1   H14 2089   6.245   0.639   7.137  0.2905  0.2765  1.7221
   29CHL1   C15 2090   6.305   0.462   7.230 -0.4477 -0.3588 -0.2791
   29CHL1  H15A 2091   6.289   0.353   7.216 -2.0297 -0.1337 -0.2816
   29CHL1  H15B 2092   6.399   0.487   7.176  0.8363 -1.0270  1.6030
   29CHL1   C16 2093   6.299   0.506   7.373  0.0947 -0.6955 -0.5425
   29CHL1  H16A 2094   6.275   0.423   7.442  0.7324  0.0177  0.5524
   29CHL1  H16B 2095   6.395   0.549   7.408  0.6416 -2.2287 -0.1306
   29CHL1   C17 2096   6.194   0.620   7.385 -0.8826 -0.4779 -0.7111
   29CHL1   H17 2097   6.247   0.714   7.360 -2.0103  0.8684  1.7870
   29CHL1   C13 2098   6.092   0.577   7.265  0.3653 -0.3889  0.5085
   29CHL1   C18 2099   5.998   0.461   7.313  0.4891 -0.4665  0.1311
   29CHL1  H18A 2100   5.914   0.493   7.378  2.3990  2.0264  1.4874
   29CHL1  H18B 2101   5.959   0.407   7.225 -0.6752  0.4263  0.0884
   29CHL1  H18C 2102   6.050   0.380   7.370  3.9072  1.7940  0.3809
   29CHL1   C12 2103   6.007   0.691   7.201 -0.0153  0.6561  0.2810
   29CHL1  H12A 2104   5.920   0.728   7.259 -1.0732  0.8823 -1.4177
   29CHL1  H12B 2105   6.063   0.780   7.166 -1.2082  1.9238  1.5066
   29CHL1   C11 2106   5.935   0.634   7.076  0.2174 -0.0476 -0.0394
   29CHL1  H11A 2107   5.869   0.548   7.096 -0.4228 -0.1086 -2.1948
   29CHL1  H11B 2108   5.876   0.713   7.025  1.1911  1.5937  1.3122
   29CHL1    C9 2109   6.045   0.597   6.967  0.0725 -0.6763 -0.3510
   29CHL1    H9 2110   6.098   0.692   6.948 -0.1874 -0.6669 -1.0516
   29CHL1   C10 2111   5.980   0.551   6.834 -0.3196 -0.0834  0.3354
   29CHL1   C19 2112   5.853   0.453   6.852  0.0411  0.6756 -0.1500
   29CHL1  H19A 2113   5.886   0.375   6.924  1.7245  0.3359 -1.2716
   29CHL1  H19B 2114   5.768   0.513   6.892 -0.4080 -0.9123  1.3326
   29CHL1  H19C 2115   5.808   0.412   6.759  0.8577 -0.2138 -0.1535
   29CHL1    C1 2116   5.937   0.673   6.756 -0.0994 -0.1139  0.2577
   29CHL1   H1A 2117   5.868   0.735   6.816 -0.6314 -0.1231 -0.3506
   29CHL1   H1B 2118   6.018   0.742   6.724 -1.1786  0.7935 -0.5210
   29CHL1    C2 2119   5.880   0.638   6.612  0.3719 -0.5434  0.2549
   29CHL1   H2A 2120   5.841   0.727   6.558  1.6431  0.1083  0.4045
   29CHL1   H2B 2121   5.800   0.561   6.618 -0.2531  0.1359  0.7743
   29CHL1   C20 2122   6.142   0.630   7.528  0.1726  0.1427 -0.3073
   29CHL1   H20 2123   6.070   0.552   7.559  0.2671  0.6069  1.1028
   29CHL1   C21 2124   6.052   0.756   7.549  0.1144  0.1971  0.0331
   29CHL1  H21A 2125   6.004   0.789   7.454  0.0524 -1.4469 -0.5223
   29CHL1  H21B 2126   6.108   0.839   7.597 -0.3437 -0.9810  2.6795
   29CHL1  H21C 2127   5.978   0.720   7.623  1.4227 -1.8900  0.3735
   29CHL1   C22 2128   6.254   0.645   7.627 -0.1095  0.2437  0.0794
   29CHL1  H22A 2129   6.341   0.699   7.585 -0.8422  0.2919 -1.4041
   29CHL1  H22B 2130   6.217   0.709   7.710 -0.4433 -1.0658  0.9692
   29CHL1   C23 2131   6.289   0.512   7.697  0.8691  0.4303 -0.0936
   29CHL1  H23A 2132   6.208   0.440   7.672  1.5344  0.3682 -2.1192
   29CHL1  H23B 2133   6.384   0.477   7.652  0.2781 -1.0944 -0.1832
   29CHL1   C24 2134   6.307   0.536   7.850  0.3001  0.9433 -0.2284
   29CHL1  H24A 2135   6.380   0.619   7.861  1.9000 -0.4937  0.2480
   29CHL1  H24B 2136   6.212   0.564   7.900 -1.0255 -1.1870 -1.5015
   29CHL1   C25 2137   6.379   0.415   7.924 -0.1910 -0.0993 -0.3181
   29CHL1   H25 2138   6.478   0.419   7.875 -0.6023  0.4343 -1.1087
   29CHL1   C26 2139   6.395   0.433   8.075  0.2602  0.3909 -0.3523
   29CHL1  H26A 2140   6.458   0.521   8.098 -0.5443  0.5125  1.4775
   29CHL1  H26B 2141   6.293   0.457   8.114 -0.2912 -2.5365  0.1651
   29CHL1  H26C 2142   6.430   0.347   8.136  0.9112  1.3101  0.5744
   29CHL1   C27 2143   6.313   0.287   7.891 -0.0969  0.3389  0.1804
   29CHL1  H27A 2144   6.361   0.208   7.952  0.6893  0.3795 -0.3718
   29CHL1  H27B 2145   6.205   0.289   7.918 -0.4008 -1.0942 -0.8833
   29CHL1  H27C 2146   6.321   0.269   7.782 -1.1669 -0.0028  0.1513
   30CHL1    C3 2147   3.737   5.953   7.249  0.1971 -0.3958 -0.5486
   30CHL1    H3 2148   3.661   6.022   7.293 -0.3481 -2.0392  1.1568
   30CHL1    O3 2149   3.775   5.985   7.112 -0.1276  0.3473  0.2439
   30CHL1   H3' 2150   3.842   5.922   7.083  0.6049  1.6398 -0.9152
   30CHL1    C4 2151   3.868   5.963   7.333 -0.1177  0.8945  0.6582
   30CHL1   H4A 2152   3.943   5.897   7.285 -1.4943  1.0303 -1.7451
   30CHL1   H4B 2153   3.903   6.064   7.304  2.8507 -0.4103 -0.5758
   30CHL1    C5 2154   3.839   5.939   7.479  0.0945 -0.0594  0.6774
   30CHL1    C6 2155   3.861   6.039   7.563  0.0338  0.2715 -0.3046
   30CHL1    H6 2156   3.889   6.140   7.528  1.3423  0.7970  2.1735
   30CHL1    C7 2157   3.839   6.025   7.707  0.6030 -0.0099  0.7571
   30CHL1   H7A 2158   3.915   6.079   7.767 -0.0723 -0.6781  2.2417
   30CHL1   H7B 2159   3.743   6.078   7.727  0.4496  0.0247 -0.0438
   30CHL1    C8 2160   3.815   5.876   7.751 -0.0562 -0.6943 -0.0256
   30CHL1    H8 2161   3.921   5.842   7.745 -0.2194 -1.0145 -1.1348
   30CHL1   C14 2162   3.765   5.874   7.892  0.1242 -0.2674 -0.3650
   30CHL1   H14 2163   3.661   5.912   7.879  0.4384  0.4765 -0.7376
   30CHL1   C15 2164   3.839   5.956   7.998 -0.2493 -0.5018 -0.1246
   30CHL1  H15A 2165   3.947   5.958   7.972 -0.0658 -3.5307  0.1728
   30CHL1  H15B 2166   3.791   6.056   8.003  2.2073  0.8579 -2.4867
   30CHL1   C16 2167   3.809   5.881   8.133  0.4409 -0.3078 -0.1375
   30CHL1  H16A 2168   3.905   5.842   8.174  0.3202  0.5420  0.9747
   30CHL1  H16B 2169   3.765   5.950   8.208 -0.1865 -1.0710  0.1987
   30CHL1   C17 2170   3.716   5.767   8.094  0.5187  0.1916 -0.1338
   30CHL1   H17 2171   3.616   5.815   8.088 -0.1086 -0.6854  2.4908
   30CHL1   C13 2172   3.749   5.730   7.946 -0.1927 -1.1292  0.5192
   30CHL1   C18 2173   3.882   5.651   7.946 -0.4416 -0.5450  0.0819
   30CHL1  H18A 2174   3.929   5.650   7.846  1.3138 -0.6546  0.8930
   30CHL1  H18B 2175   3.965   5.683   8.013  1.1534 -2.1426 -1.0918
   30CHL1  H18C 2176   3.862   5.546   7.976  0.6560 -0.7574  0.0833
   30CHL1   C12 2177   3.642   5.664   7.854  0.0627 -0.2947  0.7646
   30CHL1  H12A 2178   3.641   5.559   7.890  1.1337 -0.1484  1.2605
   30CHL1  H12B 2179   3.541   5.708   7.864 -0.5250 -1.6081  0.6221
   30CHL1   C11 2180   3.688   5.656   7.706  0.2280 -0.4387  1.1749
   30CHL1  H11A 2181   3.777   5.588   7.706  0.8370  0.2670 -1.9104
   30CHL1  H11B 2182   3.610   5.607   7.643  0.7877 -0.0374  0.1571
   30CHL1    C9 2183   3.721   5.798   7.653 -0.6172  0.4426 -1.1011
   30CHL1    H9 2184   3.624   5.852   7.648 -0.4405  0.7468 -1.3061
   30CHL1   C10 2185   3.769   5.802   7.510  0.2175  1.1157 -1.0192
   30CHL1   C19 2186   3.869   5.686   7.494  0.6693 -0.1903 -0.1321
   30CHL1  H19A 2187   3.921   5.697   7.396 -0.4135  2.0552 -0.4893
   30CHL1  H19B 2188   3.942   5.689   7.578  1.6553 -0.5028 -0.9654
   30CHL1  H19C 2189   3.819   5.587   7.496 -1.3422  0.7816 -0.8250
   30CHL1    C1 2190   3.649   5.789   7.413  0.0932 -0.3424 -0.1407
   30CHL1   H1A 2191   3.618   5.683   7.412  0.6314 -0.4968 -0.8524
   30CHL1   H1B 2192   3.556   5.846   7.437  0.6034  0.0679  0.8866
   30CHL1    C2 2193   3.670   5.816   7.268 -0.0914 -0.3764  0.3077
   30CHL1   H2A 2194   3.569   5.815   7.223  0.3966 -0.3011 -0.7984
   30CHL1   H2B 2195   3.741   5.745   7.220  1.4148  0.9473  0.5300
   30CHL1   C20 2196   3.691   5.646   8.185 -0.8748  1.2865 -0.0043
   30CHL1   H20 2197   3.679   5.557   8.119  1.8722  0.0414  1.1106
   30CHL1   C21 2198   3.558   5.669   8.265 -0.5096 -0.0780 -0.4106
   30CHL1  H21A 2199   3.537   5.590   8.341 -0.1017 -1.6847 -1.9411
   30CHL1  H21B 2200   3.481   5.672   8.185  0.4296  0.3243 -1.3077
   30CHL1  H21C 2201   3.563   5.766   8.320 -2.4199 -0.5320  0.6132
   30CHL1   C22 2202   3.805   5.609   8.285  0.3487  0.5295  0.3752
   30CHL1  H22A 2203   3.904   5.594   8.238 -0.0344  0.9554 -0.5777
   30CHL1  H22B 2204   3.819   5.691   8.358  1.0439 -1.0810  2.1116
   30CHL1   C23 2205   3.776   5.476   8.361 -0.1287  0.0244 -1.0306
   30CHL1  H23A 2206   3.694   5.503   8.430  0.5036  1.3316 -0.7856
   30CHL1  H23B 2207   3.747   5.393   8.293 -0.2753  0.0173 -0.9589
   30CHL1   C24 2208   3.893   5.410   8.434  0.3987  0.2110  0.4483
   30CHL1  H24A 2209   3.972   5.400   8.357 -0.1452 -0.8926  0.0307
   30CHL1  H24B 2210   3.931   5.483   8.509 -0.1360  1.5599 -0.5809
   30CHL1   C25 2211   3.867   5.283   8.510  0.6072 -0.0388  0.2368
   30CHL1   H25 2212   3.792   5.300   8.590  2.7278 -0.2210  2.3466
   30CHL1   C26 2213   3.842   5.159   8.422  0.1952  0.5646 -0.2373
   30CHL1  H26A 2214   3.755   5.171   8.354  1.3598 -0.7074 -2.0251
   30CHL1  H26B 2215   3.919   5.132   8.346  0.7551 -1.0392  0.8739
   30CHL1  H26C 2216   3.817   5.075   8.490 -0.1749  0.6221 -0.3056
   30CHL1   C27 2217   3.994   5.257   8.594 -0.2704  0.3693 -0.0376
   30CHL1  H27A 2218   3.981   5.163   8.652  0.8831 -0.7081 -1.4785
   30CHL1  H27B 2219   4.088   5.240   8.538 -0.1235  1.9395 -0.3016
   30CHL1  H27C 2220   4.016   5.341   8.664 -1.6085  0.4257  0.3339
   31CHL1    C3 2221   2.867   1.128   6.654 -0.5391 -0.8533  0.1400
   31CHL1    H3 2222   2.897   1.228   6.692  2.6452 -0.0997 -3.9706
   31CHL1    O3 2223   2.763   1.138   6.557 -0.1894  0.0980  1.1329
   31CHL1   H3' 2224   2.740   1.048   6.531 -1.5834  1.3359 -2.1101
   31CHL1    C4 2225   2.983   1.046   6.618 -0.0345  0.5585 -0.1073
   31CHL1   H4A 2226   2.955   0.939   6.605  0.7573 -0.0270  2.7046
   31CHL1   H4B 2227   3.039   1.081   6.528  0.2299  0.5324  0.0446
   31CHL1    C5 2228   3.088   1.051   6.731 -1.0412 -0.6259  0.4405
   31CHL1    C6 2229   3.199   1.118   6.716 -0.3179 -0.8675 -0.1946
   31CHL1    H6 2230   3.225   1.151   6.614  1.5875  0.1516  0.6157
   31CHL1    C7 2231   3.304   1.119   6.829 -0.0936 -0.3014 -0.4873
   31CHL1   H7A 2232   3.402   1.097   6.782  0.5166  1.0112  0.1353
   31CHL1   H7B 2233   3.311   1.220   6.875  0.5450 -1.1827  1.4151
   31CHL1    C8 2234   3.274   1.012   6.942 -0.1309  0.4106 -0.0088
   31CHL1    H8 2235   3.312   0.914   6.904  0.6682  0.4580  0.6456
   31CHL1   C14 2236   3.363   1.037   7.062 -0.4273 -0.0378  0.3849
   31CHL1   H14 2237   3.329   1.139   7.090 -4.1100 -1.2689  0.6643
   31CHL1   C15 2238   3.512   1.056   7.040  0.0339  0.3398 -0.0515
   31CHL1  H15A 2239   3.543   0.969   6.978  0.4364  0.0460  0.5561
   31CHL1  H15B 2240   3.532   1.154   6.992  0.6051  0.5065  0.5207
   31CHL1   C16 2241   3.584   1.038   7.174 -0.3207 -0.2836  1.0182
   31CHL1  H16A 2242   3.644   0.945   7.161  0.5305  0.4218 -0.2562
   31CHL1  H16B 2243   3.660   1.118   7.186 -2.1538  1.5488  0.6143
   31CHL1   C17 2244   3.465   1.019   7.272 -0.4102 -0.2979 -0.2096
   31CHL1   H17 2245   3.417   1.113   7.305  1.5303  0.6805 -0.1039
   31CHL1   C13 2246   3.348   0.951   7.183 -0.2150  0.2090  0.2390
   31CHL1   C18 2247   3.390   0.812   7.141 -0.2447 -0.0499 -0.4545
   31CHL1  H18A 2248   3.342   0.739   7.209 -1.6425  0.2674 -1.0868
   31CHL1  H18B 2249   3.346   0.784   7.043 -0.0976 -3.6609  0.4218
   31CHL1  H18C 2250   3.501   0.801   7.135  0.1368  2.1140  1.9580
   31CHL1   C12 2251   3.199   0.969   7.230 -0.9540  0.8184  0.0191
   31CHL1  H12A 2252   3.180   0.901   7.316  2.0087  0.6986  0.6320
   31CHL1  H12B 2253   3.180   1.074   7.260 -0.9225  2.0248 -3.8618
   31CHL1   C11 2254   3.101   0.933   7.112 -0.0861 -0.5114  0.4471
   31CHL1  H11A 2255   3.116   0.824   7.096  0.5019  0.1863 -4.6788
   31CHL1  H11B 2256   2.998   0.950   7.151 -0.4716  3.8798 -2.1002
   31CHL1    C9 2257   3.127   1.013   6.981  0.0877  0.3447 -0.3681
   31CHL1    H9 2258   3.114   1.120   7.009  0.0033  0.2447 -0.0140
   31CHL1   C10 2259   3.031   0.991   6.865 -0.1554  0.6426  0.1707
   31CHL1   C19 2260   3.019   0.839   6.840 -0.5494  0.3333  0.5269
   31CHL1  H19A 2261   2.949   0.816   6.757  0.0637  1.3597 -0.2842
   31CHL1  H19B 2262   3.118   0.797   6.810 -0.7710  0.2307 -0.0759
   31CHL1  H19C 2263   2.975   0.795   6.932 -1.0308  1.1534  0.6907
   31CHL1    C1 2264   2.896   1.053   6.901 -0.6823  0.1151 -0.0414
   31CHL1   H1A 2265   2.842   1.005   6.985  0.1358  1.6226  1.3702
   31CHL1   H1B 2266   2.919   1.156   6.935  1.2539  0.6372 -2.7420
   31CHL1    C2 2267   2.801   1.065   6.783 -0.2387 -0.1878  0.9713
   31CHL1   H2A 2268   2.713   1.122   6.819  0.2078  0.4570  1.0462
   31CHL1   H2B 2269   2.766   0.962   6.761  1.9523 -0.8065  0.2439
   31CHL1   C20 2270   3.511   0.935   7.389 -0.3053  0.0515  0.8071
   31CHL1   H20 2271   3.548   0.839   7.347  0.0295  0.9095 -0.8768
   31CHL1   C21 2272   3.393   0.920   7.492  0.2998 -0.3244 -0.2320
   31CHL1  H21A 2273   3.316   0.849   7.454  0.3058  0.2801 -1.3901
   31CHL1  H21B 2274   3.348   1.017   7.520  3.8193  1.0105  1.1912
   31CHL1  H21C 2275   3.431   0.872   7.586 -0.1623 -0.6656 -0.2185
   31CHL1   C22 2276   3.634   1.006   7.453  0.4173 -0.1270  0.5003
   31CHL1  H22A 2277   3.663   0.940   7.538  0.0969 -2.8232 -1.3959
   31CHL1  H22B 2278   3.726   1.007   7.391 -0.4679 -1.4391 -0.8746
   31CHL1   C23 2279   3.607   1.147   7.516  0.1962  0.4473 -0.2255
   31CHL1  H23A 2280   3.546   1.207   7.445 -0.6227 -0.8263 -0.6096
   31CHL1  H23B 2281   3.552   1.116   7.607 -0.7707  1.1702 -0.5687
   31CHL1   C24 2282   3.736   1.213   7.556 -0.0563 -0.7242  0.3136
   31CHL1  H24A 2283   3.789   1.149   7.630  1.1231  1.0908  1.0720
   31CHL1  H24B 2284   3.806   1.220   7.470 -0.1356  0.4564  0.3318
   31CHL1   C25 2285   3.726   1.355   7.615 -0.4346  0.1245 -0.2568
   31CHL1   H25 2286   3.685   1.417   7.533  0.2472 -1.1907 -1.6210
   31CHL1   C26 2287   3.623   1.354   7.736  0.3176  0.2853  0.0588
   31CHL1  H26A 2288   3.666   1.292   7.818  0.4023 -0.3946 -0.4947
   31CHL1  H26B 2289   3.598   1.448   7.789  0.9320  0.5947 -0.1970
   31CHL1  H26C 2290   3.526   1.312   7.703 -1.4807  3.9538  0.4080
   31CHL1   C27 2291   3.863   1.398   7.654  0.6762  0.2323 -0.0997
   31CHL1  H27A 2292   3.937   1.401   7.571  1.0572 -0.7500  0.1881
   31CHL1  H27B 2293   3.908   1.325   7.725 -0.0539 -1.0472 -0.9262
   31CHL1  H27C 2294   3.864   1.503   7.689 -1.7207  0.0526  0.5772
   32CHL1    C3 2295   4.460   6.108   6.978  0.0899  0.0891 -0.3874
   32CHL1    H3 2296   4.431   6.009   7.021 -0.2692  0.0210 -0.7841
   32CHL1    O3 2297   4.479   6.088   6.840 -0.4855  0.1597  0.0285
   32CHL1   H3' 2298   4.420   6.018   6.812 -1.9968  1.9541 -1.3614
   32CHL1    C4 2299   4.348   6.208   7.018  0.7028 -0.6649  0.8068
   32CHL1   H4A 2300   4.375   6.297   6.957 -1.1341  2.0396  3.8341
   32CHL1   H4B 2301   4.262   6.167   6.961 -0.5880 -0.1601  2.3500
   32CHL1    C5 2302   4.325   6.231   7.164 -0.2876 -0.1233  0.4975
   32CHL1    C6 2303   4.205   6.212   7.227  0.6949  0.1729 -0.3450
   32CHL1    H6 2304   4.112   6.185   7.174 -1.3850  2.9758  1.7552
   32CHL1    C7 2305   4.191   6.223   7.373 -0.2512  0.9033 -0.0140
   32CHL1   H7A 2306   4.097   6.275   7.402 -1.5958 -1.3373 -0.1456
   32CHL1   H7B 2307   4.178   6.119   7.411 -0.6502  0.6534 -0.8059
   32CHL1    C8 2308   4.311   6.278   7.444  0.1017 -0.5677  0.3376
   32CHL1    H8 2309   4.307   6.389   7.439 -0.5825 -0.6617 -1.9780
   32CHL1   C14 2310   4.304   6.236   7.592 -0.2840  0.2508  0.2040
   32CHL1   H14 2311   4.317   6.126   7.586  1.3232  0.4490 -0.2013
   32CHL1   C15 2312   4.177   6.263   7.671 -0.7027  0.2150 -0.4921
   32CHL1  H15A 2313   4.136   6.364   7.650  0.0101  0.2424 -1.8163
   32CHL1  H15B 2314   4.112   6.177   7.645 -1.3167  0.4754  0.1752
   32CHL1   C16 2315   4.216   6.249   7.819  0.2662  0.0975 -0.1334
   32CHL1  H16A 2316   4.201   6.349   7.865  1.8583  0.6729 -0.8446
   32CHL1  H16B 2317   4.145   6.178   7.868 -1.9680  2.9403  0.9390
   32CHL1   C17 2318   4.372   6.219   7.816 -0.0106 -0.2013  0.7619
   32CHL1   H17 2319   4.385   6.109   7.811  0.4777 -0.1990  1.7331
   32CHL1   C13 2320   4.419   6.279   7.675 -0.2431  0.1782 -0.2560
   32CHL1   C18 2321   4.428   6.432   7.693  0.1206 -0.0252 -0.2278
   32CHL1  H18A 2322   4.337   6.481   7.734  2.6846  2.8032  2.4346
   32CHL1  H18B 2323   4.509   6.460   7.764 -0.4054 -2.0425  1.2056
   32CHL1  H18C 2324   4.459   6.482   7.598 -1.0671  0.5398 -0.3256
   32CHL1   C12 2325   4.553   6.222   7.618 -0.0996 -0.4324  0.4464
   32CHL1  H12A 2326   4.644   6.261   7.668 -0.5998 -0.3437  1.2931
   32CHL1  H12B 2327   4.552   6.111   7.629 -1.7436 -0.6327 -1.4682
   32CHL1   C11 2328   4.572   6.252   7.472 -0.2591  0.3764 -0.4366
   32CHL1  H11A 2329   4.599   6.359   7.463 -3.7446  1.2854 -0.5741
   32CHL1  H11B 2330   4.656   6.185   7.442  0.0258  1.2968 -1.7345
   32CHL1    C9 2331   4.447   6.232   7.382  0.2602 -0.1963 -0.1833
   32CHL1    H9 2332   4.433   6.123   7.395 -0.5077 -0.2042 -1.0039
   32CHL1   C10 2333   4.467   6.255   7.237  0.1772  0.3499 -0.5275
   32CHL1   C19 2334   4.495   6.411   7.211  0.0711  0.5613 -0.4512
   32CHL1  H19A 2335   4.486   6.440   7.104 -1.4144  0.6297 -0.3241
   32CHL1  H19B 2336   4.420   6.467   7.271 -0.2611 -0.6444  0.2766
   32CHL1  H19C 2337   4.587   6.441   7.265 -0.1189 -0.4412  0.4559
   32CHL1    C1 2338   4.580   6.173   7.184 -0.7357 -0.4655  0.7368
   32CHL1   H1A 2339   4.670   6.228   7.217 -0.3773 -1.5016  1.5186
   32CHL1   H1B 2340   4.606   6.077   7.235  1.1565  0.0314  0.7398
   32CHL1    C2 2341   4.587   6.162   7.027  0.2965 -0.8123  0.0543
   32CHL1   H2A 2342   4.669   6.095   6.994 -0.6487 -0.4684 -3.1462
   32CHL1   H2B 2343   4.610   6.264   6.990 -2.8043 -0.1405 -0.1519
   32CHL1   C20 2344   4.436   6.272   7.953 -0.1036 -0.0786  0.9283
   32CHL1   H20 2345   4.429   6.383   7.950  1.9656  0.1320  2.8248
   32CHL1   C21 2346   4.589   6.226   7.950  0.1511 -0.5570  0.0639
   32CHL1  H21A 2347   4.599   6.126   7.904  0.9223  0.2235 -1.4909
   32CHL1  H21B 2348   4.634   6.230   8.052 -2.2210  0.5680  1.1020
   32CHL1  H21C 2349   4.642   6.299   7.885 -1.2986  0.5964  0.1522
   32CHL1   C22 2350   4.362   6.234   8.083 -0.5897  0.6844 -0.4392
   32CHL1  H22A 2351   4.414   6.276   8.172 -0.8324  1.0864 -0.4854
   32CHL1  H22B 2352   4.262   6.282   8.089 -1.4862 -1.4018  2.1814
   32CHL1   C23 2353   4.338   6.089   8.114 -0.3016  0.1174  0.3190
   32CHL1  H23A 2354   4.293   6.040   8.025 -1.7500  3.9915 -1.1421
   32CHL1  H23B 2355   4.432   6.031   8.130 -2.0676 -2.7222  0.9581
   32CHL1   C24 2356   4.240   6.067   8.244  0.0344  0.2886 -0.7103
   32CHL1  H24A 2357   4.294   6.128   8.319 -1.7375  2.6649 -1.3137
   32CHL1  H24B 2358   4.150   6.127   8.220 -1.0923 -1.3007 -0.5103
   32CHL1   C25 2359   4.199   5.919   8.273 -0.1486  0.1455  1.0695
   32CHL1   H25 2360   4.148   5.884   8.181  0.7869  2.1748 -0.2664
   32CHL1   C26 2361   4.328   5.832   8.308 -0.0949  0.3983 -0.3994
   32CHL1  H26A 2362   4.312   5.749   8.380  1.8476 -1.4653 -2.0627
   32CHL1  H26B 2363   4.374   5.788   8.217  1.0230 -1.9623  1.2828
   32CHL1  H26C 2364   4.397   5.905   8.355  0.1160 -1.2106  1.8638
   32CHL1   C27 2365   4.102   5.911   8.382  0.5004 -0.0023 -0.2048
   32CHL1  H27A 2366   4.022   5.984   8.357  0.9628  0.5481 -0.1082
   32CHL1  H27B 2367   4.064   5.807   8.385  1.2421 -0.3724 -2.5294
   32CHL1  H27C 2368   4.139   5.928   8.486 -0.6416  1.7349 -0.0484
   33CHL1    C3 2369   5.402   0.245   6.834 -0.3223 -0.2904  0.5323
   33CHL1    H3 2370   5.338   0.330   6.864  0.7482  0.3188  1.1093
   33CHL1    O3 2371   5.394   0.242   6.693 -0.2789  0.1035 -0.3028
   33CHL1   H3' 2372   5.465   0.182   6.670  0.3214 -0.2297  2.2228
   33CHL1    C4 2373   5.545   0.268   6.888  0.2136 -0.3376 -0.3456
   33CHL1   H4A 2374   5.614   0.184   6.864 -1.5009 -2.3238  1.5326
   33CHL1   H4B 2375   5.579   0.364   6.842 -1.4384  0.2163 -0.4486
   33CHL1    C5 2376   5.543   0.268   7.039 -0.2224  0.1441 -0.5551
   33CHL1    C6 2377   5.600   0.371   7.095  0.4207 -0.9726 -0.2453
   33CHL1    H6 2378   5.631   0.454   7.030 -2.0961 -0.7191 -1.1895
   33CHL1    C7 2379   5.622   0.380   7.245 -0.0571  0.6677 -0.0653
   33CHL1   H7A 2380   5.726   0.411   7.268  0.5291 -1.5074  0.3639
   33CHL1   H7B 2381   5.553   0.460   7.277  0.2478  0.5471  0.8953
   33CHL1    C8 2382   5.589   0.238   7.313  0.1300 -0.5591 -0.4710
   33CHL1    H8 2383   5.678   0.174   7.298 -0.3177 -1.7898  1.9061
   33CHL1   C14 2384   5.563   0.267   7.462  0.0398  0.5755 -0.1842
   33CHL1   H14 2385   5.473   0.333   7.469 -0.5675 -0.2192 -0.4670
   33CHL1   C15 2386   5.687   0.320   7.530 -0.0213  0.0166 -0.1300
   33CHL1  H15A 2387   5.773   0.252   7.513  0.7041  0.5271  1.3989
   33CHL1  H15B 2388   5.702   0.427   7.506 -0.0503  0.1713  0.5298
   33CHL1   C16 2389   5.649   0.309   7.679 -0.3213 -0.1243 -0.7995
   33CHL1  H16A 2390   5.733   0.270   7.741 -0.1175 -1.1036 -1.6822
   33CHL1  H16B 2391   5.634   0.411   7.719 -2.0111 -0.3783 -0.7499
   33CHL1   C17 2392   5.520   0.228   7.681  0.2013 -0.4031 -0.3408
   33CHL1   H17 2393   5.440   0.305   7.674  1.4773  1.1296  1.5088
   33CHL1   C13 2394   5.518   0.156   7.540  0.4216  0.2496 -0.7229
   33CHL1   C18 2395   5.627   0.048   7.556 -0.4827  0.2755  0.2222
   33CHL1  H18A 2396   5.579  -0.034   7.613  1.1274 -1.4029 -0.8264
   33CHL1  H18B 2397   5.669   0.016   7.459 -0.1484 -1.0619  0.8095
   33CHL1  H18C 2398   5.714   0.078   7.618  0.3289  1.8219 -1.6044
   33CHL1   C12 2399   5.387   0.095   7.483 -0.4269  0.7506  1.1011
   33CHL1  H12A 2400   5.343   0.011   7.541  1.4485  1.3148  3.4273
   33CHL1  H12B 2401   5.312   0.177   7.484  0.1461  1.3493 -1.1379
   33CHL1   C11 2402   5.409   0.053   7.336 -0.0329  0.3911  0.0732
   33CHL1  H11A 2403   5.476  -0.035   7.340 -0.5221  0.0959  4.3563
   33CHL1  H11B 2404   5.310   0.016   7.300 -0.8255 -0.8302  3.3463
   33CHL1    C9 2405   5.466   0.167   7.252  0.3608  0.0576  0.5062
   33CHL1    H9 2406   5.386   0.243   7.261 -0.5508 -0.7563 -0.6704
   33CHL1   C10 2407   5.484   0.143   7.103 -0.1763  0.1039 -0.8734
   33CHL1   C19 2408   5.588   0.022   7.074  0.7328 -0.6691  0.5129
   33CHL1  H19A 2409   5.692   0.048   7.103  0.1589 -0.4594  2.4386
   33CHL1  H19B 2410   5.558  -0.070   7.128  0.0286 -0.9895 -0.4276
   33CHL1  H19C 2411   5.593   0.000   6.965 -1.7135 -1.1536  0.4780
   33CHL1    C1 2412   5.342   0.107   7.042  0.2345  0.9883 -0.4650
   33CHL1   H1A 2413   5.319   0.006   7.083  0.4862  0.4962 -1.5071
   33CHL1   H1B 2414   5.263   0.173   7.083 -0.2612 -1.5575  2.8813
   33CHL1    C2 2415   5.345   0.117   6.888  0.0418  0.4725 -0.3204
   33CHL1   H2A 2416   5.240   0.110   6.853  0.3509  1.7260 -1.5396
   33CHL1   H2B 2417   5.404   0.030   6.851  1.6365  1.9343 -1.3068
   33CHL1   C20 2418   5.489   0.145   7.808 -0.2330 -0.4837 -0.0082
   33CHL1   H20 2419   5.564   0.063   7.803  0.3526  0.1708 -3.6528
   33CHL1   C21 2420   5.361   0.078   7.805  0.8077  0.3387 -0.3907
   33CHL1  H21A 2421   5.270   0.130   7.769  0.6689  1.7283  1.9075
   33CHL1  H21B 2422   5.333   0.046   7.907 -0.6882 -1.6280 -1.3652
   33CHL1  H21C 2423   5.355  -0.007   7.732 -0.0496  0.7822 -0.8476
   33CHL1   C22 2424   5.498   0.214   7.941 -0.2003 -0.0870 -0.8587
   33CHL1  H22A 2425   5.502   0.141   8.025  1.9135 -0.6622 -1.4318
   33CHL1  H22B 2426   5.598   0.262   7.946  0.2383 -1.0596 -0.0280
   33CHL1   C23 2427   5.380   0.312   7.968 -1.0660 -0.2911  0.2961
   33CHL1  H23A 2428   5.378   0.366   7.871  2.6335 -1.4960 -0.5462
   33CHL1  H23B 2429   5.282   0.261   7.977 -1.8170  0.9616 -0.5535
   33CHL1   C24 2430   5.426   0.404   8.079 -0.6110 -0.8998 -0.4348
   33CHL1  H24A 2431   5.440   0.348   8.174  1.1511  0.0662 -0.1082
   33CHL1  H24B 2432   5.526   0.443   8.050 -2.3917  3.7552 -0.8124
   33CHL1   C25 2433   5.340   0.526   8.104 -0.6357  0.4625 -0.1273
   33CHL1   H25 2434   5.322   0.566   8.002  0.4301  1.7956  0.1895
   33CHL1   C26 2435   5.212   0.491   8.173  0.1050  0.3653 -0.0756
   33CHL1  H26A 2436   5.230   0.435   8.268  1.6178 -1.1127 -1.2006
   33CHL1  H26B 2437   5.154   0.583   8.196 -0.4474  0.5538 -2.2158
   33CHL1  H26C 2438   5.153   0.423   8.109  0.7603 -0.9531  0.7007
   33CHL1   C27 2439   5.407   0.652   8.172 -0.7494 -0.1603 -0.5169
   33CHL1  H27A 2440   5.495   0.684   8.111 -1.6016  0.5597 -1.3732
   33CHL1  H27B 2441   5.327   0.729   8.173  1.1196  2.0232 -4.5615
   33CHL1  H27C 2442   5.436   0.629   8.276 -1.5592 -1.5199 -0.5817
   34CHL1    C3 2443   5.872   5.032   7.104  0.2890  0.1135  0.0299
   34CHL1    H3 2444   5.835   5.133   7.132  1.4112  1.2810 -2.5301
   34CHL1    O3 2445   5.930   5.036   6.973 -0.1497  0.5143 -0.4343
   34CHL1   H3' 2446   5.938   4.943   6.951  0.8954  0.2197  1.1434
   34CHL1    C4 2447   5.978   4.987   7.207  0.0257  0.3380  0.4254
   34CHL1   H4A 2448   6.031   4.895   7.171  0.2038 -0.0120  1.5576
   34CHL1   H4B 2449   6.058   5.064   7.207  0.3763 -0.0118 -0.6325
   34CHL1    C5 2450   5.928   4.965   7.347  0.5426 -0.2664 -0.2983
   34CHL1    C6 2451   5.989   5.037   7.445  0.0838  0.1149  0.0532
   34CHL1    H6 2452   6.073   5.108   7.434  0.3782 -0.4660 -1.4858
   34CHL1    C7 2453   5.967   5.009   7.588 -0.1951 -0.2550  0.1062
   34CHL1   H7A 2454   6.065   5.002   7.641 -1.0975  3.6374  2.4498
   34CHL1   H7B 2455   5.912   5.098   7.625  1.4125 -0.2320  2.6319
   34CHL1    C8 2456   5.883   4.879   7.605  0.1324 -0.0970  0.8058
   34CHL1    H8 2457   5.944   4.788   7.589  0.4389  0.3656 -0.8349
   34CHL1   C14 2458   5.824   4.871   7.745  0.8726 -0.1266 -0.5529
   34CHL1   H14 2459   5.756   4.959   7.757 -0.1064 -0.7655 -1.3534
   34CHL1   C15 2460   5.922   4.883   7.860 -0.3550 -0.2211 -0.6438
   34CHL1  H15A 2461   6.009   4.820   7.834  0.1342 -1.2272  3.0880
   34CHL1  H15B 2462   5.954   4.989   7.858 -0.3820 -0.1695  1.0625
   34CHL1   C16 2463   5.849   4.838   7.983  0.5847  0.0902 -0.0120
   34CHL1  H16A 2464   5.911   4.759   8.030 -0.8908 -1.8547 -1.2777
   34CHL1  H16B 2465   5.835   4.924   8.052  1.2894  2.2581 -2.5075
   34CHL1   C17 2466   5.705   4.792   7.941  0.1396 -0.1682 -0.4555
   34CHL1   H17 2467   5.647   4.887   7.932 -1.2936 -0.9402  0.4331
   34CHL1   C13 2468   5.735   4.756   7.787 -0.3221 -0.0705 -0.4726
   34CHL1   C18 2469   5.807   4.617   7.786 -0.1110  0.3864  1.2569
   34CHL1  H18A 2470   5.725   4.548   7.816  0.4518 -0.6661  0.3981
   34CHL1  H18B 2471   5.860   4.596   7.691  0.6153 -0.4550  1.8441
   34CHL1  H18C 2472   5.878   4.612   7.872  0.2514  0.2797  0.9515
   34CHL1   C12 2473   5.614   4.757   7.692 -0.1979  0.3330  0.2203
   34CHL1  H12A 2474   5.547   4.670   7.710  0.0012  0.5988  2.3347
   34CHL1  H12B 2475   5.558   4.852   7.705 -1.0260 -0.1931  0.5519
   34CHL1   C11 2476   5.665   4.762   7.546 -0.6115  0.2560  0.0726
   34CHL1  H11A 2477   5.712   4.662   7.528  2.3554  1.6683 -0.4470
   34CHL1  H11B 2478   5.583   4.772   7.472 -0.2130 -3.3489 -0.9594
   34CHL1    C9 2479   5.764   4.876   7.509 -0.2859  0.6862 -0.1265
   34CHL1    H9 2480   5.708   4.972   7.520 -2.8139 -0.9614  1.9464
   34CHL1   C10 2481   5.811   4.874   7.358  0.3043 -0.1270 -0.3066
   34CHL1   C19 2482   5.857   4.729   7.319 -0.0764 -1.1163 -0.5756
   34CHL1  H19A 2483   5.937   4.703   7.392  0.7169 -2.0926 -1.7876
   34CHL1  H19B 2484   5.766   4.666   7.323 -1.9281  1.5265  0.7555
   34CHL1  H19C 2485   5.904   4.716   7.220  0.6117 -0.5418 -0.3307
   34CHL1    C1 2486   5.700   4.912   7.253  0.3504  0.0088  0.4569
   34CHL1   H1A 2487   5.619   4.836   7.250  1.5031 -1.1674 -1.3601
   34CHL1   H1B 2488   5.639   5.000   7.283  0.5957 -0.0307  1.0762
   34CHL1    C2 2489   5.752   4.933   7.106 -0.1070 -0.2172 -0.7020
   34CHL1   H2A 2490   5.668   4.971   7.044 -0.3875 -2.0255 -1.4579
   34CHL1   H2B 2491   5.786   4.836   7.063  1.3698  0.2699 -0.6353
   34CHL1   C20 2492   5.638   4.688   8.035  0.4088  0.1328 -0.6205
   34CHL1   H20 2493   5.702   4.597   8.039 -1.4336 -1.1533  0.0898
   34CHL1   C21 2494   5.500   4.650   7.988 -0.3310  0.2213  0.7232
   34CHL1  H21A 2495   5.506   4.596   7.891 -0.1478  0.9225  0.3400
   34CHL1  H21B 2496   5.436   4.741   7.979 -0.4945  0.0396 -0.0068
   34CHL1  H21C 2497   5.446   4.580   8.055 -1.1512  2.2640  2.2634
   34CHL1   C22 2498   5.632   4.737   8.186  0.0426  0.6844 -0.1002
   34CHL1  H22A 2499   5.735   4.762   8.219 -0.0649 -1.4227  1.9276
   34CHL1  H22B 2500   5.575   4.832   8.177 -0.0914  0.7779  1.6007
   34CHL1   C23 2501   5.561   4.639   8.287 -0.1506  0.7808  0.6501
   34CHL1  H23A 2502   5.455   4.631   8.256  0.1732 -2.8777  0.2523
   34CHL1  H23B 2503   5.611   4.540   8.275 -1.4109  0.1416  0.6318
   34CHL1   C24 2504   5.586   4.680   8.431 -0.3629 -0.2963  0.3286
   34CHL1  H24A 2505   5.696   4.686   8.446  0.0129 -0.0212 -2.2613
   34CHL1  H24B 2506   5.551   4.785   8.420 -0.7833 -0.4193  0.5092
   34CHL1   C25 2507   5.511   4.606   8.540 -0.4193  0.2401 -0.0040
   34CHL1   H25 2508   5.515   4.676   8.627  1.7643  0.5033 -0.2788
   34CHL1   C26 2509   5.369   4.552   8.506 -0.6775 -0.0868  0.2183
   34CHL1  H26A 2510   5.379   4.490   8.414 -0.0612  0.7256 -0.2737
   34CHL1  H26B 2511   5.344   4.486   8.591  1.6849 -0.3989  0.6992
   34CHL1  H26C 2512   5.294   4.634   8.499 -1.2393 -0.5358  0.9546
   34CHL1   C27 2513   5.598   4.497   8.605 -0.3980  0.1376  0.2650
   34CHL1  H27A 2514   5.702   4.528   8.627  0.4388 -1.8906 -0.6983
   34CHL1  H27B 2515   5.554   4.453   8.697  1.6538 -1.3045  0.5811
   34CHL1  H27C 2516   5.615   4.422   8.524  1.3504 -0.3891  1.0932
   35CHL1    C3 2517   2.625   5.570   7.312 -0.0037  0.3140 -0.1293
   35CHL1    H3 2518   2.515   5.575   7.326 -0.1673  1.6404 -1.6233
   35CHL1    O3 2519   2.639   5.611   7.180  0.1833 -0.2974 -0.1180
   35CHL1   H3' 2520   2.734   5.604   7.165 -0.1604 -1.7605 -1.8250
   35CHL1    C4 2521   2.696   5.677   7.386  0.6689 -0.7554 -1.0951
   35CHL1   H4A 2522   2.803   5.680   7.356  0.9309  0.8815 -0.0681
   35CHL1   H4B 2523   2.648   5.776   7.369 -0.8606 -1.3876 -0.5816
   35CHL1    C5 2524   2.708   5.637   7.534  0.2179  0.0568 -0.0885
   35CHL1    C6 2525   2.671   5.724   7.631  0.0146  0.4220 -0.9368
   35CHL1    H6 2526   2.637   5.827   7.611  0.5401  0.5507 -1.1652
   35CHL1    C7 2527   2.680   5.683   7.770 -0.3891 -0.1092  1.1045
   35CHL1   H7A 2528   2.715   5.763   7.839  0.1236 -0.8697  1.7372
   35CHL1   H7B 2529   2.577   5.654   7.800  0.1775 -1.8309  1.4937
   35CHL1    C8 2530   2.765   5.561   7.805  0.1046  0.1264 -0.4699
   35CHL1    H8 2531   2.867   5.603   7.792  0.4390  0.2197  2.1237
   35CHL1   C14 2532   2.753   5.524   7.956 -0.6506  0.2418  0.2658
   35CHL1   H14 2533   2.648   5.494   7.976 -0.2012 -1.6837 -0.0878
   35CHL1   C15 2534   2.771   5.632   8.049  0.1402 -0.9536  1.1099
   35CHL1  H15A 2535   2.856   5.697   8.022 -2.3899  2.0210  0.0296
   35CHL1  H15B 2536   2.680   5.696   8.052 -0.0507 -1.0364 -1.4969
   35CHL1   C16 2537   2.803   5.562   8.181  0.3447 -0.1462  0.6270
   35CHL1  H16A 2538   2.897   5.603   8.223  0.9322 -0.8970  0.0578
   35CHL1  H16B 2539   2.727   5.595   8.255 -0.5089 -0.7279  0.0099
   35CHL1   C17 2540   2.810   5.409   8.152 -0.5380 -0.5942  0.0067
   35CHL1   H17 2541   2.704   5.380   8.165 -0.5606 -0.0093  1.1802
   35CHL1   C13 2542   2.841   5.404   8.005  0.9305 -0.4493 -0.0945
   35CHL1   C18 2543   2.992   5.426   7.978 -1.2840 -0.5718 -0.3466
   35CHL1  H18A 2544   3.012   5.466   7.876  1.2543  1.5234  0.8858
   35CHL1  H18B 2545   3.041   5.499   8.047  0.1079  0.1337 -2.0532
   35CHL1  H18C 2546   3.055   5.335   7.987  1.4347  1.2858  0.3098
   35CHL1   C12 2547   2.801   5.280   7.926 -0.1509 -0.6301 -0.2924
   35CHL1  H12A 2548   2.861   5.192   7.958  0.9737  0.7194  1.4217
   35CHL1  H12B 2549   2.696   5.251   7.947 -0.6478  1.7854  0.7637
   35CHL1   C11 2550   2.815   5.309   7.769 -0.5345 -1.1418 -0.4863
   35CHL1  H11A 2551   2.923   5.307   7.741  0.6303 -0.6161  3.6327
   35CHL1  H11B 2552   2.763   5.230   7.712  1.4562 -2.2205 -0.8753
   35CHL1    C9 2553   2.739   5.444   7.714  0.1123 -0.2394 -0.5181
   35CHL1    H9 2554   2.633   5.417   7.731  0.0736 -0.0058 -0.3934
   35CHL1   C10 2555   2.757   5.490   7.567  0.2871 -0.5918  0.3499
   35CHL1   C19 2556   2.912   5.492   7.549  0.4333 -0.4870 -0.1270
   35CHL1  H19A 2557   2.973   5.548   7.623 -2.0247  0.0589  1.5648
   35CHL1  H19B 2558   2.951   5.389   7.565  0.9673 -0.3875 -0.8124
   35CHL1  H19C 2559   2.951   5.526   7.451 -1.5928 -0.4157 -0.9413
   35CHL1    C1 2560   2.695   5.388   7.473 -0.2204 -0.3123 -0.4337
   35CHL1   H1A 2561   2.762   5.299   7.472  0.1763 -0.0348  0.7294
   35CHL1   H1B 2562   2.594   5.365   7.512 -0.1972 -2.0921 -1.3517
   35CHL1    C2 2563   2.685   5.428   7.327  0.6879  0.1426 -0.5604
   35CHL1   H2A 2564   2.618   5.363   7.267 -1.6633  0.1311  1.9873
   35CHL1   H2B 2565   2.787   5.439   7.285  2.0401 -0.3398  2.4749
   35CHL1   C20 2566   2.895   5.317   8.247 -0.2806 -0.3670 -0.7731
   35CHL1   H20 2567   3.002   5.312   8.218 -0.2625  1.7277 -1.1689
   35CHL1   C21 2568   2.831   5.183   8.250  0.1054  0.1160 -0.8338
   35CHL1  H21A 2569   2.736   5.186   8.306 -0.0994 -0.8626 -1.1210
   35CHL1  H21B 2570   2.901   5.115   8.303 -1.7535 -0.3032  1.1458
   35CHL1  H21C 2571   2.816   5.156   8.143  0.8139  0.4573 -1.0293
   35CHL1   C22 2572   2.898   5.378   8.395 -0.1283  0.1339  0.0150
   35CHL1  H22A 2573   2.959   5.470   8.391 -1.3322  0.9440 -0.0431
   35CHL1  H22B 2574   2.794   5.407   8.422 -0.2890  0.9662 -1.4595
   35CHL1   C23 2575   2.962   5.293   8.497 -0.8999  0.4276 -0.4710
   35CHL1  H23A 2576   2.907   5.197   8.510  0.3746 -0.0487  1.6288
   35CHL1  H23B 2577   3.060   5.261   8.455 -1.5001  1.3066 -2.5970
   35CHL1   C24 2578   2.969   5.360   8.631  0.7688 -0.0950 -0.0780
   35CHL1  H24A 2579   3.045   5.441   8.640  2.9751 -2.0873 -0.3838
   35CHL1  H24B 2580   2.874   5.412   8.654  0.2881 -0.9320 -0.1781
   35CHL1   C25 2581   2.980   5.269   8.752 -0.4183 -0.1922 -0.4273
   35CHL1   H25 2582   2.882   5.219   8.767  1.6202 -4.1805  0.1607
   35CHL1   C26 2583   3.094   5.164   8.742 -1.1275 -0.5876 -0.7927
   35CHL1  H26A 2584   3.196   5.207   8.736 -0.6560 -1.1593  2.2263
   35CHL1  H26B 2585   3.099   5.102   8.834  0.3622  1.9070  0.9040
   35CHL1  H26C 2586   3.078   5.088   8.663 -1.5772 -1.5112  0.1832
   35CHL1   C27 2587   3.006   5.364   8.874  0.0349 -0.1882 -0.1920
   35CHL1  H27A 2588   3.102   5.417   8.858  0.3155 -0.4333  0.6818
   35CHL1  H27B 2589   3.017   5.307   8.969  2.7957  0.2904 -0.2053
   35CHL1  H27C 2590   2.920   5.434   8.889 -0.1471 -0.0542 -1.7186
   36CHL1    C3 2591   3.674   4.737   7.131  0.7459  0.6938 -1.2262
   36CHL1    H3 2592   3.645   4.629   7.123 -0.0046  0.7760  0.2091
   36CHL1    O3 2593   3.764   4.771   7.032  0.3120 -0.2959 -0.2068
   36CHL1   H3' 2594   3.797   4.859   7.054  0.3880 -0.3255 -0.2017
   36CHL1    C4 2595   3.549   4.834   7.114 -0.4556 -0.2766 -0.4076
   36CHL1   H4A 2596   3.598   4.933   7.117  0.0843 -0.5836  1.4214
   36CHL1   H4B 2597   3.506   4.821   7.012 -1.2169  0.5905 -0.2083
   36CHL1    C5 2598   3.442   4.822   7.219  0.1809 -0.4546 -0.5612
   36CHL1    C6 2599   3.314   4.795   7.185 -0.4524  0.0001  0.3609
   36CHL1    H6 2600   3.277   4.796   7.082 -0.6982 -0.3020  0.4466
   36CHL1    C7 2601   3.207   4.784   7.288  0.2360 -0.8886  0.4515
   36CHL1   H7A 2602   3.112   4.835   7.262  0.2826  0.2529  2.4331
   36CHL1   H7B 2603   3.184   4.680   7.320 -0.9883 -0.7665 -0.0191
   36CHL1    C8 2604   3.245   4.853   7.424  0.6713 -0.3430 -0.2943
   36CHL1    H8 2605   3.234   4.962   7.408 -3.0424 -0.4255  1.0652
   36CHL1   C14 2606   3.152   4.813   7.532  0.1643  0.0871 -0.9717
   36CHL1   H14 2607   3.167   4.703   7.541  2.5886  0.3985 -0.6981
   36CHL1   C15 2608   3.004   4.843   7.507 -0.5370  0.3453  0.2562
   36CHL1  H15A 2609   2.987   4.944   7.463  1.1759 -0.0615 -1.4251
   36CHL1  H15B 2610   2.961   4.777   7.428 -0.2374 -2.8337  2.6508
   36CHL1   C16 2611   2.935   4.839   7.644  0.1646  0.8892 -0.0619
   36CHL1  H16A 2612   2.872   4.931   7.639 -0.6618  0.3504  0.2862
   36CHL1  H16B 2613   2.875   4.747   7.659  1.0608  0.2465 -0.3980
   36CHL1   C17 2614   3.054   4.826   7.749  0.4742 -0.5360  0.1926
   36CHL1   H17 2615   3.073   4.719   7.769 -2.6307 -1.4262 -1.1548
   36CHL1   C13 2616   3.175   4.877   7.668 -0.0787 -0.4981 -0.4338
   36CHL1   C18 2617   3.164   5.036   7.667  0.0800  0.0990  0.2431
   36CHL1  H18A 2618   3.058   5.062   7.646  0.1139  0.8316  0.9472
   36CHL1  H18B 2619   3.169   5.074   7.772  2.0813  0.2174  0.1228
   36CHL1  H18C 2620   3.235   5.078   7.594  0.0146 -1.1266 -0.5290
   36CHL1   C12 2621   3.312   4.820   7.710  0.8504 -0.2013 -0.9031
   36CHL1  H12A 2622   3.343   4.857   7.810 -0.5065  0.3292 -0.6767
   36CHL1  H12B 2623   3.311   4.710   7.694 -0.6518 -0.2576 -0.4712
   36CHL1   C11 2624   3.427   4.859   7.617  0.1295  0.1788  0.4729
   36CHL1  H11A 2625   3.449   4.967   7.632  2.7739 -0.4358  1.4175
   36CHL1  H11B 2626   3.524   4.811   7.641  0.6865 -0.3204 -2.5963
   36CHL1    C9 2627   3.389   4.813   7.469 -0.3384  1.4267 -0.4045
   36CHL1    H9 2628   3.383   4.702   7.468 -1.3896  1.4665  0.6230
   36CHL1   C10 2629   3.499   4.841   7.361  0.3932 -0.1879  0.5374
   36CHL1   C19 2630   3.535   4.997   7.370 -0.2938  0.2990 -0.0295
   36CHL1  H19A 2631   3.446   5.063   7.383 -3.2674 -3.6445  0.5261
   36CHL1  H19B 2632   3.608   5.010   7.452 -2.1463  0.1440  1.6912
   36CHL1  H19C 2633   3.568   5.037   7.271  1.1002 -1.2264 -0.2058
   36CHL1    C1 2634   3.625   4.758   7.377  0.5454 -0.4031 -0.3505
   36CHL1   H1A 2635   3.662   4.777   7.480 -0.2495 -0.8214  0.0123
   36CHL1   H1B 2636   3.607   4.649   7.385  1.3853 -0.6312 -1.4942
   36CHL1    C2 2637   3.736   4.765   7.269  0.4951 -0.2491 -0.2151
   36CHL1   H2A 2638   3.834   4.720   7.293  1.2915  1.4600 -0.1429
   36CHL1   H2B 2639   3.767   4.872   7.267  0.4251 -0.2167 -3.9209
   36CHL1   C20 2640   3.017   4.895   7.874  1.2893  0.0489  0.2782
   36CHL1   H20 2641   3.010   5.006   7.875  3.0468  0.2259 -2.5763
   36CHL1   C21 2642   3.134   4.876   7.974  1.0640 -0.1071  0.2325
   36CHL1  H21A 2643   3.220   4.944   7.958  1.1514 -0.0743  0.8258
   36CHL1  H21B 2644   3.177   4.774   7.975  1.8951  0.2211 -0.9573
   36CHL1  H21C 2645   3.085   4.894   8.072  0.3902 -0.5827 -0.0126
   36CHL1   C22 2646   2.890   4.831   7.941  0.3896  0.3939  1.3082
   36CHL1  H22A 2647   2.868   4.882   8.038 -0.3838 -0.2725  1.4945
   36CHL1  H22B 2648   2.807   4.858   7.872 -0.0248  0.8031  1.9545
   36CHL1   C23 2649   2.902   4.673   7.959  0.5570 -0.5365  0.5567
   36CHL1  H23A 2650   2.888   4.621   7.862  0.4819 -2.1157  1.3874
   36CHL1  H23B 2651   3.005   4.649   7.992  1.9752  2.4513 -1.4699
   36CHL1   C24 2652   2.798   4.616   8.059  0.7604  0.0957 -0.0748
   36CHL1  H24A 2653   2.703   4.636   8.005  0.8721 -1.3060 -0.8213
   36CHL1  H24B 2654   2.812   4.506   8.052  1.5594 -0.0820  3.3290
   36CHL1   C25 2655   2.807   4.674   8.199  0.4766  0.6031 -0.2239
   36CHL1   H25 2656   2.789   4.784   8.205 -1.4337  0.4107 -1.7272
   36CHL1   C26 2657   2.703   4.604   8.292  0.2039 -0.1403 -0.0506
   36CHL1  H26A 2658   2.704   4.658   8.389 -1.3977  0.8209 -0.5407
   36CHL1  H26B 2659   2.606   4.612   8.238 -1.0180  0.3397  2.1401
   36CHL1  H26C 2660   2.723   4.495   8.298 -0.7634 -0.3552 -0.5162
   36CHL1   C27 2661   2.943   4.646   8.264 -0.8549 -0.5202  0.5161
   36CHL1  H27A 2662   2.955   4.678   8.370  0.4504  0.7384  0.0123
   36CHL1  H27B 2663   2.960   4.536   8.263  0.5358 -0.3114 -1.1845
   36CHL1  H27C 2664   3.012   4.708   8.204 -1.9905  0.2247 -0.0176
   37CHL1    C3 2665   0.106   0.633   6.927 -0.0724  0.6401  0.1512
   37CHL1    H3 2666   0.216   0.641   6.918  0.1863 -0.1211  2.3526
   37CHL1    O3 2667   0.044   0.615   6.799 -0.2229 -0.2687  0.3950
   37CHL1   H3' 2668  -0.042   0.655   6.810 -1.2401 -1.9927 -0.9286
   37CHL1    C4 2669   0.071   0.508   7.010 -0.1601 -0.0963 -0.9701
   37CHL1   H4A 2670  -0.039   0.492   7.006 -0.3400  0.8706 -0.2535
   37CHL1   H4B 2671   0.112   0.417   6.961 -2.6854 -1.9180  0.1709
   37CHL1    C5 2672   0.112   0.531   7.160 -0.0322  0.4184 -0.3849
   37CHL1    C6 2673   0.192   0.448   7.223 -0.3533 -0.1124  0.1885
   37CHL1    H6 2674   0.228   0.364   7.161 -1.0456  0.0517 -0.4475
   37CHL1    C7 2675   0.222   0.467   7.365  0.7574  0.6359 -0.1553
   37CHL1   H7A 2676   0.202   0.366   7.407 -0.8854 -1.0637 -4.7040
   37CHL1   H7B 2677   0.328   0.494   7.380  0.7868  0.4311  0.0146
   37CHL1    C8 2678   0.126   0.569   7.438  0.3063  0.1477  0.0114
   37CHL1    H8 2679   0.031   0.514   7.452  0.4204 -0.0294  0.0977
   37CHL1   C14 2680   0.180   0.603   7.574  0.0656 -0.5109 -0.0122
   37CHL1   H14 2681   0.280   0.650   7.557  0.1492 -0.2350  1.1692
   37CHL1   C15 2682   0.208   0.489   7.672 -0.3401  0.7531  0.5561
   37CHL1  H15A 2683   0.124   0.417   7.664 -0.9662  1.7802 -3.1199
   37CHL1  H15B 2684   0.311   0.447   7.661 -0.5408 -0.0170  1.5570
   37CHL1   C16 2685   0.202   0.559   7.808  0.5333 -0.0124  0.7847
   37CHL1  H16A 2686   0.121   0.503   7.859 -0.7228  1.0833  0.0205
   37CHL1  H16B 2687   0.296   0.551   7.867  1.2281 -3.2972 -0.7020
   37CHL1   C17 2688   0.168   0.705   7.782 -0.1242  0.4431  0.2031
   37CHL1   H17 2689   0.269   0.751   7.770  0.2143 -0.5471 -0.7528
   37CHL1   C13 2690   0.099   0.713   7.649 -0.2933 -0.8274 -0.2779
   37CHL1   C18 2691  -0.054   0.684   7.670  0.4620 -0.3521 -0.1159
   37CHL1  H18A 2692  -0.078   0.599   7.738  1.6888 -1.5838 -1.1827
   37CHL1  H18B 2693  -0.097   0.784   7.690  0.3916 -0.1198 -1.4339
   37CHL1  H18C 2694  -0.091   0.642   7.574  0.2586  0.4339 -0.3801
   37CHL1   C12 2695   0.118   0.845   7.564  0.1995  0.3942  0.1621
   37CHL1  H12A 2696   0.058   0.929   7.605 -1.8988 -0.9854  0.0312
   37CHL1  H12B 2697   0.225   0.873   7.564  0.3305 -0.0764 -0.9554
   37CHL1   C11 2698   0.065   0.819   7.421 -0.2140  0.3394 -0.8001
   37CHL1  H11A 2699  -0.046   0.823   7.432 -0.1541  0.1545 -0.1152
   37CHL1  H11B 2700   0.097   0.911   7.367 -1.9604  0.6900 -1.2816
   37CHL1    C9 2701   0.120   0.693   7.357  0.1809 -0.3219 -0.1048
   37CHL1    H9 2702   0.229   0.712   7.354  0.0180  0.9301  1.4032
   37CHL1   C10 2703   0.055   0.665   7.217  0.9360 -0.1197  0.0328
   37CHL1   C19 2704  -0.104   0.647   7.230  0.4531 -0.1496 -0.6560
   37CHL1  H19A 2705  -0.147   0.731   7.287 -2.4088 -1.6816 -0.4519
   37CHL1  H19B 2706  -0.152   0.634   7.130  0.3046 -0.5415 -0.5340
   37CHL1  H19C 2707  -0.129   0.564   7.299  0.3358  0.9717  0.6663
   37CHL1    C1 2708   0.102   0.788   7.120  0.0157  0.7236  0.2597
   37CHL1   H1A 2709   0.062   0.883   7.163  2.0208  1.9651 -0.5294
   37CHL1   H1B 2710   0.211   0.792   7.141  0.0575  0.3453  0.1176
   37CHL1    C2 2711   0.049   0.766   6.982 -0.9852  0.2989  0.3374
   37CHL1   H2A 2712   0.077   0.852   6.916  2.3249 -0.3985  0.7276
   37CHL1   H2B 2713  -0.061   0.755   6.979 -1.0173 -0.5296  3.0796
   37CHL1   C20 2714   0.107   0.787   7.910  0.9235  0.1373 -0.1405
   37CHL1   H20 2715  -0.002   0.766   7.916  0.9095  0.4580  0.9019
   37CHL1   C21 2716   0.131   0.938   7.890 -0.6996  0.3143 -0.0324
   37CHL1  H21A 2717   0.237   0.960   7.913 -1.3362  1.0476  2.2426
   37CHL1  H21B 2718   0.054   0.975   7.961 -2.0672 -1.3254 -0.6224
   37CHL1  H21C 2719   0.107   0.977   7.788 -0.0736  0.6045 -0.0719
   37CHL1   C22 2720   0.176   0.749   8.045 -0.5445  0.2519 -0.0695
   37CHL1  H22A 2721   0.216   0.646   8.035  0.1062  0.4956  0.0378
   37CHL1  H22B 2722   0.255   0.826   8.060 -1.8888  1.5178  0.6898
   37CHL1   C23 2723   0.076   0.763   8.162 -0.3489  0.0867  0.4321
   37CHL1  H23A 2724   0.075   0.872   8.186 -0.1235  0.0436  0.6399
   37CHL1  H23B 2725  -0.024   0.721   8.139 -0.4225 -0.2511  1.3249
   37CHL1   C24 2726   0.123   0.693   8.290 -0.1428 -0.6044  0.1817
   37CHL1  H24A 2727   0.104   0.586   8.266 -0.3275 -0.8837  1.5363
   37CHL1  H24B 2728   0.234   0.704   8.298  0.1891 -1.6131 -2.5086
   37CHL1   C25 2729   0.040   0.728   8.418  1.5227 -0.6203 -0.7163
   37CHL1   H25 2730   0.089   0.667   8.497  1.2479 -0.3074 -0.3005
   37CHL1   C26 2731   0.048   0.881   8.450  0.3155  0.8370  0.2291
   37CHL1  H26A 2732   0.156   0.909   8.453  0.8899 -1.3907  1.9163
   37CHL1  H26B 2733  -0.001   0.934   8.366  0.8810 -0.6086 -1.0377
   37CHL1  H26C 2734  -0.001   0.912   8.544  1.6453 -0.6737  1.4534
   37CHL1   C27 2735  -0.108   0.697   8.418 -0.0576 -0.4905  0.2783
   37CHL1  H27A 2736  -0.161   0.728   8.510 -0.4269  1.0610 -0.4359
   37CHL1  H27B 2737  -0.151   0.764   8.340  1.6107  0.1117 -0.1315
   37CHL1  H27C 2738  -0.125   0.591   8.390  1.6103 -0.5166 -0.6782
   38CHL1    C3 2739   3.332   1.645   6.674 -0.3705  0.0945 -0.1874
   38CHL1    H3 2740   3.388   1.722   6.731  1.5946 -1.0225 -0.5611
   38CHL1    O3 2741   3.373   1.652   6.539 -0.6341 -0.4864  0.4293
   38CHL1   H3' 2742   3.345   1.569   6.499 -0.0836 -0.6068  0.2911
   38CHL1    C4 2743   3.363   1.509   6.738  0.8878 -0.5516 -0.5664
   38CHL1   H4A 2744   3.313   1.433   6.673 -1.4041  1.4773 -1.2485
   38CHL1   H4B 2745   3.473   1.491   6.734  1.1537  1.1097 -0.7839
   38CHL1    C5 2746   3.314   1.510   6.876  0.5398 -0.7755  0.3836
   38CHL1    C6 2747   3.397   1.490   6.982 -0.3219  0.5925 -0.4365
   38CHL1    H6 2748   3.503   1.461   6.973 -0.1010 -0.2657  4.0054
   38CHL1    C7 2749   3.344   1.482   7.118  1.1786 -0.2545  0.0169
   38CHL1   H7A 2750   3.399   1.398   7.165  0.6531 -0.0449  1.0268
   38CHL1   H7B 2751   3.378   1.570   7.176 -0.3355  1.2787 -1.3513
   38CHL1    C8 2752   3.192   1.466   7.117  0.4829 -0.8844 -0.3514
   38CHL1    H8 2753   3.166   1.363   7.084 -0.5028 -0.7735  0.0597
   38CHL1   C14 2754   3.139   1.490   7.257  0.4298 -0.2419  0.3815
   38CHL1   H14 2755   3.168   1.595   7.278  0.4754  0.1383 -1.4372
   38CHL1   C15 2756   3.201   1.402   7.365 -0.3623  0.2287  0.3544
   38CHL1  H15A 2757   3.188   1.295   7.335  2.4783  0.0059 -0.2593
   38CHL1  H15B 2758   3.307   1.432   7.372  0.3925 -2.3304  0.5839
   38CHL1   C16 2759   3.124   1.437   7.489 -0.3117 -0.3648 -0.1621
   38CHL1  H16A 2760   3.106   1.347   7.553  1.7008  0.3144  1.4068
   38CHL1  H16B 2761   3.182   1.504   7.555  2.3912 -1.8840 -0.9264
   38CHL1   C17 2762   2.996   1.508   7.439 -0.0410 -0.4564  1.0567
   38CHL1   H17 2763   3.024   1.616   7.437  1.1488 -0.7710 -0.1139
   38CHL1   C13 2764   2.996   1.474   7.287  0.2158 -1.2122  0.1797
   38CHL1   C18 2765   2.942   1.337   7.266  0.7172  0.0075 -1.0280
   38CHL1  H18A 2766   2.958   1.261   7.346 -1.6579 -2.5980 -2.9430
   38CHL1  H18B 2767   2.832   1.347   7.252  0.6762  0.6470 -0.3113
   38CHL1  H18C 2768   2.980   1.296   7.170 -1.2366 -0.2173 -1.7332
   38CHL1   C12 2769   2.922   1.575   7.191 -0.2920  0.0459 -0.1584
   38CHL1  H12A 2770   2.814   1.549   7.195 -0.3681 -0.3566 -3.3571
   38CHL1  H12B 2771   2.953   1.680   7.211 -0.4363  0.1101 -0.2746
   38CHL1   C11 2772   2.966   1.545   7.048  0.2272  1.2148 -0.3005
   38CHL1  H11A 2773   2.938   1.439   7.031 -1.2977  1.5370  0.1849
   38CHL1  H11B 2774   2.927   1.618   6.974  0.3920 -1.9634 -3.7149
   38CHL1    C9 2775   3.118   1.555   7.028  0.4293 -0.7298 -0.0045
   38CHL1    H9 2776   3.133   1.664   7.048 -2.3925  0.4108 -3.6036
   38CHL1   C10 2777   3.162   1.543   6.881 -0.3111 -0.2965  0.1437
   38CHL1   C19 2778   3.077   1.430   6.810 -0.2074  0.4866  0.6058
   38CHL1  H19A 2779   3.070   1.336   6.869 -2.0886  0.4586  0.3760
   38CHL1  H19B 2780   2.974   1.471   6.799 -0.5942 -0.7135 -0.2751
   38CHL1  H19C 2781   3.105   1.401   6.707  0.0785 -0.1284  0.8537
   38CHL1    C1 2782   3.130   1.672   6.811  0.1928  0.0563 -0.5592
   38CHL1   H1A 2783   3.023   1.698   6.824  0.3177  0.3981 -0.1972
   38CHL1   H1B 2784   3.180   1.758   6.860 -1.9916  0.9089  0.2424
   38CHL1    C2 2785   3.178   1.676   6.672 -0.0933 -0.5612  0.1102
   38CHL1   H2A 2786   3.160   1.779   6.634 -3.3959 -0.4512  1.7928
   38CHL1   H2B 2787   3.118   1.613   6.604  0.6575 -0.3032 -0.8047
   38CHL1   C20 2788   2.872   1.488   7.524 -0.6065  0.2488  0.2326
   38CHL1   H20 2789   2.824   1.390   7.502  0.7002  0.1635 -2.3984
   38CHL1   C21 2790   2.783   1.606   7.486 -0.4162 -0.2341  0.0294
   38CHL1  H21A 2791   2.748   1.606   7.381 -0.9174  1.5050  0.1882
   38CHL1  H21B 2792   2.825   1.707   7.503  0.1244 -0.4046 -0.2929
   38CHL1  H21C 2793   2.689   1.605   7.547  1.0812  0.7399  2.4210
   38CHL1   C22 2794   2.905   1.497   7.678  0.3325  0.7557  0.1807
   38CHL1  H22A 2795   2.981   1.424   7.713  0.7647  1.9868  1.8642
   38CHL1  H22B 2796   2.946   1.599   7.697  0.6619  0.5490  0.5997
   38CHL1   C23 2797   2.777   1.488   7.771 -0.0981  0.6608  0.1921
   38CHL1  H23A 2798   2.734   1.591   7.770 -1.4249  0.1055 -2.1826
   38CHL1  H23B 2799   2.699   1.423   7.727  0.6672  0.4643 -0.8847
   38CHL1   C24 2800   2.811   1.450   7.915  0.9434  0.7754  1.0149
   38CHL1  H24A 2801   2.873   1.358   7.914 -1.6898 -1.0653  1.3102
   38CHL1  H24B 2802   2.876   1.531   7.955  0.8694  0.5751  1.5420
   38CHL1   C25 2803   2.686   1.426   8.014  0.7999 -0.6015  0.7222
   38CHL1   H25 2804   2.622   1.515   7.997  0.6805 -0.7921  0.1634
   38CHL1   C26 2805   2.608   1.303   7.979 -0.2716  0.3596  0.6892
   38CHL1  H26A 2806   2.528   1.289   8.055 -1.9481  0.8531 -0.9300
   38CHL1  H26B 2807   2.570   1.305   7.874  0.9418  1.1637  0.2507
   38CHL1  H26C 2808   2.667   1.210   7.984  0.8920  0.9340 -1.5286
   38CHL1   C27 2809   2.733   1.433   8.160 -0.4257  0.8258 -0.9261
   38CHL1  H27A 2810   2.817   1.366   8.188 -1.0806 -0.0795 -1.1167
   38CHL1  H27B 2811   2.770   1.536   8.177 -1.1861  1.1370 -1.1211
   38CHL1  H27C 2812   2.644   1.399   8.216  0.6783 -5.5324 -2.5981
   39CHL1    C3 2813   2.661   0.601   6.773 -0.6744 -0.1588  0.5118
   39CHL1    H3 2814   2.758   0.638   6.732  0.7365 -0.3588  3.5174
   39CHL1    O3 2815   2.579   0.541   6.671  0.0596  0.0499  0.2225
   39CHL1   H3' 2816   2.497   0.526   6.718  0.0500  1.2077  0.5999
   39CHL1    C4 2817   2.682   0.499   6.886 -0.7481  0.1687 -0.4788
   39CHL1   H4A 2818   2.588   0.444   6.907  0.1200  0.2903  4.2857
   39CHL1   H4B 2819   2.755   0.423   6.851  0.7525  0.9598  0.8354
   39CHL1    C5 2820   2.722   0.565   7.022  1.0186  1.6269  0.3052
   39CHL1    C6 2821   2.837   0.524   7.081  0.0661 -0.1307  0.3592
   39CHL1    H6 2822   2.891   0.435   7.045  0.8268  0.4896 -0.0429
   39CHL1    C7 2823   2.890   0.579   7.213  0.2968 -0.9727  0.4092
   39CHL1   H7A 2824   2.902   0.501   7.291 -0.7668 -1.6040 -0.0512
   39CHL1   H7B 2825   2.987   0.629   7.189 -0.0941 -1.1950 -1.7288
   39CHL1    C8 2826   2.787   0.678   7.281  0.0544  0.2147  0.8968
   39CHL1    H8 2827   2.702   0.616   7.317 -0.3012  0.4057  0.4012
   39CHL1   C14 2828   2.855   0.757   7.385  0.0412 -0.0164  0.2292
   39CHL1   H14 2829   2.930   0.824   7.340 -0.4549 -0.5141 -1.3926
   39CHL1   C15 2830   2.926   0.685   7.496 -0.1709  0.2526 -0.5387
   39CHL1  H15A 2831   2.891   0.580   7.506 -1.7290  0.7355 -0.6958
   39CHL1  H15B 2832   3.033   0.676   7.470  0.3155  1.0077  1.1716
   39CHL1   C16 2833   2.912   0.765   7.625  0.2232 -0.0297 -0.1593
   39CHL1  H16A 2834   2.860   0.723   7.713 -0.8493 -0.2070 -0.8765
   39CHL1  H16B 2835   3.013   0.795   7.662  1.4875 -3.0298 -0.9399
   39CHL1   C17 2836   2.850   0.899   7.582 -0.2171 -0.0771  0.5989
   39CHL1   H17 2837   2.931   0.966   7.544 -1.3731  1.1287  0.2010
   39CHL1   C13 2838   2.759   0.851   7.463 -0.9348 -0.2464  0.6971
   39CHL1   C18 2839   2.633   0.788   7.517 -0.1315 -0.1366  0.6418
   39CHL1  H18A 2840   2.583   0.730   7.437  1.9287 -3.2287  1.5091
   39CHL1  H18B 2841   2.655   0.719   7.601 -0.9707 -1.5388 -0.2730
   39CHL1  H18C 2842   2.563   0.862   7.563  0.8302  2.2455 -1.5719
   39CHL1   C12 2843   2.727   0.954   7.359 -0.2358 -0.1697  1.3212
   39CHL1  H12A 2844   2.650   1.026   7.393  0.5733  1.0101  0.6670
   39CHL1  H12B 2845   2.812   1.017   7.326 -2.0198  2.5042  1.6755
   39CHL1   C11 2846   2.663   0.898   7.233 -0.0112 -1.2442 -1.4193
   39CHL1  H11A 2847   2.555   0.893   7.256 -0.2282  0.8434 -1.8824
   39CHL1  H11B 2848   2.660   0.971   7.149 -1.1885  1.0553  0.5673
   39CHL1    C9 2849   2.728   0.766   7.178  0.0307 -0.3375  0.7792
   39CHL1    H9 2850   2.814   0.816   7.127 -0.9382  3.8592  3.0308
   39CHL1   C10 2851   2.640   0.689   7.067 -0.1553  0.3604 -0.3152
   39CHL1   C19 2852   2.502   0.629   7.120 -0.4001 -0.3014  0.5633
   39CHL1  H19A 2853   2.450   0.721   7.153 -1.4873 -0.7313  0.0415
   39CHL1  H19B 2854   2.443   0.576   7.042  1.6781 -0.3178 -1.0678
   39CHL1  H19C 2855   2.516   0.554   7.201  1.7754 -2.0846 -1.3690
   39CHL1    C1 2856   2.622   0.780   6.948 -0.2649 -0.5890  0.6049
   39CHL1   H1A 2857   2.563   0.870   6.974 -1.3160 -1.4702  1.3405
   39CHL1   H1B 2858   2.722   0.820   6.921 -1.1226  1.3297  0.2226
   39CHL1    C2 2859   2.568   0.715   6.822 -0.6902 -0.6086  0.3376
   39CHL1   H2A 2860   2.545   0.784   6.738  0.2846 -2.0442 -1.1377
   39CHL1   H2B 2861   2.463   0.686   6.845 -2.2065  3.5163 -1.1210
   39CHL1   C20 2862   2.793   0.978   7.701 -0.1038  0.1129  1.0892
   39CHL1   H20 2863   2.703   0.924   7.736 -0.5994 -0.4403 -0.9423
   39CHL1   C21 2864   2.757   1.125   7.659 -0.1731  0.3095 -0.3610
   39CHL1  H21A 2865   2.709   1.187   7.739 -1.5060 -1.4775  0.2676
   39CHL1  H21B 2866   2.693   1.126   7.568  1.5085  0.2827 -1.5527
   39CHL1  H21C 2867   2.847   1.175   7.617  1.4279 -0.9734  1.4669
   39CHL1   C22 2868   2.884   0.991   7.831  0.1417  0.7903  0.4444
   39CHL1  H22A 2869   2.837   1.061   7.903  0.5208  1.1445  0.3515
   39CHL1  H22B 2870   2.897   0.890   7.874 -1.1981  0.0830 -0.7783
   39CHL1   C23 2871   3.021   1.058   7.802  0.0225  0.5946  0.2913
   39CHL1  H23A 2872   3.092   0.991   7.750 -0.7443 -0.8815  1.1077
   39CHL1  H23B 2873   3.009   1.143   7.732 -0.6996 -1.1009 -1.6690
   39CHL1   C24 2874   3.074   1.112   7.933 -0.2633  0.2823  0.2343
   39CHL1  H24A 2875   2.999   1.183   7.973 -0.0612 -0.9742  2.9564
   39CHL1  H24B 2876   3.067   1.025   8.002 -0.0528  1.3099  1.5604
   39CHL1   C25 2877   3.217   1.187   7.933 -1.0328  0.9968  0.6495
   39CHL1   H25 2878   3.247   1.210   8.037  0.7876 -2.3443  0.9494
   39CHL1   C26 2879   3.335   1.096   7.876 -0.3396  0.4139 -0.6284
   39CHL1  H26A 2880   3.433   1.148   7.873 -0.4862  0.6853 -0.7435
   39CHL1  H26B 2881   3.354   1.016   7.951 -3.5822  0.5063  0.3662
   39CHL1  H26C 2882   3.312   1.055   7.776  3.6360  0.5281 -1.6647
   39CHL1   C27 2883   3.216   1.320   7.854 -0.7998 -0.5068  0.1189
   39CHL1  H27A 2884   3.173   1.397   7.922 -0.1076  2.1057 -2.3295
   39CHL1  H27B 2885   3.321   1.347   7.830 -1.3853  0.8059 -1.0506
   39CHL1  H27C 2886   3.162   1.326   7.757 -1.4248 -0.3411  0.4712
   40CHL1    C3 2887   5.508   6.498   6.789  0.3893 -0.4635 -0.0142
   40CHL1    H3 2888   5.522   6.607   6.806 -2.0100 -0.3962  1.7770
   40CHL1    O3 2889   5.506   6.487   6.646  0.3592 -0.3261 -0.0174
   40CHL1   H3' 2890   5.471   6.399   6.630  3.0716 -1.4341 -0.1294
   40CHL1    C4 2891   5.629   6.421   6.840 -0.5632  0.2449  0.0143
   40CHL1   H4A 2892   5.623   6.316   6.806 -0.8439  0.5237 -0.8218
   40CHL1   H4B 2893   5.721   6.464   6.794 -0.0383  0.6653  1.4130
   40CHL1    C5 2894   5.629   6.418   6.990 -0.7116  0.1965 -0.3456
   40CHL1    C6 2895   5.730   6.475   7.055  0.0226 -0.2023 -0.7870
   40CHL1    H6 2896   5.809   6.512   6.988  1.1746 -0.8336  0.2024
   40CHL1    C7 2897   5.750   6.492   7.200 -0.6239 -0.7592  0.3426
   40CHL1   H7A 2898   5.853   6.453   7.220  0.1592  1.2367  0.2715
   40CHL1   H7B 2899   5.757   6.602   7.210  2.0911 -1.0026  1.9697
   40CHL1    C8 2900   5.638   6.411   7.280 -0.3315 -0.4122  0.2026
   40CHL1    H8 2901   5.664   6.303   7.284 -1.7996 -0.8050 -0.6611
   40CHL1   C14 2902   5.636   6.458   7.417  0.5008  0.2636 -1.0570
   40CHL1   H14 2903   5.601   6.564   7.424 -2.3363 -0.3220 -5.0784
   40CHL1   C15 2904   5.774   6.466   7.497  1.1552  0.1491 -0.4091
   40CHL1  H15A 2905   5.829   6.370   7.497  1.5289  0.3653 -0.6346
   40CHL1  H15B 2906   5.839   6.551   7.468  3.0346 -1.3351 -0.6118
   40CHL1   C16 2907   5.721   6.500   7.641 -0.2332  0.2765 -0.3789
   40CHL1  H16A 2908   5.779   6.440   7.714 -1.4169 -1.7603 -1.0720
   40CHL1  H16B 2909   5.736   6.606   7.673 -0.2029 -0.1254  0.9568
   40CHL1   C17 2910   5.567   6.459   7.647 -0.0563  0.1140 -0.7375
   40CHL1   H17 2911   5.500   6.548   7.639  0.2563  0.2104 -2.3195
   40CHL1   C13 2912   5.539   6.390   7.510  0.0219 -0.6811 -0.1531
   40CHL1   C18 2913   5.584   6.243   7.531  0.6445 -0.1392 -0.5030
   40CHL1  H18A 2914   5.685   6.250   7.575  0.0135  1.2633  0.7770
   40CHL1  H18B 2915   5.519   6.194   7.607  0.8737 -0.2862 -0.4025
   40CHL1  H18C 2916   5.584   6.193   7.432  0.5016  2.6636 -1.9882
   40CHL1   C12 2917   5.397   6.388   7.449  0.1151 -0.3567 -0.2520
   40CHL1  H12A 2918   5.338   6.318   7.512 -0.7429  1.2664  0.7674
   40CHL1  H12B 2919   5.340   6.483   7.452  0.9390  0.1328 -0.0419
   40CHL1   C11 2920   5.400   6.343   7.300  0.3681 -0.2925  0.2188
   40CHL1  H11A 2921   5.441   6.240   7.300  0.3056 -0.3365 -1.5503
   40CHL1  H11B 2922   5.302   6.339   7.248  0.8573 -0.9120 -0.6858
   40CHL1    C9 2923   5.500   6.418   7.213  0.1866  0.4867 -0.2077
   40CHL1    H9 2924   5.475   6.526   7.225 -1.0254  0.0926  0.9694
   40CHL1   C10 2925   5.499   6.380   7.060  0.6350  0.2656 -0.0955
   40CHL1   C19 2926   5.482   6.230   7.045  0.0140  0.2411  0.1242
   40CHL1  H19A 2927   5.502   6.190   6.943 -1.0315 -1.6778  0.6481
   40CHL1  H19B 2928   5.535   6.175   7.124  1.3183  1.8835  0.4268
   40CHL1  H19C 2929   5.375   6.211   7.068  0.1828 -1.1000 -0.1544
   40CHL1    C1 2930   5.377   6.458   6.996  0.6171  0.7091 -0.0620
   40CHL1   H1A 2931   5.285   6.405   7.028  1.9437 -2.1342 -0.8287
   40CHL1   H1B 2932   5.384   6.562   7.035 -2.0928  0.2999  1.6429
   40CHL1    C2 2933   5.375   6.448   6.845  0.1216  0.2003  0.5064
   40CHL1   H2A 2934   5.295   6.511   6.800  0.9313  2.2837  1.8772
   40CHL1   H2B 2935   5.360   6.342   6.816  1.8611  0.1036 -0.0830
   40CHL1   C20 2936   5.539   6.406   7.791  0.2834  0.0107 -0.0448
   40CHL1   H20 2937   5.598   6.312   7.791  0.2997 -0.0165  2.7553
   40CHL1   C21 2938   5.389   6.371   7.804  0.8668  0.3947 -0.1080
   40CHL1  H21A 2939   5.324   6.461   7.794  0.1332 -0.1297 -0.1106
   40CHL1  H21B 2940   5.355   6.312   7.892 -1.2411  1.7809  0.0468
   40CHL1  H21C 2941   5.359   6.311   7.716 -1.7570  2.4210 -0.6585
   40CHL1   C22 2942   5.592   6.496   7.908 -0.3896  0.0615  0.3178
   40CHL1  H22A 2943   5.695   6.532   7.889  0.3982 -2.1787  0.1800
   40CHL1  H22B 2944   5.522   6.582   7.916  0.2042  0.5831 -0.0678
   40CHL1   C23 2945   5.604   6.422   8.040  0.1326  0.2442 -0.5771
   40CHL1  H23A 2946   5.506   6.381   8.074 -0.1341  0.6820 -0.8144
   40CHL1  H23B 2947   5.674   6.340   8.013  0.3227  0.1775  0.1118
   40CHL1   C24 2948   5.668   6.508   8.158  0.7461  0.0473  0.3855
   40CHL1  H24A 2949   5.768   6.539   8.118  1.9106 -1.5641  1.9670
   40CHL1  H24B 2950   5.594   6.587   8.184 -0.4925 -1.0376  0.1688
   40CHL1   C25 2951   5.696   6.422   8.283 -0.0753  0.0040 -0.0602
   40CHL1   H25 2952   5.695   6.313   8.263 -0.4221  0.0523 -0.3178
   40CHL1   C26 2953   5.849   6.449   8.338  1.1827  0.1416 -0.1568
   40CHL1  H26A 2954   5.893   6.375   8.408  0.4245 -0.0189  0.1602
   40CHL1  H26B 2955   5.920   6.440   8.253  0.4262 -2.2740 -0.5836
   40CHL1  H26C 2956   5.863   6.551   8.380 -1.1651  0.6062 -0.4211
   40CHL1   C27 2957   5.595   6.463   8.398  0.2638  0.6028 -0.8434
   40CHL1  H27A 2958   5.616   6.569   8.424 -0.1542  0.2948  0.7720
   40CHL1  H27B 2959   5.490   6.448   8.365 -0.7821 -0.5058  2.8143
   40CHL1  H27C 2960   5.612   6.404   8.490  0.2933  0.1651 -1.1234
   41CHL1    C3 2961   6.320   6.466   7.033 -0.1601 -0.1850 -0.0695
   41CHL1    H3 2962   6.235   6.523   7.077  1.0856  1.1321  0.6676
   41CHL1    O3 2963   6.312   6.500   6.894  0.2472 -0.1724 -0.0662
   41CHL1   H3' 2964   6.404   6.504   6.866  0.7182 -1.5904  1.2460
   41CHL1    C4 2965   6.450   6.516   7.097 -0.5979 -0.2951 -0.1734
   41CHL1   H4A 2966   6.534   6.465   7.045 -0.7718  0.6678 -1.4554
   41CHL1   H4B 2967   6.456   6.625   7.073  2.1992  0.0593  1.9934
   41CHL1    C5 2968   6.444   6.480   7.247 -0.5355  0.1603 -0.7228
   41CHL1    C6 2969   6.457   6.566   7.343  0.2942 -0.5553  1.0099
   41CHL1    H6 2970   6.480   6.670   7.315 -1.5781 -0.6766 -1.1434
   41CHL1    C7 2971   6.440   6.533   7.489 -0.6447  1.1088  0.3357
   41CHL1   H7A 2972   6.496   6.603   7.554  0.8700  1.0967 -0.9355
   41CHL1   H7B 2973   6.330   6.544   7.505 -0.6544 -1.1376  2.2073
   41CHL1    C8 2974   6.465   6.379   7.519  0.2115  0.0986  0.1589
   41CHL1    H8 2975   6.572   6.363   7.495 -0.1563  0.6559 -2.0000
   41CHL1   C14 2976   6.436   6.337   7.658  0.3126  0.0384 -0.1991
   41CHL1   H14 2977   6.327   6.355   7.670 -0.4936 -3.3580 -2.0213
   41CHL1   C15 2978   6.513   6.408   7.770 -0.6343  0.6922  0.4423
   41CHL1  H15A 2979   6.621   6.389   7.752 -0.8542 -2.9320  2.3846
   41CHL1  H15B 2980   6.482   6.514   7.765 -0.6513  0.6966  0.6523
   41CHL1   C16 2981   6.484   6.328   7.904 -0.0781 -0.6415 -0.3178
   41CHL1  H16A 2982   6.581   6.316   7.956 -0.0777  1.0071  0.1112
   41CHL1  H16B 2983   6.409   6.382   7.966  1.8891  0.3648  1.2408
   41CHL1   C17 2984   6.425   6.190   7.849  0.1592  0.2655  0.1977
   41CHL1   H17 2985   6.314   6.202   7.854 -0.0577 -0.5267 -2.1452
   41CHL1   C13 2986   6.450   6.186   7.700 -0.9970  0.7957 -0.6588
   41CHL1   C18 2987   6.594   6.133   7.664 -0.1666  0.1794 -0.0921
   41CHL1  H18A 2988   6.586   6.026   7.638 -1.2927  0.3329 -0.3977
   41CHL1  H18B 2989   6.629   6.193   7.578 -0.5079  2.3745  1.2541
   41CHL1  H18C 2990   6.662   6.156   7.749  1.4110  0.1618 -1.3196
   41CHL1   C12 2991   6.338   6.115   7.619  0.3129 -0.5782 -0.6473
   41CHL1  H12A 2992   6.328   6.005   7.630 -0.2488 -0.5289 -0.6581
   41CHL1  H12B 2993   6.239   6.154   7.651  1.7037  2.0622  0.6497
   41CHL1   C11 2994   6.361   6.144   7.464  0.5653 -0.5821 -0.0521
   41CHL1  H11A 2995   6.458   6.098   7.437 -0.6857 -3.1124 -0.3599
   41CHL1  H11B 2996   6.276   6.099   7.408 -0.9954  0.3916  1.4470
   41CHL1    C9 2997   6.380   6.294   7.424  0.0975 -0.8223  0.1820
   41CHL1    H9 2998   6.276   6.327   7.441  0.8871  2.1349 -0.4156
   41CHL1   C10 2999   6.417   6.325   7.279  0.2417 -0.5186 -0.2535
   41CHL1   C19 3000   6.553   6.254   7.243 -0.2328 -0.2174  0.0610
   41CHL1  H19A 3001   6.538   6.144   7.242 -1.3557 -0.0750 -1.6016
   41CHL1  H19B 3002   6.594   6.288   7.146  0.8906  0.8860  0.9082
   41CHL1  H19C 3003   6.624   6.285   7.323  0.5706  0.5656 -0.9382
   41CHL1    C1 3004   6.312   6.266   7.186 -0.3395 -0.6589 -0.2157
   41CHL1   H1A 3005   6.327   6.157   7.194 -0.6659 -0.7275 -0.5584
   41CHL1   H1B 3006   6.216   6.299   7.232 -0.3973  0.8657 -1.3639
   41CHL1    C2 3007   6.317   6.313   7.042  1.1149  0.0994  1.4152
   41CHL1   H2A 3008   6.241   6.261   6.980  1.0217  2.4119 -0.4631
   41CHL1   H2B 3009   6.414   6.270   7.008  0.7684 -0.6495  1.3536
   41CHL1   C20 3010   6.466   6.069   7.937 -0.3603 -0.6014 -0.1086
   41CHL1   H20 3011   6.576   6.070   7.953 -0.3962  0.9408  0.1877
   41CHL1   C21 3012   6.423   5.937   7.869  0.0858 -0.3726 -0.0893
   41CHL1  H21A 3013   6.460   5.853   7.930 -2.1941 -1.4301 -0.1310
   41CHL1  H21B 3014   6.467   5.926   7.767 -0.6189  1.2162 -0.5840
   41CHL1  H21C 3015   6.314   5.918   7.864  0.0887 -0.0392 -2.1897
   41CHL1   C22 3016   6.404   6.082   8.075  0.3329 -0.3719  0.1649
   41CHL1  H22A 3017   6.444   6.178   8.114  0.5447  0.7371 -2.6887
   41CHL1  H22B 3018   6.295   6.099   8.060 -0.1335 -1.9242  1.5340
   41CHL1   C23 3019   6.416   5.965   8.176  0.3643  0.4948  0.5735
   41CHL1  H23A 3020   6.374   6.011   8.268 -1.0066  3.2142 -1.3151
   41CHL1  H23B 3021   6.352   5.884   8.136  0.5792  0.5040  0.2088
   41CHL1   C24 3022   6.564   5.926   8.211 -0.2673  0.3495  0.1418
   41CHL1  H24A 3023   6.613   5.894   8.117 -0.6538  1.0250 -0.2908
   41CHL1  H24B 3024   6.617   6.012   8.259  0.9051  0.4863 -1.3479
   41CHL1   C25 3025   6.594   5.799   8.296  0.7623  0.0068 -0.0734
   41CHL1   H25 3026   6.526   5.801   8.384  0.0152 -0.0966 -0.6467
   41CHL1   C26 3027   6.562   5.671   8.219  0.5682 -0.3527  0.1826
   41CHL1  H26A 3028   6.626   5.671   8.128  0.0671 -0.7128 -0.1787
   41CHL1  H26B 3029   6.589   5.572   8.262 -2.5469 -1.5403 -0.4122
   41CHL1  H26C 3030   6.453   5.663   8.199  0.5280  0.2317  0.1700
   41CHL1   C27 3031   6.738   5.805   8.344  0.1327  1.1351 -0.2895
   41CHL1  H27A 3032   6.759   5.901   8.396 -0.2915 -0.3034  2.6596
   41CHL1  H27B 3033   6.765   5.722   8.413  1.0075  0.4553 -1.4134
   41CHL1  H27C 3034   6.811   5.794   8.260 -0.3048 -3.9355 -0.1912
   42CHL1    C3 3035   0.964   3.710   6.964 -0.8139 -0.9155  0.6326
   42CHL1    H3 3036   0.988   3.813   6.931 -2.2210 -0.9547 -0.5764
   42CHL1    O3 3037   0.982   3.627   6.847  0.8158 -0.1280  0.4343
   42CHL1   H3' 3038   1.076   3.610   6.832  1.0449  0.5502  1.1036
   42CHL1    C4 3039   1.054   3.661   7.074  0.2447 -0.3860 -0.1303
   42CHL1   H4A 3040   1.018   3.558   7.091 -3.2740  0.7372 -0.2974
   42CHL1   H4B 3041   1.156   3.656   7.031 -0.2587 -0.4201 -1.3531
   42CHL1    C5 3042   1.045   3.743   7.202 -0.8794 -0.2949  0.1070
   42CHL1    C6 3043   1.151   3.801   7.250  0.0112  0.5991 -0.0072
   42CHL1    H6 3044   1.249   3.775   7.208 -0.3978 -1.0080  0.0089
   42CHL1    C7 3045   1.142   3.879   7.378 -0.8990 -0.0175 -0.8548
   42CHL1   H7A 3046   1.220   3.831   7.442 -0.6452  0.2924 -0.9337
   42CHL1   H7B 3047   1.168   3.984   7.354 -2.2880  1.0258  1.9689
   42CHL1    C8 3048   1.016   3.865   7.461 -0.2301 -0.1457 -0.6846
   42CHL1    H8 3049   1.029   3.770   7.517  1.5587  0.0633 -0.7256
   42CHL1   C14 3050   1.000   3.962   7.574 -0.4635 -0.4078  0.0223
   42CHL1   H14 3051   0.993   4.067   7.538  1.5925 -0.1908  0.1736
   42CHL1   C15 3052   1.120   3.984   7.679  0.4968  0.0686 -0.1332
   42CHL1  H15A 3053   1.159   3.883   7.706 -0.1913  0.7014  3.5961
   42CHL1  H15B 3054   1.211   4.035   7.641  0.8653 -0.2627  0.2899
   42CHL1   C16 3055   1.050   4.051   7.798 -0.1105 -0.4436  0.8966
   42CHL1  H16A 3056   1.090   3.993   7.885  3.6103 -0.8031 -0.9221
   42CHL1  H16B 3057   1.070   4.160   7.801 -2.5428  0.0794 -0.5457
   42CHL1   C17 3058   0.893   4.035   7.780 -0.1635  0.0083 -0.1623
   42CHL1   H17 3059   0.861   4.136   7.745 -0.8777 -0.7316 -1.7302
   42CHL1   C13 3060   0.874   3.938   7.662  0.6745  1.3569 -0.4231
   42CHL1   C18 3061   0.874   3.799   7.723  0.4962 -0.2893  0.3061
   42CHL1  H18A 3062   0.960   3.780   7.791 -1.0181 -3.7939  1.3554
   42CHL1  H18B 3063   0.800   3.771   7.802 -0.0985  1.1916  0.2969
   42CHL1  H18C 3064   0.891   3.714   7.654  0.4761 -2.0951  2.4467
   42CHL1   C12 3065   0.757   3.967   7.570  0.2656 -1.0403  0.4316
   42CHL1  H12A 3066   0.662   3.950   7.625 -0.5353  2.4551  0.2402
   42CHL1  H12B 3067   0.764   4.068   7.524  0.4866 -0.6926  1.2259
   42CHL1   C11 3068   0.760   3.867   7.450 -0.2461 -0.0028  0.3516
   42CHL1  H11A 3069   0.738   3.765   7.486  0.0248 -0.1183  0.1869
   42CHL1  H11B 3070   0.684   3.902   7.376  2.7269  1.1316 -2.3028
   42CHL1    C9 3071   0.891   3.866   7.374 -0.2060  0.2522  0.7323
   42CHL1    H9 3072   0.894   3.965   7.322  0.2819  0.3791  0.9900
   42CHL1   C10 3073   0.898   3.765   7.252 -0.2931 -0.6504  0.1472
   42CHL1   C19 3074   0.852   3.618   7.310 -0.0097 -0.4104 -0.6451
   42CHL1  H19A 3075   0.748   3.604   7.347  1.2483 -2.4115  2.4012
   42CHL1  H19B 3076   0.864   3.541   7.230  1.0917 -1.9443  0.9352
   42CHL1  H19C 3077   0.915   3.586   7.396  0.7842  3.0684  0.1417
   42CHL1    C1 3078   0.802   3.799   7.145 -1.1580 -0.1543  0.2203
   42CHL1   H1A 3079   0.698   3.784   7.182 -1.5298 -1.5048 -1.3277
   42CHL1   H1B 3080   0.825   3.906   7.125  2.0491 -0.4528  1.8808
   42CHL1    C2 3081   0.817   3.723   7.008  0.3940  0.2125 -0.1823
   42CHL1   H2A 3082   0.756   3.771   6.929  0.3375 -0.7403 -0.7206
   42CHL1   H2B 3083   0.771   3.623   7.024 -0.4100  0.6526  0.2927
   42CHL1   C20 3084   0.816   4.009   7.912 -0.0587  0.1753  0.2712
   42CHL1   H20 3085   0.830   3.906   7.950  2.2386  1.0433  1.8943
   42CHL1   C21 3086   0.671   4.021   7.876  0.7086 -0.3984  0.2556
   42CHL1  H21A 3087   0.607   4.038   7.966 -0.1404  0.4195 -0.4867
   42CHL1  H21B 3088   0.626   3.927   7.839 -1.3997  0.5552  0.3002
   42CHL1  H21C 3089   0.646   4.107   7.809  0.2535 -0.8801 -0.2043
   42CHL1   C22 3090   0.865   4.108   8.017  0.6169 -0.6423  0.1213
   42CHL1  H22A 3091   0.975   4.103   8.031  0.8771  1.6026 -0.8683
   42CHL1  H22B 3092   0.843   4.212   7.986  3.2148  0.3593  1.4906
   42CHL1   C23 3093   0.808   4.067   8.151 -0.1984  0.1614 -0.4232
   42CHL1  H23A 3094   0.698   4.077   8.146 -0.1506  1.2743  0.4742
   42CHL1  H23B 3095   0.825   3.958   8.164 -0.7803  0.2382  1.0327
   42CHL1   C24 3096   0.871   4.139   8.267 -1.2035  0.2129 -0.2880
   42CHL1  H24A 3097   0.980   4.121   8.260 -1.2065 -0.4296  1.1417
   42CHL1  H24B 3098   0.837   4.244   8.259 -2.1050  0.0484  1.1804
   42CHL1   C25 3099   0.825   4.087   8.407 -0.4601  0.4488 -1.1459
   42CHL1   H25 3100   0.820   3.976   8.395  2.0091  0.0812  0.6269
   42CHL1   C26 3101   0.912   4.118   8.533  0.4848 -0.1827  0.6373
   42CHL1  H26A 3102   0.926   4.228   8.539  2.2316 -0.3562 -0.1328
   42CHL1  H26B 3103   0.858   4.070   8.618 -1.3803  1.7084  0.5527
   42CHL1  H26C 3104   1.013   4.071   8.526  0.5544  0.0604  0.0165
   42CHL1   C27 3105   0.686   4.133   8.438 -0.0365  0.1534  0.7828
   42CHL1  H27A 3106   0.654   4.093   8.537  2.4842 -0.3545  1.4136
   42CHL1  H27B 3107   0.610   4.102   8.363  1.5126  1.3457 -1.2974
   42CHL1  H27C 3108   0.663   4.241   8.440  0.6052  0.3181 -0.5545
   43CHL1    C3 3109   0.547   0.679   6.916 -1.2719 -0.2061 -0.0935
   43CHL1    H3 3110   0.448   0.726   6.933 -0.4153  2.2654 -1.7609
   43CHL1    O3 3111   0.559   0.653   6.780  0.2690  0.1099  0.7971
   43CHL1   H3' 3112   0.648   0.620   6.762  0.5903  1.5537 -0.3505
   43CHL1    C4 3113   0.666   0.760   6.966 -0.2289  0.3020 -0.3117
   43CHL1   H4A 3114   0.766   0.722   6.937  0.9513  0.7020  3.0392
   43CHL1   H4B 3115   0.664   0.854   6.907 -0.4302 -1.0452 -2.5227
   43CHL1    C5 3116   0.660   0.777   7.123  0.3823 -0.0560  0.0775
   43CHL1    C6 3117   0.652   0.892   7.192 -0.6172  0.1268  0.9231
   43CHL1    H6 3118   0.673   0.980   7.129  1.0451  0.7809  2.3229
   43CHL1    C7 3119   0.653   0.912   7.339 -0.0629 -0.5240  0.2762
   43CHL1   H7A 3120   0.726   0.991   7.367 -1.3160  0.7353  0.0538
   43CHL1   H7B 3121   0.556   0.951   7.376  0.7070 -0.3507  2.1985
   43CHL1    C8 3122   0.674   0.782   7.421  0.4107  0.9008 -0.0940
   43CHL1    H8 3123   0.784   0.767   7.411  0.4304  1.6701 -1.0823
   43CHL1   C14 3124   0.632   0.785   7.563  0.2523 -0.6620 -0.4042
   43CHL1   H14 3125   0.522   0.798   7.556  0.3659 -0.4302 -1.8352
   43CHL1   C15 3126   0.671   0.908   7.658  0.4537  0.3243 -0.2071
   43CHL1  H15A 3127   0.779   0.933   7.657  0.9599 -1.7873 -0.5248
   43CHL1  H15B 3128   0.607   0.996   7.634  0.3745  1.3815  3.5072
   43CHL1   C16 3129   0.625   0.858   7.797  0.1715 -0.2672 -0.3590
   43CHL1  H16A 3130   0.703   0.879   7.874 -1.6361 -0.6821  1.6324
   43CHL1  H16B 3131   0.528   0.902   7.829  1.2842  1.5602  0.5636
   43CHL1   C17 3132   0.602   0.705   7.782  0.6915  0.0686  0.0038
   43CHL1   H17 3133   0.493   0.694   7.770  0.5596 -1.3748  2.2094
   43CHL1   C13 3134   0.661   0.669   7.648 -1.3477 -0.6085  0.0784
   43CHL1   C18 3135   0.812   0.642   7.665 -0.8945  0.0608 -0.5975
   43CHL1  H18A 3136   0.838   0.552   7.725 -0.4329  1.0393  0.7065
   43CHL1  H18B 3137   0.876   0.652   7.575  1.9809 -0.8887  1.2646
   43CHL1  H18C 3138   0.850   0.716   7.739 -3.9073 -0.9871  2.1277
   43CHL1   C12 3139   0.599   0.541   7.574  0.0137 -0.7745 -0.1343
   43CHL1  H12A 3140   0.624   0.447   7.628  0.8978 -0.0488  0.7322
   43CHL1  H12B 3141   0.489   0.558   7.580 -0.2892 -2.5252 -0.3178
   43CHL1   C11 3142   0.653   0.536   7.430 -0.0449  0.0086 -0.2665
   43CHL1  H11A 3143   0.764   0.539   7.435  0.0110  1.0844 -1.7523
   43CHL1  H11B 3144   0.616   0.446   7.375  1.2547  0.1467 -1.4254
   43CHL1    C9 3145   0.610   0.660   7.350  0.4602 -0.4392  0.1670
   43CHL1    H9 3146   0.501   0.677   7.350  0.4771 -0.2881  1.2272
   43CHL1   C10 3147   0.653   0.643   7.199 -0.4672 -0.2601 -0.0902
   43CHL1   C19 3148   0.800   0.588   7.195  0.1138  0.5958 -0.2819
   43CHL1  H19A 3149   0.864   0.647   7.264  0.4275 -0.4016  0.2818
   43CHL1  H19B 3150   0.798   0.482   7.229 -0.6679  1.5387  2.7156
   43CHL1  H19C 3151   0.839   0.586   7.091 -0.9783 -0.5829 -0.6908
   43CHL1    C1 3152   0.554   0.548   7.130  0.0649  0.3264 -0.3719
   43CHL1   H1A 3153   0.557   0.445   7.171 -0.3187  0.0280 -1.0996
   43CHL1   H1B 3154   0.449   0.584   7.139 -0.4361 -1.3067  0.6776
   43CHL1    C2 3155   0.555   0.535   6.975 -0.0618 -0.3705  0.3979
   43CHL1   H2A 3156   0.466   0.475   6.946  1.0144 -2.4979  1.3273
   43CHL1   H2B 3157   0.643   0.473   6.950 -0.7689 -1.0933 -0.3125
   43CHL1   C20 3158   0.646   0.636   7.915 -0.2057  0.6840 -0.4733
   43CHL1   H20 3159   0.756   0.646   7.922 -0.0607 -0.2912 -1.2196
   43CHL1   C21 3160   0.604   0.482   7.910 -0.0336 -0.2786  0.7889
   43CHL1  H21A 3161   0.494   0.469   7.909  0.1485 -2.2077  2.1042
   43CHL1  H21B 3162   0.632   0.422   7.999  0.6606  0.5877  1.1574
   43CHL1  H21C 3163   0.635   0.438   7.813 -3.7342  1.1339 -1.1209
   43CHL1   C22 3164   0.580   0.698   8.045  0.4144  0.1074 -0.4792
   43CHL1  H22A 3165   0.609   0.805   8.050 -0.9408  0.3814  2.2681
   43CHL1  H22B 3166   0.470   0.692   8.035  0.2908 -0.1053  0.8633
   43CHL1   C23 3167   0.637   0.625   8.170 -0.3211 -0.2867 -0.1810
   43CHL1  H23A 3168   0.579   0.530   8.177 -0.1703 -0.2874  1.2993
   43CHL1  H23B 3169   0.747   0.616   8.167 -0.3489 -0.2630 -1.9222
   43CHL1   C24 3170   0.600   0.710   8.303  0.2353  0.2262  0.1239
   43CHL1  H24A 3171   0.654   0.807   8.311  1.2727 -0.4293  1.2868
   43CHL1  H24B 3172   0.493   0.740   8.303  0.1074 -0.2294  0.6616
   43CHL1   C25 3173   0.617   0.624   8.434  0.1142 -0.2529 -0.1979
   43CHL1   H25 3174   0.577   0.524   8.407 -0.7882 -0.1139  0.5940
   43CHL1   C26 3175   0.768   0.611   8.478 -0.0810 -0.1295 -0.2516
   43CHL1  H26A 3176   0.798   0.521   8.534  1.0205  0.8560  0.7574
   43CHL1  H26B 3177   0.830   0.616   8.386  2.8678  0.0729  1.6809
   43CHL1  H26C 3178   0.807   0.705   8.522 -0.9918  0.3136 -0.3603
   43CHL1   C27 3179   0.538   0.679   8.544  0.2573  0.1054  0.4026
   43CHL1  H27A 3180   0.432   0.694   8.517  0.5290 -0.0999 -0.8085
   43CHL1  H27B 3181   0.548   0.614   8.634  0.8600 -2.3927 -1.4045
   43CHL1  H27C 3182   0.580   0.778   8.571  0.6438  0.7741 -2.5418
   44CHL1    C3 3183   0.479   5.882   6.651  0.3187 -0.0987 -0.1540
   44CHL1    H3 3184   0.370   5.900   6.664  0.2832  0.2631 -0.8992
   44CHL1    O3 3185   0.487   5.831   6.520  0.0711 -0.0943  0.5103
   44CHL1   H3' 3186   0.579   5.815   6.500  0.0816  0.8535 -0.2287
   44CHL1    C4 3187   0.570   5.999   6.667  0.3745  0.2418  0.2036
   44CHL1   H4A 3188   0.670   5.983   6.621  0.3725 -0.0771  0.3107
   44CHL1   H4B 3189   0.517   6.068   6.598 -2.0228 -0.3372  1.4057
   44CHL1    C5 3190   0.572   6.059   6.809 -0.4543  0.0477 -0.4477
   44CHL1    C6 3191   0.556   6.184   6.839 -0.4568 -0.3568  0.5262
   44CHL1    H6 3192   0.552   6.257   6.756  0.1183 -1.5603 -0.5768
   44CHL1    C7 3193   0.570   6.244   6.977  0.7941  0.2208 -0.5707
   44CHL1   H7A 3194   0.632   6.336   6.986  1.0732  0.1296 -1.5259
   44CHL1   H7B 3195   0.467   6.275   7.004  1.2329  0.6754  0.6477
   44CHL1    C8 3196   0.621   6.151   7.085  0.1933  0.4075  0.6104
   44CHL1    H8 3197   0.730   6.144   7.067  0.0723  1.1439 -0.4641
   44CHL1   C14 3198   0.591   6.201   7.225 -0.2473 -0.0192 -0.4526
   44CHL1   H14 3199   0.481   6.209   7.220 -0.2004  1.4818  0.7855
   44CHL1   C15 3200   0.634   6.344   7.259  0.0403 -0.0719  0.6294
   44CHL1  H15A 3201   0.741   6.355   7.230 -0.4094 -1.7056 -1.8117
   44CHL1  H15B 3202   0.584   6.423   7.200  0.4890 -0.9033 -0.8991
   44CHL1   C16 3203   0.608   6.353   7.410 -0.7321 -0.7838  0.5374
   44CHL1  H16A 3204   0.694   6.400   7.463 -1.6451  1.9412 -0.3123
   44CHL1  H16B 3205   0.522   6.418   7.436 -0.4567 -0.4962  0.7282
   44CHL1   C17 3206   0.581   6.206   7.456 -0.5887 -0.2315 -0.3429
   44CHL1   H17 3207   0.471   6.193   7.457 -0.6699  0.3843  1.3356
   44CHL1   C13 3208   0.631   6.109   7.345  0.3968  0.1422  0.5464
   44CHL1   C18 3209   0.780   6.092   7.343  0.0281  0.2525 -0.3768
   44CHL1  H18A 3210   0.815   6.012   7.411  0.0200  2.1228  1.9183
   44CHL1  H18B 3211   0.824   6.064   7.245  1.0819  0.0274  0.1609
   44CHL1  H18C 3212   0.825   6.193   7.355  1.2793 -0.4321  0.8301
   44CHL1   C12 3213   0.555   5.978   7.325  0.6283  0.2747  0.7604
   44CHL1  H12A 3214   0.585   5.907   7.405  1.8603 -0.5342 -0.3909
   44CHL1  H12B 3215   0.446   5.998   7.324  0.7383  0.9188 -1.7483
   44CHL1   C11 3216   0.581   5.917   7.183  0.6441 -0.0110 -0.1287
   44CHL1  H11A 3217   0.688   5.890   7.183  0.3106 -1.3957 -1.3264
   44CHL1  H11B 3218   0.514   5.830   7.168 -1.6170  1.5046  0.7929
   44CHL1    C9 3219   0.561   6.008   7.062  0.0773 -0.0701  0.5270
   44CHL1    H9 3220   0.451   6.023   7.057  0.1366  0.4918  0.8797
   44CHL1   C10 3221   0.600   5.950   6.920  0.3587 -0.1793 -0.6461
   44CHL1   C19 3222   0.744   5.893   6.922  0.4503 -0.1538 -0.1189
   44CHL1  H19A 3223   0.821   5.973   6.917  0.5489 -0.1802  0.8821
   44CHL1  H19B 3224   0.768   5.830   7.010  2.7457  0.2174 -0.4449
   44CHL1  H19C 3225   0.762   5.833   6.831 -0.5381  1.5465 -1.4806
   44CHL1    C1 3226   0.502   5.836   6.894  0.1162  0.0124  0.1976
   44CHL1   H1A 3227   0.531   5.757   6.967  0.9761 -0.5553 -0.7448
   44CHL1   H1B 3228   0.396   5.865   6.907  0.3810  0.0124  2.6467
   44CHL1    C2 3229   0.507   5.771   6.757 -0.4474  0.1400  0.2249
   44CHL1   H2A 3230   0.447   5.678   6.753  0.1946 -0.1618 -3.1417
   44CHL1   H2B 3231   0.608   5.732   6.731 -0.9246 -0.8445 -0.1634
   44CHL1   C20 3232   0.626   6.183   7.599 -0.7015 -0.4395  0.0471
   44CHL1   H20 3233   0.737   6.184   7.608 -0.8893 -0.6991  3.1208
   44CHL1   C21 3234   0.587   6.037   7.643  0.0869  0.2873  0.5418
   44CHL1  H21A 3235   0.613   6.024   7.750  1.8830  0.2551  0.1178
   44CHL1  H21B 3236   0.641   5.963   7.580  1.5854  1.9817 -0.1968
   44CHL1  H21C 3237   0.479   6.016   7.630  0.0398  0.4202  0.7295
   44CHL1   C22 3238   0.576   6.283   7.706  0.2337  0.0471 -0.0128
   44CHL1  H22A 3239   0.590   6.389   7.676 -0.9540  1.0130  2.6792
   44CHL1  H22B 3240   0.466   6.271   7.711  0.2169 -0.1507 -0.7956
   44CHL1   C23 3241   0.636   6.264   7.851 -0.2214 -0.3787  0.1540
   44CHL1  H23A 3242   0.606   6.165   7.891 -1.4987 -0.2167 -0.3636
   44CHL1  H23B 3243   0.746   6.263   7.832 -0.2967 -2.0248 -0.3172
   44CHL1   C24 3244   0.606   6.375   7.951  0.6520  0.3103  0.2231
   44CHL1  H24A 3245   0.626   6.473   7.902 -0.4921 -0.4905 -1.9100
   44CHL1  H24B 3246   0.499   6.355   7.974  0.5627  1.2479  0.6781
   44CHL1   C25 3247   0.675   6.344   8.086  0.1098 -0.3452  0.3246
   44CHL1   H25 3248   0.691   6.234   8.090  2.9217  0.0260  0.0670
   44CHL1   C26 3249   0.816   6.398   8.091  0.5042 -0.3133  0.3900
   44CHL1  H26A 3250   0.863   6.364   8.186  0.4592 -0.5366  0.3337
   44CHL1  H26B 3251   0.877   6.364   8.005 -1.8197 -0.4247 -1.2800
   44CHL1  H26C 3252   0.815   6.509   8.090  1.0337 -0.3171 -0.6327
   44CHL1   C27 3253   0.596   6.390   8.206 -0.2596  0.0986  0.8535
   44CHL1  H27A 3254   0.646   6.349   8.297  0.5205 -0.6660  0.0888
   44CHL1  H27B 3255   0.589   6.499   8.221 -0.8145  0.1663  0.0718
   44CHL1  H27C 3256   0.492   6.356   8.191 -0.5622  0.2714  2.4244
   45CHL1    C3 3257   1.299   4.460   6.911 -0.2308  0.5770  0.0550
   45CHL1    H3 3258   1.193   4.489   6.930 -0.5974 -0.6955  0.0245
   45CHL1    O3 3259   1.314   4.421   6.779  0.5277  0.0631 -0.6380
   45CHL1   H3' 3260   1.406   4.436   6.756  0.3449  0.9801 -0.8023
   45CHL1    C4 3261   1.374   4.593   6.939 -0.2519  0.0744  0.4934
   45CHL1   H4A 3262   1.484   4.590   6.919  0.0230 -0.0075  1.9579
   45CHL1   H4B 3263   1.341   4.672   6.869 -0.6109 -0.7979 -0.3421
   45CHL1    C5 3264   1.347   4.635   7.084 -0.0781 -0.3687 -0.1351
   45CHL1    C6 3265   1.281   4.745   7.114 -0.0535 -0.7432  0.3214
   45CHL1    H6 3266   1.242   4.810   7.034  0.6117  0.1118  0.6798
   45CHL1    C7 3267   1.279   4.799   7.258 -0.0487  0.4055 -0.2831
   45CHL1   H7A 3268   1.311   4.905   7.261 -0.5320  0.5576 -0.4818
   45CHL1   H7B 3269   1.179   4.792   7.307  0.5076  3.0243  1.3303
   45CHL1    C8 3270   1.380   4.726   7.351  0.1434  0.2900 -0.4531
   45CHL1    H8 3271   1.487   4.751   7.335  1.0127 -1.2078  2.5235
   45CHL1   C14 3272   1.342   4.764   7.492  0.0864 -0.1185  0.7327
   45CHL1   H14 3273   1.247   4.710   7.509 -0.3752  0.4262 -0.1126
   45CHL1   C15 3274   1.321   4.911   7.532  0.4032  0.1256 -0.3928
   45CHL1  H15A 3275   1.416   4.967   7.514  0.7018  0.6386  2.5113
   45CHL1  H15B 3276   1.236   4.966   7.487  1.5443  2.2246 -0.1019
   45CHL1   C16 3277   1.327   4.898   7.684  0.1568  0.4649  0.3386
   45CHL1  H16A 3278   1.405   4.968   7.721  2.4877 -1.7927 -0.1446
   45CHL1  H16B 3279   1.226   4.920   7.725 -0.1568  4.6418 -2.3629
   45CHL1   C17 3280   1.372   4.754   7.727 -0.1782  0.2871 -0.1069
   45CHL1   H17 3281   1.274   4.703   7.739  0.0760 -0.4078 -0.9617
   45CHL1   C13 3282   1.433   4.698   7.596 -0.0150 -0.1447 -0.3346
   45CHL1   C18 3283   1.584   4.729   7.578  0.2270 -0.0400  0.7157
   45CHL1  H18A 3284   1.602   4.834   7.546  4.1383 -0.6190  0.8221
   45CHL1  H18B 3285   1.635   4.709   7.674  2.0003  0.2534 -0.1568
   45CHL1  H18C 3286   1.612   4.661   7.494 -1.7594 -3.2989  2.5740
   45CHL1   C12 3287   1.411   4.548   7.591 -0.0877 -0.0376 -0.0328
   45CHL1  H12A 3288   1.492   4.501   7.649 -0.3522  1.9154  1.9828
   45CHL1  H12B 3289   1.309   4.519   7.626 -0.3327  2.1108  1.1061
   45CHL1   C11 3290   1.426   4.485   7.452 -0.6268 -0.4260  0.7548
   45CHL1  H11A 3291   1.535   4.472   7.434 -0.4570  1.2038  0.5514
   45CHL1  H11B 3292   1.382   4.383   7.450  0.1436 -0.7509 -0.8554
   45CHL1    C9 3293   1.366   4.577   7.333  0.5513 -1.0435 -0.8386
   45CHL1    H9 3294   1.255   4.564   7.336  0.6033 -2.0839 -2.6654
   45CHL1   C10 3295   1.399   4.530   7.189  0.1223 -0.4292 -0.5596
   45CHL1   C19 3296   1.553   4.516   7.188 -0.4511  0.1826 -0.1983
   45CHL1  H19A 3297   1.590   4.423   7.234  2.4164  0.8786 -0.9694
   45CHL1  H19B 3298   1.585   4.508   7.082  1.2192  1.4415  0.1819
   45CHL1  H19C 3299   1.603   4.609   7.224 -0.3356  0.4170 -0.9483
   45CHL1    C1 3300   1.324   4.397   7.157  0.1646 -1.0859 -0.6990
   45CHL1   H1A 3301   1.365   4.323   7.228 -1.4647 -0.8179  0.5420
   45CHL1   H1B 3302   1.215   4.408   7.174  0.0415  0.0200 -2.0986
   45CHL1    C2 3303   1.345   4.351   7.012 -1.2180  0.5764 -0.6240
   45CHL1   H2A 3304   1.280   4.262   6.997 -1.5576  0.6581  0.3227
   45CHL1   H2B 3305   1.450   4.319   6.995 -1.6030 -0.3187 -1.4019
   45CHL1   C20 3306   1.461   4.757   7.850 -0.2962 -0.0923 -0.2462
   45CHL1   H20 3307   1.560   4.807   7.838 -0.3535  0.0677 -0.0684
   45CHL1   C21 3308   1.482   4.608   7.886  0.9729 -0.0943 -0.0879
   45CHL1  H21A 3309   1.389   4.552   7.908  0.7455  0.5352  0.5692
   45CHL1  H21B 3310   1.537   4.606   7.982  0.5874 -0.9940  0.1265
   45CHL1  H21C 3311   1.563   4.565   7.823  0.3921 -0.5763 -0.5199
   45CHL1   C22 3312   1.386   4.828   7.969 -0.0849 -0.2779 -0.0222
   45CHL1  H22A 3313   1.361   4.932   7.936  1.7243  0.2896  0.3723
   45CHL1  H22B 3314   1.291   4.776   7.993 -1.0439 -0.0071 -2.9666
   45CHL1   C23 3315   1.475   4.831   8.096 -0.4371 -0.0310  0.0869
   45CHL1  H23A 3316   1.497   4.734   8.146 -1.0071  0.5157  1.4392
   45CHL1  H23B 3317   1.577   4.870   8.074  0.0665 -1.4500 -0.1694
   45CHL1   C24 3318   1.406   4.918   8.201 -0.7923 -0.0519 -0.2729
   45CHL1  H24A 3319   1.366   5.015   8.162 -1.9405 -0.4292 -0.0591
   45CHL1  H24B 3320   1.315   4.858   8.225  0.3821 -2.3783 -1.5733
   45CHL1   C25 3321   1.504   4.942   8.320  0.0516 -0.0537  0.4136
   45CHL1   H25 3322   1.598   4.984   8.278 -0.9863  0.5476 -1.3448
   45CHL1   C26 3323   1.436   5.034   8.421 -0.0049  0.4850 -0.2725
   45CHL1  H26A 3324   1.347   4.982   8.463  0.9032  0.5381  1.7648
   45CHL1  H26B 3325   1.506   5.046   8.506  0.3181 -0.7859 -0.3450
   45CHL1  H26C 3326   1.412   5.130   8.372 -1.1280 -0.1952 -1.1006
   45CHL1   C27 3327   1.535   4.817   8.399 -0.2211 -0.2881  0.0051
   45CHL1  H27A 3328   1.554   4.737   8.325 -4.9579 -1.6403  0.0690
   45CHL1  H27B 3329   1.615   4.835   8.474 -0.7672 -0.8329  0.7359
   45CHL1  H27C 3330   1.447   4.781   8.458 -0.4328 -0.2982 -0.3176
   46CHL1    C3 3331   1.622   5.560   7.015  0.4468 -0.8107 -0.4725
   46CHL1    H3 3332   1.565   5.470   7.047 -2.1811  0.6540 -0.8777
   46CHL1    O3 3333   1.615   5.570   6.873  0.1680 -0.3959  0.0175
   46CHL1   H3' 3334   1.691   5.527   6.835 -0.7707 -3.5509  1.5365
   46CHL1    C4 3335   1.557   5.683   7.071 -0.2789  0.1080  0.5648
   46CHL1   H4A 3336   1.612   5.775   7.042  1.9146 -1.4364 -0.2533
   46CHL1   H4B 3337   1.451   5.693   7.038 -0.6300 -2.9147  0.6823
   46CHL1    C5 3338   1.564   5.679   7.221 -0.3299  0.3302  0.5659
   46CHL1    C6 3339   1.454   5.679   7.303  0.5719 -0.4909  0.1644
   46CHL1    H6 3340   1.354   5.682   7.257  0.6940 -0.2546 -0.0851
   46CHL1    C7 3341   1.467   5.684   7.455  0.1899 -0.2351  0.2709
   46CHL1   H7A 3342   1.410   5.773   7.488 -0.1828  0.1576 -1.3780
   46CHL1   H7B 3343   1.422   5.592   7.495  2.3780 -1.4298  0.0587
   46CHL1    C8 3344   1.609   5.719   7.507  0.1481  0.3345 -0.6322
   46CHL1    H8 3345   1.614   5.828   7.491  0.9965  0.5826  1.2907
   46CHL1   C14 3346   1.619   5.699   7.655  1.1836 -0.8184 -0.9672
   46CHL1   H14 3347   1.596   5.594   7.683  1.2455 -0.1962  1.5274
   46CHL1   C15 3348   1.528   5.781   7.749  0.4442  0.3209 -0.0109
   46CHL1  H15A 3349   1.546   5.886   7.717 -0.8463  0.3491 -0.6984
   46CHL1  H15B 3350   1.417   5.770   7.748  0.4001  0.7819 -0.3751
   46CHL1   C16 3351   1.593   5.759   7.891  0.1837  0.4269 -0.1460
   46CHL1  H16A 3352   1.591   5.861   7.936  1.9522  0.9654 -1.2080
   46CHL1  H16B 3353   1.544   5.682   7.953  0.6288 -0.2286 -0.6096
   46CHL1   C17 3354   1.736   5.709   7.859  0.7283 -0.6997  0.1264
   46CHL1   H17 3355   1.722   5.599   7.866 -1.4382 -0.4738 -0.1042
   46CHL1   C13 3356   1.757   5.722   7.710  0.1392  0.1811  0.7320
   46CHL1   C18 3357   1.800   5.860   7.694  0.3935  0.1532 -0.0443
   46CHL1  H18A 3358   1.806   5.887   7.586  2.8403 -1.7217 -0.4346
   46CHL1  H18B 3359   1.737   5.931   7.751  3.7715  0.6592  3.2704
   46CHL1  H18C 3360   1.903   5.861   7.737  0.9784  1.4250 -1.4189
   46CHL1   C12 3361   1.858   5.619   7.643  0.3812  0.6004 -0.1752
   46CHL1  H12A 3362   1.960   5.634   7.684  0.3939  0.4721 -0.1619
   46CHL1  H12B 3363   1.828   5.515   7.669  0.9895  0.6481  0.7429
   46CHL1   C11 3364   1.861   5.643   7.495 -0.1257 -1.0280  0.5628
   46CHL1  H11A 3365   1.914   5.738   7.470  0.4701 -1.0382  1.7855
   46CHL1  H11B 3366   1.911   5.554   7.450 -1.9347 -1.2799 -1.0243
   46CHL1    C9 3367   1.712   5.640   7.429 -0.4502  0.7938  0.0928
   46CHL1    H9 3368   1.679   5.536   7.450  0.3084  0.5770  0.2134
   46CHL1   C10 3369   1.712   5.658   7.272  0.2687 -0.1781 -0.3254
   46CHL1   C19 3370   1.787   5.788   7.240  0.6249 -0.0333 -0.3304
   46CHL1  H19A 3371   1.738   5.875   7.289 -0.2196 -0.4509 -0.4169
   46CHL1  H19B 3372   1.889   5.784   7.284 -0.6669 -0.7344  2.7158
   46CHL1  H19C 3373   1.795   5.816   7.133 -0.3739  4.1434  0.5559
   46CHL1    C1 3374   1.774   5.539   7.199 -0.8435 -0.3244 -0.1635
   46CHL1   H1A 3375   1.881   5.517   7.220 -0.3755 -1.5447 -3.4908
   46CHL1   H1B 3376   1.725   5.450   7.243 -3.0331 -0.0554 -1.9875
   46CHL1    C2 3377   1.765   5.550   7.053 -0.0883 -1.0717  0.1047
   46CHL1   H2A 3378   1.809   5.463   7.001  1.5242  0.2461 -0.7847
   46CHL1   H2B 3379   1.833   5.632   7.024  0.9914 -0.3809  4.2338
   46CHL1   C20 3380   1.841   5.742   7.964 -0.1054 -0.4686  0.7201
   46CHL1   H20 3381   1.941   5.734   7.918 -1.2643 -0.3403 -1.9455
   46CHL1   C21 3382   1.840   5.626   8.076 -0.0915 -0.6017  0.4489
   46CHL1  H21A 3383   1.939   5.620   8.126  0.0719 -0.1750  0.1831
   46CHL1  H21B 3384   1.835   5.533   8.016  1.6884 -0.0248 -0.6579
   46CHL1  H21C 3385   1.762   5.637   8.153 -0.8206  2.5947 -0.6819
   46CHL1   C22 3386   1.824   5.885   8.040 -0.3486 -0.4043  0.3930
   46CHL1  H22A 3387   1.810   5.969   7.968  0.2716 -2.8876 -2.7730
   46CHL1  H22B 3388   1.748   5.875   8.120 -2.1845 -2.8100 -1.5718
   46CHL1   C23 3389   1.961   5.926   8.106 -0.4245  0.0761  0.1696
   46CHL1  H23A 3390   1.977   5.847   8.182 -2.1750 -0.0317  0.4488
   46CHL1  H23B 3391   2.045   5.929   8.035  0.8064  0.6898  1.6181
   46CHL1   C24 3392   1.948   6.067   8.174 -0.6718 -0.3772  0.0015
   46CHL1  H24A 3393   1.923   6.141   8.095 -0.5049 -1.0992 -0.7335
   46CHL1  H24B 3394   1.867   6.063   8.250 -0.5675  2.5000  0.3138
   46CHL1   C25 3395   2.085   6.113   8.243  0.3053  0.3179 -1.0873
   46CHL1   H25 3396   2.160   6.122   8.161  0.3139  2.2312 -0.9115
   46CHL1   C26 3397   2.070   6.258   8.286  0.0053 -0.7237 -0.1309
   46CHL1  H26A 3398   2.166   6.298   8.325  2.0923 -3.7650 -1.9852
   46CHL1  H26B 3399   2.048   6.325   8.200 -0.5569  0.9246  1.2411
   46CHL1  H26C 3400   1.988   6.284   8.357 -0.2658  3.3630 -1.7641
   46CHL1   C27 3401   2.120   6.010   8.356  0.1023  0.0250 -0.7421
   46CHL1  H27A 3402   2.216   6.033   8.408  0.1688 -0.4274 -0.6645
   46CHL1  H27B 3403   2.033   5.996   8.424  0.2252 -0.8918 -0.7674
   46CHL1  H27C 3404   2.138   5.909   8.315 -0.7606 -2.1639  3.8677
   47CHL1    C3 3405   0.531   5.359   6.674 -0.6286  0.5266  0.1912
   47CHL1    H3 3406   0.537   5.469   6.663  0.9611  0.3201 -1.2054
   47CHL1    O3 3407   0.521   5.291   6.542  0.6551 -0.5546  0.2118
   47CHL1   H3' 3408   0.450   5.229   6.557  0.1338  0.1202  0.5989
   47CHL1    C4 3409   0.654   5.301   6.748 -0.2509  0.2411  0.0319
   47CHL1   H4A 3410   0.635   5.192   6.754  0.6182  0.1082  0.5460
   47CHL1   H4B 3411   0.746   5.324   6.691 -1.3385  0.1840 -1.7733
   47CHL1    C5 3412   0.656   5.357   6.889  0.3683 -0.4789 -0.3719
   47CHL1    C6 3413   0.764   5.427   6.932 -0.1806  0.2519 -0.0666
   47CHL1    H6 3414   0.854   5.432   6.869  0.2863 -0.3575  0.5406
   47CHL1    C7 3415   0.785   5.483   7.073  0.1759  0.0220  0.8285
   47CHL1   H7A 3416   0.888   5.462   7.110 -0.3875 -1.2399  1.7144
   47CHL1   H7B 3417   0.770   5.592   7.054 -1.0533 -0.3878 -0.6524
   47CHL1    C8 3418   0.684   5.434   7.168  0.9389 -0.1063  0.5195
   47CHL1    H8 3419   0.721   5.333   7.196 -1.6869 -0.7152  1.8992
   47CHL1   C14 3420   0.672   5.519   7.291 -0.1912  0.4993 -0.0687
   47CHL1   H14 3421   0.631   5.616   7.254 -0.1055  1.2015  1.6239
   47CHL1   C15 3422   0.808   5.568   7.351  0.5599 -0.0522 -0.0948
   47CHL1  H15A 3423   0.886   5.492   7.372  0.9699  0.6680  1.0570
   47CHL1  H15B 3424   0.845   5.648   7.285 -0.7762 -0.7723 -1.7629
   47CHL1   C16 3425   0.761   5.625   7.493  0.1282 -0.8209  0.3620
   47CHL1  H16A 3426   0.834   5.577   7.562  0.7990 -1.6273 -0.8857
   47CHL1  H16B 3427   0.777   5.735   7.491  0.6261 -0.9049 -1.7932
   47CHL1   C17 3428   0.618   5.583   7.509  0.3533 -0.1060 -0.5603
   47CHL1   H17 3429   0.561   5.660   7.453 -2.3065 -2.5226 -1.2733
   47CHL1   C13 3430   0.589   5.462   7.405  0.5812  0.3721 -0.3483
   47CHL1   C18 3431   0.648   5.326   7.457 -0.3323  0.5041  0.5943
   47CHL1  H18A 3432   0.755   5.337   7.484 -0.4680  2.8344  0.3072
   47CHL1  H18B 3433   0.585   5.294   7.543 -0.8078 -0.3050 -0.0588
   47CHL1  H18C 3434   0.643   5.251   7.376 -0.1422  2.0487 -0.8920
   47CHL1   C12 3435   0.449   5.450   7.353 -0.1293 -0.2164  0.0536
   47CHL1  H12A 3436   0.381   5.408   7.430 -1.3607  1.0773 -0.3204
   47CHL1  H12B 3437   0.420   5.552   7.320 -1.2957 -0.7678 -0.6445
   47CHL1   C11 3438   0.431   5.371   7.214  0.7998  0.3734  0.3910
   47CHL1  H11A 3439   0.439   5.266   7.248 -2.3795  0.3134  1.0231
   47CHL1  H11B 3440   0.331   5.401   7.177  1.1954  1.5538  0.2616
   47CHL1    C9 3441   0.541   5.422   7.114 -0.4165  0.3046  0.0987
   47CHL1    H9 3442   0.519   5.528   7.094  2.1868  1.0269  0.8275
   47CHL1   C10 3443   0.536   5.342   6.984 -0.7681 -0.1926  1.0308
   47CHL1   C19 3444   0.530   5.192   7.017  0.0759  0.8436 -0.1010
   47CHL1  H19A 3445   0.575   5.116   6.949  0.9704 -2.2810  3.7810
   47CHL1  H19B 3446   0.588   5.178   7.110  0.4791 -0.7068 -0.5666
   47CHL1  H19C 3447   0.425   5.160   7.034  0.1364  1.9582  2.5497
   47CHL1    C1 3448   0.413   5.384   6.898 -0.1942 -1.2390 -0.6771
   47CHL1   H1A 3449   0.317   5.345   6.938 -0.1875 -0.1973  0.3726
   47CHL1   H1B 3450   0.397   5.493   6.887 -0.1322 -1.1288  0.3206
   47CHL1    C2 3451   0.404   5.326   6.755  0.4851  0.0019 -0.2245
   47CHL1   H2A 3452   0.312   5.358   6.700  0.0183  0.1887  0.6550
   47CHL1   H2B 3453   0.389   5.216   6.757 -0.8724  0.1575 -0.8782
   47CHL1   C20 3454   0.559   5.555   7.646  0.8779 -0.2372 -0.5224
   47CHL1   H20 3455   0.472   5.488   7.630  0.2333  0.4845 -0.0877
   47CHL1   C21 3456   0.486   5.693   7.688 -0.0878  0.0361  0.2102
   47CHL1  H21A 3457   0.561   5.762   7.732  0.1507  0.4543 -0.8315
   47CHL1  H21B 3458   0.404   5.667   7.758  0.0396  0.2888  0.4507
   47CHL1  H21C 3459   0.444   5.748   7.601  1.5814  0.1211 -0.5686
   47CHL1   C22 3460   0.655   5.513   7.755 -0.0525  0.4339 -1.1591
   47CHL1  H22A 3461   0.703   5.428   7.702 -1.3677 -1.8901  1.2619
   47CHL1  H22B 3462   0.733   5.587   7.782 -0.4774  0.1604  0.8448
   47CHL1   C23 3463   0.587   5.459   7.885  0.8922 -0.1995 -0.6953
   47CHL1  H23A 3464   0.523   5.540   7.925  0.6727 -1.2072  1.0463
   47CHL1  H23B 3465   0.515   5.377   7.864 -0.8220  0.7721  1.2899
   47CHL1   C24 3466   0.680   5.413   7.997  0.3521  0.0813 -0.5886
   47CHL1  H24A 3467   0.743   5.329   7.961 -0.8701 -0.4653 -1.5146
   47CHL1  H24B 3468   0.729   5.512   8.009 -0.8488  1.0021 -2.9505
   47CHL1   C25 3469   0.614   5.373   8.124 -0.9528 -0.6328 -0.1178
   47CHL1   H25 3470   0.550   5.460   8.152  1.6309  2.4872 -3.3239
   47CHL1   C26 3471   0.527   5.244   8.109 -0.4638  0.0302  0.6158
   47CHL1  H26A 3472   0.572   5.146   8.081  0.9317  0.6845  0.5265
   47CHL1  H26B 3473   0.466   5.241   8.202 -3.7825  2.5595 -1.3723
   47CHL1  H26C 3474   0.454   5.275   8.031 -0.1310 -0.4272  0.1210
   47CHL1   C27 3475   0.718   5.356   8.231  0.5436  0.1552 -0.5068
   47CHL1  H27A 3476   0.790   5.437   8.254  0.6570  0.2317 -1.1139
   47CHL1  H27B 3477   0.675   5.322   8.327 -0.3733 -1.3057 -1.4101
   47CHL1  H27C 3478   0.788   5.279   8.190 -0.6924 -0.7136 -1.0401
   48CHL1    C3 3479   4.226   0.899   6.221 -0.5857  0.3872 -0.5626
   48CHL1    H3 3480   4.166   0.812   6.188 -0.6819 -0.2094  1.1502
   48CHL1    O3 3481   4.264   0.968   6.100  0.5374  0.4564  0.0625
   48CHL1   H3' 3482   4.289   1.057   6.124  0.3308  0.3791  0.5710
   48CHL1    C4 3483   4.128   0.994   6.293  0.6184  0.6854 -1.2509
   48CHL1   H4A 3484   4.161   1.100   6.288 -1.2757  1.2857 -1.2401
   48CHL1   H4B 3485   4.032   0.980   6.239  1.4672 -1.1055 -2.3339
   48CHL1    C5 3486   4.104   0.975   6.443  0.2577 -0.4077 -0.4986
   48CHL1    C6 3487   3.983   0.975   6.498 -0.0598 -0.3402  0.1210
   48CHL1    H6 3488   3.893   0.998   6.440 -0.6940  1.3922  1.7639
   48CHL1    C7 3489   3.955   0.944   6.645 -0.1119  0.6604 -0.4910
   48CHL1   H7A 3490   3.866   1.003   6.674 -0.2324  0.0227  0.4407
   48CHL1   H7B 3491   3.939   0.835   6.663  1.4728  0.3536 -0.7879
   48CHL1    C8 3492   4.083   0.973   6.728 -0.0592 -0.4078  0.4277
   48CHL1    H8 3493   4.103   1.082   6.728 -1.5300 -0.1150 -0.1640
   48CHL1   C14 3494   4.065   0.932   6.872  0.6263  0.3470 -0.1196
   48CHL1   H14 3495   4.037   0.824   6.874 -1.6679  0.9039 -0.7967
   48CHL1   C15 3496   3.955   1.003   6.948 -0.2999 -0.4103 -0.3072
   48CHL1  H15A 3497   3.940   1.106   6.909  1.3359 -0.2379 -0.5086
   48CHL1  H15B 3498   3.865   0.942   6.927 -0.8647  0.4743 -0.4800
   48CHL1   C16 3499   3.989   0.991   7.096  0.5567 -0.3115 -0.1761
   48CHL1  H16A 3500   3.994   1.095   7.134 -0.8545 -0.8050  1.4111
   48CHL1  H16B 3501   3.919   0.932   7.159 -0.1006 -0.6600 -1.2188
   48CHL1   C17 3502   4.137   0.932   7.109  0.4959 -0.2589  0.7052
   48CHL1   H17 3503   4.129   0.821   7.114  0.6090 -0.2043  2.1632
   48CHL1   C13 3504   4.189   0.947   6.964  0.2807 -0.0860 -0.6800
   48CHL1   C18 3505   4.242   1.098   6.953 -0.8837  0.5911  0.0954
   48CHL1  H18A 3506   4.331   1.112   7.018  0.5248 -1.9294 -1.2032
   48CHL1  H18B 3507   4.262   1.132   6.850 -3.0900  2.7150  0.3229
   48CHL1  H18C 3508   4.157   1.162   6.986 -0.7835 -0.1508  1.8899
   48CHL1   C12 3509   4.290   0.843   6.914 -1.2216  0.1210  0.3033
   48CHL1  H12A 3510   4.387   0.862   6.966 -1.1171  3.2900 -0.9563
   48CHL1  H12B 3511   4.252   0.739   6.929  1.5825 -0.9761  0.1661
   48CHL1   C11 3512   4.325   0.889   6.765  0.1398 -0.0464 -0.3067
   48CHL1  H11A 3513   4.382   0.984   6.757  0.1366 -0.1495 -1.7655
   48CHL1  H11B 3514   4.394   0.809   6.731 -1.6840 -1.8833  0.1842
   48CHL1    C9 3515   4.198   0.892   6.673 -0.6790 -0.4335  0.6994
   48CHL1    H9 3516   4.159   0.788   6.668  0.0980 -0.7715  1.3379
   48CHL1   C10 3517   4.231   0.939   6.526 -0.6251 -0.1640  0.1393
   48CHL1   C19 3518   4.310   1.072   6.530  0.2014 -0.1590  0.2269
   48CHL1  H19A 3519   4.327   1.113   6.428 -0.2622 -1.3641 -0.3379
   48CHL1  H19B 3520   4.251   1.144   6.591  1.0607  2.0201 -1.4380
   48CHL1  H19C 3521   4.410   1.048   6.571  0.2849  0.0639  0.1562
   48CHL1    C1 3522   4.310   0.825   6.445  0.1804 -0.3143  0.2882
   48CHL1   H1A 3523   4.396   0.792   6.508 -1.2107 -2.5298  1.0909
   48CHL1   H1B 3524   4.246   0.734   6.446 -2.3648  1.3912 -1.2332
   48CHL1    C2 3525   4.349   0.864   6.305  0.3455 -0.4021 -0.3712
   48CHL1   H2A 3526   4.403   0.785   6.248  0.7145 -1.7819  1.8342
   48CHL1   H2B 3527   4.415   0.954   6.307  0.7769 -0.7349  0.7459
   48CHL1   C20 3528   4.204   0.986   7.228 -0.6636 -0.4319  0.2980
   48CHL1   H20 3529   4.224   1.095   7.215  2.2490 -0.5721  3.0372
   48CHL1   C21 3530   4.346   0.923   7.232  0.4182 -1.0503 -0.4473
   48CHL1  H21A 3531   4.338   0.823   7.183  0.8562 -1.0553 -0.5186
   48CHL1  H21B 3532   4.368   0.905   7.340 -2.7810  0.3262  0.4697
   48CHL1  H21C 3533   4.427   0.979   7.181 -0.2218  0.3742  0.0842
   48CHL1   C22 3534   4.124   0.965   7.355  0.0061 -0.2584 -0.1034
   48CHL1  H22A 3535   4.014   0.974   7.357 -0.0259 -0.8986  1.8142
   48CHL1  H22B 3536   4.151   0.865   7.396  1.1206 -0.8814 -2.2533
   48CHL1   C23 3537   4.181   1.067   7.458 -0.1026 -0.3322  0.7566
   48CHL1  H23A 3538   4.291   1.079   7.451  0.0349 -0.5541  2.3622
   48CHL1  H23B 3539   4.139   1.164   7.421 -0.6443 -0.5758  0.7299
   48CHL1   C24 3540   4.143   1.027   7.604 -0.2147 -0.4107  0.1484
   48CHL1  H24A 3541   4.032   1.018   7.604 -0.1156 -1.6414  0.0979
   48CHL1  H24B 3542   4.176   0.926   7.636  0.4457 -0.0152  0.7190
   48CHL1   C25 3543   4.178   1.136   7.704  0.0752  0.7998 -0.4154
   48CHL1   H25 3544   4.158   1.240   7.670  0.7995  0.6230 -1.4254
   48CHL1   C26 3545   4.097   1.116   7.827 -0.7516 -0.0088  0.1850
   48CHL1  H26A 3546   4.111   1.012   7.862  0.6688  0.3191  0.6126
   48CHL1  H26B 3547   4.148   1.178   7.904 -0.2268  0.6799 -0.7117
   48CHL1  H26C 3548   3.988   1.139   7.824 -1.1547 -1.5195  2.2403
   48CHL1   C27 3549   4.334   1.116   7.737  0.4271 -1.0938  0.7023
   48CHL1  H27A 3550   4.349   1.010   7.767 -2.7166 -1.5718  0.8118
   48CHL1  H27B 3551   4.392   1.135   7.644  0.4042 -0.1071  0.8894
   48CHL1  H27C 3552   4.353   1.186   7.821  0.7401 -2.8241  2.1137
   49CHL1    C3 3553   3.410   2.559   6.683  0.2002 -0.1702  0.4777
   49CHL1    H3 3554   3.388   2.654   6.735 -0.2450  0.0447 -0.1001
   49CHL1    O3 3555   3.395   2.573   6.541 -0.0847  0.5405  0.2630
   49CHL1   H3' 3556   3.430   2.492   6.504  0.5555  0.6147  0.6968
   49CHL1    C4 3557   3.557   2.538   6.714  0.3713  0.4256 -0.3452
   49CHL1   H4A 3558   3.597   2.450   6.659  0.1020  0.9312 -1.3632
   49CHL1   H4B 3559   3.607   2.628   6.672  0.4568  1.4522  1.8928
   49CHL1    C5 3560   3.578   2.541   6.864  0.0928  0.4575  0.4194
   49CHL1    C6 3561   3.661   2.629   6.924  0.0473  0.9501  0.1783
   49CHL1    H6 3562   3.703   2.713   6.867  1.8345  1.7803  2.6652
   49CHL1    C7 3563   3.700   2.621   7.065  0.2543  0.9898 -0.5265
   49CHL1   H7A 3564   3.808   2.608   7.087 -0.0967  0.3308  0.8773
   49CHL1   H7B 3565   3.669   2.717   7.110 -0.5043 -0.3072  1.7929
   49CHL1    C8 3566   3.639   2.495   7.145 -0.1317 -0.6844  0.1787
   49CHL1    H8 3567   3.707   2.410   7.126 -1.1794 -1.8071  1.3398
   49CHL1   C14 3568   3.631   2.514   7.298  0.0882 -0.4725 -0.6969
   49CHL1   H14 3569   3.566   2.604   7.308  2.4865  1.4110 -1.3447
   49CHL1   C15 3570   3.757   2.543   7.382  0.1707  0.1751  0.3523
   49CHL1  H15A 3571   3.839   2.475   7.350 -0.5955 -0.0144 -1.2347
   49CHL1  H15B 3572   3.795   2.646   7.364  1.8647 -0.2881  1.1950
   49CHL1   C16 3573   3.712   2.525   7.524 -0.1673  0.0031  0.1823
   49CHL1  H16A 3574   3.791   2.465   7.573 -1.4081 -1.4153  0.4921
   49CHL1  H16B 3575   3.709   2.619   7.585  0.3576  0.8544 -1.0883
   49CHL1   C17 3576   3.579   2.448   7.518 -0.5560  0.1296  0.3001
   49CHL1   H17 3577   3.501   2.525   7.536 -0.9655 -0.1941 -0.0650
   49CHL1   C13 3578   3.561   2.399   7.373  0.3854 -0.7061  0.0512
   49CHL1   C18 3579   3.651   2.272   7.377  0.5448  0.0765 -0.4322
   49CHL1  H18A 3580   3.681   2.236   7.276  0.0247 -0.0911 -0.5269
   49CHL1  H18B 3581   3.750   2.271   7.428  0.0449  0.3315  0.5478
   49CHL1  H18C 3582   3.591   2.189   7.418  1.3079  1.1665  3.0204
   49CHL1   C12 3583   3.421   2.377   7.321  0.4243 -0.3303  0.4499
   49CHL1  H12A 3584   3.369   2.286   7.356 -0.1478 -0.1980 -0.0626
   49CHL1  H12B 3585   3.353   2.463   7.342 -0.9846 -1.6180  1.2142
   49CHL1   C11 3586   3.431   2.352   7.172 -0.3453  0.2896  0.2069
   49CHL1  H11A 3587   3.493   2.260   7.168 -1.0828 -0.2837  1.5181
   49CHL1  H11B 3588   3.330   2.313   7.148  0.8514 -2.0453 -1.1349
   49CHL1    C9 3589   3.499   2.463   7.090 -0.6848 -0.4581 -0.0035
   49CHL1    H9 3590   3.433   2.548   7.117 -2.0876 -1.9245  1.2768
   49CHL1   C10 3591   3.497   2.436   6.934 -0.0772 -0.2766  0.4829
   49CHL1   C19 3592   3.570   2.296   6.912 -0.3118  0.9363  0.3082
   49CHL1  H19A 3593   3.579   2.275   6.803  0.6993  0.9349  0.3808
   49CHL1  H19B 3594   3.665   2.290   6.970 -1.0063 -0.0644  1.3436
   49CHL1  H19C 3595   3.498   2.225   6.957 -0.6392  0.5583 -0.7849
   49CHL1    C1 3596   3.350   2.421   6.885  0.0158 -0.2756 -0.4769
   49CHL1   H1A 3597   3.301   2.328   6.921  1.1926 -0.6296  0.2279
   49CHL1   H1B 3598   3.303   2.508   6.936 -0.2610 -0.0168 -1.1617
   49CHL1    C2 3599   3.328   2.433   6.734 -0.6266 -0.6055  0.2870
   49CHL1   H2A 3600   3.222   2.449   6.705 -0.6099  0.8759  0.9929
   49CHL1   H2B 3601   3.371   2.347   6.679  0.6850 -0.3558  0.9224
   49CHL1   C20 3602   3.561   2.364   7.645  0.0772 -0.4953  0.4037
   49CHL1   H20 3603   3.618   2.271   7.625  0.3412 -0.4232  0.8263
   49CHL1   C21 3604   3.412   2.318   7.653  0.4286  0.5702  0.2072
   49CHL1  H21A 3605   3.398   2.238   7.728  0.2772  0.6380  0.2504
   49CHL1  H21B 3606   3.392   2.278   7.551  0.4380 -0.2983  0.5460
   49CHL1  H21C 3607   3.340   2.401   7.667 -0.8583  0.0622 -2.9927
   49CHL1   C22 3608   3.603   2.418   7.787  0.6734  0.4965  0.4392
   49CHL1  H22A 3609   3.713   2.421   7.777  0.7377  0.6065  1.1706
   49CHL1  H22B 3610   3.562   2.521   7.797  1.8781  1.4277 -3.2425
   49CHL1   C23 3611   3.575   2.338   7.910 -0.1088  0.1156  0.2620
   49CHL1  H23A 3612   3.465   2.350   7.927 -0.4198  0.1289 -1.6533
   49CHL1  H23B 3613   3.596   2.231   7.893  2.4497  0.4916  0.8598
   49CHL1   C24 3614   3.646   2.398   8.033  0.1200  0.3544  0.0273
   49CHL1  H24A 3615   3.752   2.411   8.003  0.2248 -3.7047 -1.6332
   49CHL1  H24B 3616   3.598   2.497   8.046 -1.6142  0.0364 -3.4614
   49CHL1   C25 3617   3.633   2.315   8.161  0.2979  0.3767 -0.5477
   49CHL1   H25 3618   3.656   2.210   8.134  0.0007  0.3301 -0.6127
   49CHL1   C26 3619   3.718   2.360   8.279 -0.1885 -0.3810  0.2059
   49CHL1  H26A 3620   3.698   2.468   8.295  1.8628  0.2176 -1.0753
   49CHL1  H26B 3621   3.696   2.309   8.375  0.8691  1.9331  1.7328
   49CHL1  H26C 3622   3.826   2.339   8.264  0.3615  0.5666  2.6229
   49CHL1   C27 3623   3.485   2.322   8.207  0.5252 -0.3810  0.5725
   49CHL1  H27A 3624   3.423   2.279   8.126 -0.3605  0.2146  0.9360
   49CHL1  H27B 3625   3.477   2.259   8.299  1.6102  1.1462  1.7402
   49CHL1  H27C 3626   3.458   2.427   8.229 -1.1435 -0.6239 -0.2190
   50CHL1    C3 3627   4.388   3.712   6.750 -0.4151  0.1442  0.4806
   50CHL1    H3 3628   4.390   3.601   6.760  1.0960  0.2266  1.2226
   50CHL1    O3 3629   4.350   3.735   6.610 -0.2210  0.5422  0.0806
   50CHL1   H3' 3630   4.260   3.703   6.613 -0.2202  0.6114  1.0374
   50CHL1    C4 3631   4.271   3.752   6.847  0.4105 -0.6637 -0.3767
   50CHL1   H4A 3632   4.231   3.853   6.823  0.0946  0.0330  2.8537
   50CHL1   H4B 3633   4.187   3.687   6.811 -1.6846  1.3301  0.8136
   50CHL1    C5 3634   4.305   3.743   6.996 -0.0173  0.2278  0.2578
   50CHL1    C6 3635   4.231   3.667   7.081 -0.0764  0.0497  0.0727
   50CHL1    H6 3636   4.138   3.619   7.048  0.3354 -0.3853 -0.4630
   50CHL1    C7 3637   4.241   3.652   7.232  0.0510 -0.1608 -0.2660
   50CHL1   H7A 3638   4.148   3.676   7.289  1.8074  2.5379  1.5778
   50CHL1   H7B 3639   4.269   3.550   7.267 -0.9878 -0.7625 -1.1608
   50CHL1    C8 3640   4.332   3.766   7.281 -0.9793 -0.3986 -0.2245
   50CHL1    H8 3641   4.281   3.865   7.276  0.1788  0.3440  1.7664
   50CHL1   C14 3642   4.367   3.740   7.428 -0.2012  0.0545 -0.3709
   50CHL1   H14 3643   4.433   3.652   7.416 -0.5562 -0.3373  0.5260
   50CHL1   C15 3644   4.250   3.702   7.535 -0.1962 -0.0644  0.0494
   50CHL1  H15A 3645   4.172   3.781   7.530  0.1734  0.4420  1.9206
   50CHL1  H15B 3646   4.222   3.595   7.523  1.3094 -0.4052 -0.5657
   50CHL1   C16 3647   4.322   3.734   7.668  0.4837 -0.0508  0.0328
   50CHL1  H16A 3648   4.266   3.814   7.720  0.6921 -1.8809  3.1938
   50CHL1  H16B 3649   4.335   3.646   7.735 -0.4509 -0.8876 -0.8569
   50CHL1   C17 3650   4.470   3.785   7.634  0.4124  0.0502 -0.0963
   50CHL1   H17 3651   4.533   3.694   7.632 -0.4754 -0.5550 -2.2077
   50CHL1   C13 3652   4.459   3.841   7.491 -0.8462 -0.1165 -0.0609
   50CHL1   C18 3653   4.400   3.987   7.511  0.5507 -0.0583  0.0841
   50CHL1  H18A 3654   4.366   4.034   7.417 -0.0803 -2.0975 -0.7395
   50CHL1  H18B 3655   4.321   3.995   7.589 -1.3072 -0.1075 -1.7513
   50CHL1  H18C 3656   4.482   4.052   7.548 -1.4230  1.3226  2.2044
   50CHL1   C12 3657   4.587   3.844   7.401 -0.3370 -0.1265 -0.1046
   50CHL1  H12A 3658   4.660   3.912   7.450  1.5507 -0.9891 -1.6646
   50CHL1  H12B 3659   4.634   3.743   7.403 -2.1219 -0.9533  0.6060
   50CHL1   C11 3660   4.561   3.884   7.257  0.3366 -0.0974 -0.6609
   50CHL1  H11A 3661   4.518   3.986   7.257  2.7781  0.9615 -0.6708
   50CHL1  H11B 3662   4.648   3.874   7.189 -0.1318 -2.5501 -0.9616
   50CHL1    C9 3663   4.457   3.788   7.189 -0.1690  0.6644  0.5914
   50CHL1    H9 3664   4.510   3.690   7.187  0.4852  0.9568  2.6952
   50CHL1   C10 3665   4.428   3.817   7.043 -0.3244 -0.0242  0.2861
   50CHL1   C19 3666   4.408   3.966   7.032 -0.5903 -0.2638  0.4223
   50CHL1  H19A 3667   4.354   3.997   7.124 -0.9553  0.5462 -0.0622
   50CHL1  H19B 3668   4.507   4.015   7.039  0.3054 -2.1324  1.2586
   50CHL1  H19C 3669   4.355   4.007   6.944  1.9839 -1.6074 -1.8342
   50CHL1    C1 3670   4.546   3.766   6.948  0.0040  0.3130  0.7828
   50CHL1   H1A 3671   4.630   3.837   6.966 -0.6418  1.2937 -0.0107
   50CHL1   H1B 3672   4.563   3.662   6.983  3.0388  0.5200  0.0941
   50CHL1    C2 3673   4.518   3.775   6.796 -0.4159 -0.1807  0.0677
   50CHL1   H2A 3674   4.591   3.740   6.720 -1.5814  1.0326 -1.6353
   50CHL1   H2B 3675   4.504   3.884   6.779 -0.5721 -0.3346 -0.7918
   50CHL1   C20 3676   4.531   3.874   7.743 -0.4075  0.2507  0.3922
   50CHL1   H20 3677   4.491   3.977   7.728 -0.1676  0.1877 -0.6936
   50CHL1   C21 3678   4.685   3.878   7.746 -0.1129 -0.6204  0.0467
   50CHL1  H21A 3679   4.713   3.778   7.786 -3.5614 -1.3519  0.8410
   50CHL1  H21B 3680   4.711   3.965   7.809  1.0608  0.6439 -2.1497
   50CHL1  H21C 3681   4.733   3.895   7.647  0.8450  0.3958  0.6875
   50CHL1   C22 3682   4.490   3.833   7.885 -0.6058 -0.2956  0.1925
   50CHL1  H22A 3683   4.381   3.818   7.900 -1.1064  0.5962 -2.3339
   50CHL1  H22B 3684   4.525   3.730   7.909 -0.3188 -0.1903  0.2326
   50CHL1   C23 3685   4.528   3.939   7.990 -0.2360  0.2891 -0.4864
   50CHL1  H23A 3686   4.637   3.935   8.010 -0.2416 -0.0392 -0.5177
   50CHL1  H23B 3687   4.503   4.039   7.949  2.4239  0.8355 -0.8553
   50CHL1   C24 3688   4.446   3.917   8.121  0.5281  0.9594 -0.5040
   50CHL1  H24A 3689   4.337   3.918   8.098  0.7576  1.2856 -1.6377
   50CHL1  H24B 3690   4.482   3.817   8.155  1.4220  0.6064 -2.3879
   50CHL1   C25 3691   4.487   4.016   8.235  0.1932 -0.8623 -0.0671
   50CHL1   H25 3692   4.455   4.118   8.204 -0.3374 -0.5439  1.4701
   50CHL1   C26 3693   4.406   3.991   8.364 -0.4254  0.2249  0.4387
   50CHL1  H26A 3694   4.418   3.889   8.407  2.4921  0.9437  1.4543
   50CHL1  H26B 3695   4.425   4.059   8.450  3.4041  0.7436 -0.7098
   50CHL1  H26C 3696   4.297   3.998   8.346  0.1596  2.9228 -2.4239
   50CHL1   C27 3697   4.641   4.027   8.264  0.1744 -0.0739  0.6316
   50CHL1  H27A 3698   4.678   3.922   8.271 -0.0391 -0.4789 -3.3138
   50CHL1  H27B 3699   4.692   4.090   8.188  0.6062 -2.5774 -1.2236
   50CHL1  H27C 3700   4.652   4.078   8.362 -2.9089  1.1790  0.3895
   51CHL1    C3 3701   4.103   2.973   6.862  0.1987 -0.0710 -0.2743
   51CHL1    H3 3702   4.161   3.064   6.838  1.5880 -0.9787 -0.3710
   51CHL1    O3 3703   4.026   2.929   6.748  0.0924 -0.2216 -0.6064
   51CHL1   H3' 3704   4.073   2.850   6.723  0.1545 -0.3562 -0.0718
   51CHL1    C4 3705   4.198   2.857   6.908 -0.0629  0.4937  0.0139
   51CHL1   H4A 3706   4.138   2.764   6.903  1.2548 -0.3103 -1.0425
   51CHL1   H4B 3707   4.275   2.837   6.831 -0.1695 -1.1668  0.3234
   51CHL1    C5 3708   4.259   2.876   7.047 -1.0969  0.1316  0.7826
   51CHL1    C6 3709   4.389   2.882   7.062  0.3850 -0.9160  0.1156
   51CHL1    H6 3710   4.461   2.891   6.979 -0.6317 -2.0851 -0.8950
   51CHL1    C7 3711   4.451   2.891   7.201  0.1464  0.3308 -0.2161
   51CHL1   H7A 3712   4.532   2.815   7.210  0.8938  1.0841 -0.4909
   51CHL1   H7B 3713   4.478   2.995   7.230 -3.5112  1.1822  0.3607
   51CHL1    C8 3714   4.347   2.864   7.314 -0.0590  0.0900 -0.3822
   51CHL1    H8 3715   4.317   2.757   7.311  0.5571 -0.0738 -0.8765
   51CHL1   C14 3716   4.406   2.903   7.450 -0.0415  0.9663  0.0264
   51CHL1   H14 3717   4.421   3.013   7.439 -0.7836  1.1585  0.8802
   51CHL1   C15 3718   4.548   2.849   7.477 -0.5129 -0.3345 -0.9133
   51CHL1  H15A 3719   4.554   2.738   7.478  0.3060 -0.2991  1.2581
   51CHL1  H15B 3720   4.617   2.901   7.407  0.6457  1.8014  1.7067
   51CHL1   C16 3721   4.568   2.901   7.623 -0.0324  0.3035 -0.6538
   51CHL1  H16A 3722   4.608   2.823   7.691 -0.3856  1.4819  0.9311
   51CHL1  H16B 3723   4.626   2.994   7.640 -0.1561 -0.3741  4.1092
   51CHL1   C17 3724   4.424   2.943   7.679  0.6730  0.7072  0.1170
   51CHL1   H17 3725   4.413   3.053   7.669 -0.1752  0.4589 -1.8002
   51CHL1   C13 3726   4.326   2.889   7.575  0.7908 -1.0912  0.5935
   51CHL1   C18 3727   4.292   2.744   7.604  0.9287 -0.0668  0.3150
   51CHL1  H18A 3728   4.246   2.692   7.517 -0.8720  1.6396  0.1892
   51CHL1  H18B 3729   4.385   2.685   7.614 -1.0216 -2.7732  3.0494
   51CHL1  H18C 3730   4.220   2.738   7.688  2.0964 -1.9025  1.1818
   51CHL1   C12 3731   4.197   2.972   7.545 -0.2702  0.1373  0.3651
   51CHL1  H12A 3732   4.125   2.950   7.627 -0.1337  4.4322  1.8017
   51CHL1  H12B 3733   4.221   3.081   7.547  1.3759 -0.2085  0.4614
   51CHL1   C11 3734   4.124   2.929   7.414  0.3347  0.0207  0.4332
   51CHL1  H11A 3735   4.093   2.824   7.433 -0.2630  0.7732  3.9988
   51CHL1  H11B 3736   4.032   2.988   7.393  0.3910  0.8384  2.3082
   51CHL1    C9 3737   4.220   2.944   7.289 -0.5901  0.1853  0.8235
   51CHL1    H9 3738   4.246   3.051   7.278 -1.1660 -0.0732 -4.3257
   51CHL1   C10 3739   4.155   2.901   7.154 -0.2145  0.0363 -0.2271
   51CHL1   C19 3740   4.078   2.775   7.187 -0.3224 -0.2806 -0.1765
   51CHL1  H19A 3741   3.982   2.809   7.231  0.2737  0.5698  0.4866
   51CHL1  H19B 3742   4.060   2.704   7.103  0.0162  0.7479 -1.1439
   51CHL1  H19C 3743   4.132   2.706   7.255  0.8476 -0.3834 -1.1816
   51CHL1    C1 3744   4.065   3.020   7.115  0.3238  0.1029 -0.2201
   51CHL1   H1A 3745   3.997   3.050   7.197  1.3143 -1.6527  1.2640
   51CHL1   H1B 3746   4.129   3.111   7.106 -0.4422  0.8234  1.3823
   51CHL1    C2 3747   4.005   2.997   6.973 -0.1806 -0.5038 -0.4949
   51CHL1   H2A 3748   3.943   3.084   6.941 -0.7043 -1.4875 -2.2176
   51CHL1   H2B 3749   3.931   2.917   6.992 -1.2295  0.6944  0.6122
   51CHL1   C20 3750   4.393   2.909   7.826  0.2288  0.5181 -0.7839
   51CHL1   H20 3751   4.391   2.800   7.846  2.0568  0.6020 -0.0113
   51CHL1   C21 3752   4.259   2.982   7.863 -0.5284 -0.3537 -0.1763
   51CHL1  H21A 3753   4.236   2.972   7.971 -2.0508 -1.6101 -0.6109
   51CHL1  H21B 3754   4.168   2.933   7.824 -0.3280  2.3208 -4.3141
   51CHL1  H21C 3755   4.256   3.083   7.817  1.7048  0.1389  0.6871
   51CHL1   C22 3756   4.506   2.968   7.915  0.8818  0.6947  0.9684
   51CHL1  H22A 3757   4.601   2.933   7.868 -0.7145 -0.7431 -1.2826
   51CHL1  H22B 3758   4.497   3.075   7.885  0.5761  0.1585 -0.9146
   51CHL1   C23 3759   4.496   2.954   8.062 -0.1651 -0.3340 -0.1714
   51CHL1  H23A 3760   4.397   2.990   8.096 -0.1611  1.3823 -1.8613
   51CHL1  H23B 3761   4.495   2.850   8.100  2.1070  0.2743  1.6820
   51CHL1   C24 3762   4.592   3.026   8.148 -0.7894 -0.2373 -0.8652
   51CHL1  H24A 3763   4.676   2.956   8.167 -1.3379 -0.8857 -0.8169
   51CHL1  H24B 3764   4.627   3.122   8.103 -0.5365 -0.3392 -0.8830
   51CHL1   C25 3765   4.532   3.048   8.294  0.2540 -0.6613 -0.0469
   51CHL1   H25 3766   4.444   3.114   8.282  0.9343  0.4120  0.7179
   51CHL1   C26 3767   4.490   2.925   8.377  0.3796  0.0948  0.2203
   51CHL1  H26A 3768   4.396   2.888   8.330 -0.7783  0.7315  1.9717
   51CHL1  H26B 3769   4.573   2.852   8.371  0.2578  0.0520 -1.0896
   51CHL1  H26C 3770   4.463   2.940   8.484  0.8629 -0.0501  0.3623
   51CHL1   C27 3771   4.633   3.130   8.379 -0.5104  0.5054  0.1621
   51CHL1  H27A 3772   4.584   3.148   8.476 -0.7908 -2.2835  0.5779
   51CHL1  H27B 3773   4.726   3.075   8.407 -0.7910 -0.7606 -1.2824
   51CHL1  H27C 3774   4.658   3.226   8.329  1.6129 -0.2741 -0.3747
   52CHL1    C3 3775   6.128   3.448   7.028  0.1189  0.5718  0.3687
   52CHL1    H3 3776   6.054   3.371   7.058  0.4400 -0.1345 -0.6381
   52CHL1    O3 3777   6.156   3.433   6.895 -1.0742  0.1370 -0.2648
   52CHL1   H3' 3778   6.172   3.342   6.868  2.1836  1.1672 -2.0941
   52CHL1    C4 3779   6.060   3.588   7.055 -0.3368 -0.1267 -0.0628
   52CHL1   H4A 3780   6.114   3.671   7.006  0.7873 -0.1992  1.0167
   52CHL1   H4B 3781   5.964   3.585   6.999 -0.7153  1.1974  0.5126
   52CHL1    C5 3782   6.036   3.623   7.201  0.0714 -0.2792 -0.3779
   52CHL1    C6 3783   5.922   3.678   7.239  0.0172  0.2828 -0.3631
   52CHL1    H6 3784   5.841   3.686   7.165 -0.3998  0.5634  0.1231
   52CHL1    C7 3785   5.903   3.716   7.376 -0.8008 -1.0830  0.0342
   52CHL1   H7A 3786   5.851   3.814   7.386 -1.3484 -0.9248 -3.5318
   52CHL1   H7B 3787   5.834   3.642   7.421 -0.9489 -0.9064  0.0983
   52CHL1    C8 3788   6.029   3.722   7.470 -0.5144  0.3914 -0.6276
   52CHL1    H8 3789   6.087   3.816   7.457  2.2204 -0.8968  1.9479
   52CHL1   C14 3790   5.991   3.711   7.619 -0.0524 -0.2515  0.1366
   52CHL1   H14 3791   5.959   3.606   7.639 -0.3153  0.1735  2.1415
   52CHL1   C15 3792   5.881   3.798   7.670  0.0921 -0.2352  0.1863
   52CHL1  H15A 3793   5.871   3.897   7.622 -0.1079  0.6828  2.0713
   52CHL1  H15B 3794   5.783   3.747   7.657  0.5097 -0.4203 -2.5049
   52CHL1   C16 3795   5.906   3.813   7.824  0.5860 -0.5899 -0.3704
   52CHL1  H16A 3796   5.926   3.917   7.857 -1.4653 -0.0596 -0.7308
   52CHL1  H16B 3797   5.811   3.778   7.869  0.7078 -0.4534 -0.0034
   52CHL1   C17 3798   6.034   3.737   7.855 -0.2762  0.3133 -0.2976
   52CHL1   H17 3799   6.002   3.632   7.872 -0.7657  0.4227 -0.5117
   52CHL1   C13 3800   6.112   3.737   7.717 -0.3427  0.1522  0.3435
   52CHL1   C18 3801   6.170   3.880   7.704  0.4584 -0.9881 -0.1866
   52CHL1  H18A 3802   6.198   3.901   7.598 -1.0860  1.6758 -0.1118
   52CHL1  H18B 3803   6.091   3.951   7.736  1.1779  1.7147 -4.0826
   52CHL1  H18C 3804   6.250   3.910   7.775 -0.9489  0.6728  0.7374
   52CHL1   C12 3805   6.210   3.619   7.690  0.3269  0.4888  0.3815
   52CHL1  H12A 3806   6.296   3.632   7.759 -0.0936 -1.9562  1.4404
   52CHL1  H12B 3807   6.153   3.533   7.731 -1.5234  1.2862 -0.4208
   52CHL1   C11 3808   6.243   3.597   7.538 -0.0375 -0.1723 -0.1449
   52CHL1  H11A 3809   6.309   3.685   7.521  0.3329 -0.6673 -1.3042
   52CHL1  H11B 3810   6.301   3.504   7.522 -1.8275 -1.1847 -0.8645
   52CHL1    C9 3811   6.124   3.609   7.440 -0.6879 -0.5528  0.3134
   52CHL1    H9 3812   6.076   3.512   7.461  1.6318 -1.2100  2.8522
   52CHL1   C10 3813   6.164   3.605   7.287 -0.5210 -0.0866 -0.1511
   52CHL1   C19 3814   6.252   3.724   7.255 -1.0448 -0.3705 -0.8511
   52CHL1  H19A 3815   6.196   3.820   7.264  0.4591  0.8615 -4.0041
   52CHL1  H19B 3816   6.341   3.725   7.321 -0.7910  0.0120 -1.1981
   52CHL1  H19C 3817   6.293   3.724   7.152  1.6100  4.3558  0.0694
   52CHL1    C1 3818   6.225   3.462   7.254 -0.8107  0.6952  0.8821
   52CHL1   H1A 3819   6.323   3.458   7.305 -0.3664 -0.5817 -0.0284
   52CHL1   H1B 3820   6.158   3.381   7.292  0.6963 -0.9393  0.1521
   52CHL1    C2 3821   6.253   3.425   7.109 -0.4697  1.0055 -0.1761
   52CHL1   H2A 3822   6.300   3.326   7.092  1.1234  1.6485  0.4050
   52CHL1   H2B 3823   6.334   3.485   7.062 -2.0934  2.3134 -1.3899
   52CHL1   C20 3824   6.113   3.789   7.977 -0.1905 -0.1742 -0.0680
   52CHL1   H20 3825   6.154   3.891   7.959  0.1804 -0.4943 -1.0234
   52CHL1   C21 3826   6.232   3.700   8.002  0.2064 -0.0798  0.0681
   52CHL1  H21A 3827   6.322   3.736   7.948  0.8484  0.1305  1.2582
   52CHL1  H21B 3828   6.218   3.593   7.976  0.0597  0.3382 -1.6112
   52CHL1  H21C 3829   6.258   3.692   8.110  0.2338  2.1172  0.2577
   52CHL1   C22 3830   6.035   3.805   8.109  0.3915 -0.4307  0.2277
   52CHL1  H22A 3831   6.101   3.848   8.187  3.1441 -3.2562 -0.4508
   52CHL1  H22B 3832   5.957   3.882   8.092 -0.4492 -0.9574  1.5501
   52CHL1   C23 3833   5.985   3.672   8.168  0.2967 -0.1832  0.0683
   52CHL1  H23A 3834   5.949   3.611   8.083 -0.7158  0.5813 -0.0634
   52CHL1  H23B 3835   6.070   3.624   8.221 -1.3223 -2.6583  0.4888
   52CHL1   C24 3836   5.872   3.704   8.265 -0.4470 -0.1259  0.4975
   52CHL1  H24A 3837   5.905   3.782   8.336 -2.5255  0.8646  0.4228
   52CHL1  H24B 3838   5.792   3.753   8.205 -1.0079 -0.1351  1.2410
   52CHL1   C25 3839   5.815   3.575   8.324  0.0801 -0.0023 -0.5794
   52CHL1   H25 3840   5.809   3.496   8.246 -0.7879  0.0175 -0.5384
   52CHL1   C26 3841   5.913   3.507   8.423 -0.7279  0.5386 -0.2954
   52CHL1  H26A 3842   5.933   3.563   8.517  0.0993 -0.5010  0.1666
   52CHL1  H26B 3843   5.889   3.404   8.455  2.0459  0.3156  1.2643
   52CHL1  H26C 3844   6.011   3.493   8.373 -1.2188  0.7090 -1.3069
   52CHL1   C27 3845   5.677   3.593   8.380  0.1922  0.1433  0.0120
   52CHL1  H27A 3846   5.640   3.492   8.405 -0.3606 -0.0211 -1.4181
   52CHL1  H27B 3847   5.675   3.651   8.475  0.1455  1.5540 -0.8304
   52CHL1  H27C 3848   5.613   3.640   8.302  0.2220  0.3092  0.0860
   53CHL1    C3 3849   1.633   0.341   6.963  0.2313 -0.0704 -0.6477
   53CHL1    H3 3850   1.587   0.442   6.970  1.7247  0.4806  2.4798
   53CHL1    O3 3851   1.585   0.288   6.838 -0.1686  0.5479 -0.6050
   53CHL1   H3' 3852   1.639   0.212   6.815 -0.1008  0.2523  0.5223
   53CHL1    C4 3853   1.787   0.342   6.982  0.2183  0.2486 -0.2853
   53CHL1   H4A 3854   1.822   0.237   6.979  0.9177  0.5043 -1.2396
   53CHL1   H4B 3855   1.834   0.399   6.899  2.2475 -2.1836 -0.8462
   53CHL1    C5 3856   1.825   0.412   7.106  0.8124 -0.0859  0.2090
   53CHL1    C6 3857   1.911   0.520   7.110 -0.3552 -0.5588 -0.7709
   53CHL1    H6 3858   1.959   0.565   7.022 -0.9472 -1.3803 -1.5299
   53CHL1    C7 3859   1.965   0.581   7.239  0.3951 -0.1904  0.6448
   53CHL1   H7A 3860   2.074   0.595   7.228  0.1677  2.6058  1.6435
   53CHL1   H7B 3861   1.920   0.680   7.259  0.3741 -0.2597  0.9420
   53CHL1    C8 3862   1.932   0.492   7.360  0.0274  0.3167 -0.3896
   53CHL1    H8 3863   1.994   0.400   7.360  0.4020  0.5555 -2.5465
   53CHL1   C14 3864   1.946   0.567   7.490  0.5980 -0.4478 -0.7824
   53CHL1   H14 3865   1.867   0.643   7.505  1.0131  0.0051 -0.8503
   53CHL1   C15 3866   2.086   0.635   7.512 -0.5000  0.1558  1.1765
   53CHL1  H15A 3867   2.164   0.568   7.472 -1.1767 -0.0025  0.0997
   53CHL1  H15B 3868   2.101   0.738   7.472  0.8300 -1.0134 -1.4064
   53CHL1   C16 3869   2.102   0.623   7.664 -0.7526 -0.3432  0.4919
   53CHL1  H16A 3870   2.177   0.544   7.685  0.0272  0.3865  0.5161
   53CHL1  H16B 3871   2.134   0.718   7.713 -3.4472  1.3027 -0.8374
   53CHL1   C17 3872   1.968   0.584   7.731  0.1738 -0.0905  0.1774
   53CHL1   H17 3873   1.913   0.680   7.727  2.5424  1.2497 -1.6395
   53CHL1   C13 3874   1.919   0.482   7.626  0.4619  0.5095  0.5037
   53CHL1   C18 3875   1.999   0.348   7.631  0.5746  0.2829 -0.6924
   53CHL1  H18A 3876   1.967   0.284   7.546 -0.8852  0.6405 -0.4264
   53CHL1  H18B 3877   2.109   0.362   7.625  0.7231 -1.0481 -1.3577
   53CHL1  H18C 3878   1.977   0.293   7.725 -1.9155  0.0284 -1.3928
   53CHL1   C12 3879   1.766   0.455   7.614 -0.4220 -0.2468  0.5521
   53CHL1  H12A 3880   1.723   0.404   7.702 -1.7894  2.0276  1.2109
   53CHL1  H12B 3881   1.716   0.552   7.632 -1.2478 -0.7388  0.9586
   53CHL1   C11 3882   1.729   0.376   7.484  0.3205  0.3589  0.4907
   53CHL1  H11A 3883   1.767   0.272   7.500  1.4201  0.6989  0.0835
   53CHL1  H11B 3884   1.618   0.372   7.481  0.3953 -1.4036 -1.3569
   53CHL1    C9 3885   1.786   0.434   7.353 -0.5797 -0.2120  0.0524
   53CHL1    H9 3886   1.715   0.520   7.346 -4.1295 -2.6984  3.3602
   53CHL1   C10 3887   1.763   0.348   7.231  0.5063  0.0843  0.0374
   53CHL1   C19 3888   1.822   0.200   7.255  0.5798  0.1452  0.2536
   53CHL1  H19A 3889   1.775   0.154   7.345  1.7822 -1.3291  0.1522
   53CHL1  H19B 3890   1.804   0.131   7.169  0.3372  0.9967 -0.3864
   53CHL1  H19C 3891   1.931   0.204   7.277  0.4674 -0.8992  1.0895
   53CHL1    C1 3892   1.605   0.337   7.217  0.0894  0.6138  0.4212
   53CHL1   H1A 3893   1.558   0.290   7.306 -1.6148  1.0222 -0.2400
   53CHL1   H1B 3894   1.563   0.440   7.215 -0.1917  0.5111  0.9144
   53CHL1    C2 3895   1.560   0.274   7.080 -0.1293 -0.6166 -0.1413
   53CHL1   H2A 3896   1.451   0.292   7.071 -0.2584 -1.7314 -0.8355
   53CHL1   H2B 3897   1.588   0.166   7.084  1.0690 -0.3438 -0.9092
   53CHL1   C20 3898   1.975   0.536   7.877  0.3426 -0.0631  0.2712
   53CHL1   H20 3899   1.968   0.425   7.881 -0.6912 -0.0385 -0.7094
   53CHL1   C21 3900   1.845   0.599   7.944 -0.1692 -0.2065  0.1291
   53CHL1  H21A 3901   1.861   0.709   7.957 -1.1612  0.0403 -0.6581
   53CHL1  H21B 3902   1.830   0.571   8.050  1.6966 -1.9502 -0.0335
   53CHL1  H21C 3903   1.763   0.564   7.877  1.5530 -0.1678 -2.0678
   53CHL1   C22 3904   2.098   0.600   7.962  0.4565 -0.8007 -0.1216
   53CHL1  H22A 3905   2.192   0.545   7.940  0.4566 -1.2603  1.0090
   53CHL1  H22B 3906   2.109   0.707   7.933  0.8821 -1.3186 -1.9099
   53CHL1   C23 3907   2.089   0.595   8.109  0.8743  0.1827  0.2971
   53CHL1  H23A 3908   2.019   0.675   8.140  0.3920  0.9092 -2.4966
   53CHL1  H23B 3909   2.048   0.495   8.137  2.3538 -0.7410 -0.7606
   53CHL1   C24 3910   2.215   0.627   8.185  0.3719  0.1168  0.4122
   53CHL1  H24A 3911   2.285   0.541   8.178 -2.3251 -2.1270  0.0944
   53CHL1  H24B 3912   2.252   0.719   8.135 -2.5771  0.8459 -0.5433
   53CHL1   C25 3913   2.208   0.654   8.338  0.0208 -1.0766  0.4963
   53CHL1   H25 3914   2.174   0.558   8.383 -1.7470 -0.7756 -0.1607
   53CHL1   C26 3915   2.346   0.702   8.385  0.4344  0.1368 -0.1120
   53CHL1  H26A 3916   2.369   0.799   8.336  0.1500 -0.9047 -2.3346
   53CHL1  H26B 3917   2.344   0.719   8.495  1.2443  1.3726 -0.2677
   53CHL1  H26C 3918   2.427   0.632   8.356 -0.4822 -0.0913 -2.2196
   53CHL1   C27 3919   2.109   0.767   8.384 -0.0427  0.2795 -0.2355
   53CHL1  H27A 3920   2.002   0.743   8.365  0.0217  0.4051 -0.7942
   53CHL1  H27B 3921   2.107   0.792   8.492 -3.3460  1.5586 -0.5211
   53CHL1  H27C 3922   2.138   0.861   8.331  3.4481 -2.0301 -2.6214
   54CHL1    C3 3923   2.316   2.431   6.931  1.3693  0.2041 -0.5828
   54CHL1    H3 3924   2.210   2.463   6.935  1.2816 -0.1852  0.4028
   54CHL1    O3 3925   2.348   2.428   6.789 -0.1753  0.3393  0.0998
   54CHL1   H3' 3926   2.417   2.492   6.767 -0.6344 -0.0585 -2.6602
   54CHL1    C4 3927   2.393   2.530   7.009  0.4430 -0.1522  0.0801
   54CHL1   H4A 3928   2.502   2.508   7.000 -0.0491 -2.2070 -1.0856
   54CHL1   H4B 3929   2.378   2.630   6.962  1.4106 -0.3976 -0.7974
   54CHL1    C5 3930   2.351   2.525   7.162 -0.3452 -0.8457 -0.0187
   54CHL1    C6 3931   2.298   2.637   7.224  0.3257 -0.5616 -1.0731
   54CHL1    H6 3932   2.288   2.734   7.174 -0.5867 -1.4127 -2.6044
   54CHL1    C7 3933   2.259   2.637   7.361 -0.3529  0.0152 -0.5961
   54CHL1   H7A 3934   2.282   2.732   7.415 -1.5034  0.4954 -0.9345
   54CHL1   H7B 3935   2.148   2.635   7.365 -0.3701  1.0226 -0.4011
   54CHL1    C8 3936   2.311   2.512   7.443 -0.0327  0.4916 -0.2903
   54CHL1    H8 3937   2.422   2.516   7.449  0.0084  0.1142 -0.7059
   54CHL1   C14 3938   2.242   2.503   7.582  0.6037 -0.0809  0.3464
   54CHL1   H14 3939   2.140   2.471   7.552 -1.0192  3.5580  1.7194
   54CHL1   C15 3940   2.228   2.627   7.677  0.3029 -0.0255 -0.3260
   54CHL1  H15A 3941   2.323   2.684   7.679 -1.3099  2.7695 -0.2818
   54CHL1  H15B 3942   2.145   2.688   7.634 -1.1207 -0.6266  1.4800
   54CHL1   C16 3943   2.200   2.565   7.819 -0.5806  1.1001 -0.5874
   54CHL1  H16A 3944   2.265   2.612   7.896 -0.8667  1.2527 -0.4342
   54CHL1  H16B 3945   2.095   2.591   7.846 -0.9277  0.9717 -1.8169
   54CHL1   C17 3946   2.207   2.406   7.801 -0.2084  0.0219  0.3668
   54CHL1   H17 3947   2.108   2.367   7.769 -0.1254  1.0422 -1.2082
   54CHL1   C13 3948   2.289   2.390   7.669  0.1586  0.8596 -1.1362
   54CHL1   C18 3949   2.443   2.405   7.709 -0.0517 -0.1301 -0.8397
   54CHL1  H18A 3950   2.499   2.387   7.614 -1.3058 -0.1453 -1.5922
   54CHL1  H18B 3951   2.465   2.506   7.750  0.1284 -1.4455  2.4138
   54CHL1  H18C 3952   2.476   2.332   7.786 -2.7349 -1.5546 -0.9777
   54CHL1   C12 3953   2.267   2.252   7.598 -0.8009 -0.0640 -0.0527
   54CHL1  H12A 3954   2.308   2.166   7.655 -1.8989 -0.9077 -0.5029
   54CHL1  H12B 3955   2.158   2.247   7.579 -0.8954 -0.1208  0.4932
   54CHL1   C11 3956   2.325   2.256   7.457 -0.4179  0.1913  0.5511
   54CHL1  H11A 3957   2.435   2.243   7.469 -0.3657 -2.7068 -2.3775
   54CHL1  H11B 3958   2.285   2.168   7.403 -0.7041  2.3137 -2.8333
   54CHL1    C9 3959   2.295   2.377   7.365  0.1875  0.6226 -0.4649
   54CHL1    H9 3960   2.186   2.383   7.341 -0.4402  0.6899  2.2208
   54CHL1   C10 3961   2.362   2.385   7.225 -0.3251 -0.4870 -0.3433
   54CHL1   C19 3962   2.510   2.342   7.246 -0.2971 -0.4179  0.0718
   54CHL1  H19A 3963   2.518   2.233   7.263  1.2424 -0.1443  1.2072
   54CHL1  H19B 3964   2.564   2.355   7.150 -0.0996  1.2549  0.3906
   54CHL1  H19C 3965   2.560   2.392   7.331 -1.6140  1.4020 -0.1958
   54CHL1    C1 3966   2.291   2.286   7.130  0.0155 -0.2974  0.3200
   54CHL1   H1A 3967   2.320   2.182   7.156  0.2497 -0.6346 -1.2175
   54CHL1   H1B 3968   2.182   2.303   7.136 -0.0130 -0.9873  2.1932
   54CHL1    C2 3969   2.333   2.287   6.981 -0.7755  0.3523 -0.1175
   54CHL1   H2A 3970   2.280   2.207   6.924  1.4391 -1.1733 -0.1355
   54CHL1   H2B 3971   2.441   2.258   6.974 -0.8471  0.3031 -0.9672
   54CHL1   C20 3972   2.246   2.330   7.930  0.6142  0.3249 -0.7074
   54CHL1   H20 3973   2.348   2.364   7.959 -0.1525  2.5287 -0.4702
   54CHL1   C21 3974   2.225   2.179   7.912  0.6564  0.3762 -0.6480
   54CHL1  H21A 3975   2.135   2.155   7.852 -0.8689 -1.2327  2.1576
   54CHL1  H21B 3976   2.216   2.121   8.006 -0.6166  0.4900 -0.6935
   54CHL1  H21C 3977   2.307   2.141   7.847  2.1075  1.4057  0.5349
   54CHL1   C22 3978   2.157   2.382   8.046 -0.0481 -0.4584  0.6875
   54CHL1  H22A 3979   2.185   2.488   8.063  1.2181 -0.4542 -1.3906
   54CHL1  H22B 3980   2.048   2.387   8.022  0.0759 -1.8094 -0.1649
   54CHL1   C23 3981   2.178   2.317   8.187 -0.3631  0.0511  0.7803
   54CHL1  H23A 3982   2.140   2.213   8.180 -1.4578  0.5004 -0.1816
   54CHL1  H23B 3983   2.289   2.305   8.192 -0.4967 -0.8761  1.7207
   54CHL1   C24 3984   2.109   2.402   8.294 -0.1934 -0.0076  0.3650
   54CHL1  H24A 3985   2.167   2.496   8.303  0.2520 -0.0816 -1.4824
   54CHL1  H24B 3986   2.007   2.430   8.259 -1.6110 -3.5346  1.4408
   54CHL1   C25 3987   2.093   2.336   8.428  0.5750 -0.5282  1.3372
   54CHL1   H25 3988   2.190   2.295   8.462  0.0829 -1.9755  1.0331
   54CHL1   C26 3989   2.065   2.438   8.539  0.3052 -0.7108 -0.0516
   54CHL1  H26A 3990   2.151   2.508   8.548 -0.2317 -0.0487 -0.0323
   54CHL1  H26B 3991   1.978   2.506   8.525 -0.0197 -0.2171  3.7799
   54CHL1  H26C 3992   2.065   2.384   8.636 -2.4540 -3.3299 -1.4363
   54CHL1   C27 3993   1.978   2.237   8.428  0.0129  0.3428  0.0943
   54CHL1  H27A 3994   1.984   2.181   8.524  1.3664  2.3021  1.1870
   54CHL1  H27B 3995   1.886   2.298   8.437  1.1395  1.9501  0.7984
   54CHL1  H27C 3996   1.977   2.169   8.340 -1.6960  1.1818 -0.5550
   55CHL1    C3 3997   1.936   4.169   7.057 -0.4502 -0.2281  0.8918
   55CHL1    H3 3998   1.827   4.157   7.044 -0.6961  0.5198  2.1596
   55CHL1    O3 3999   1.994   4.204   6.930  0.2492  0.3810  0.2964
   55CHL1   H3' 4000   1.955   4.129   6.884  1.4976 -0.1922  0.1431
   55CHL1    C4 4001   1.967   4.287   7.150  0.3304 -0.6560 -0.1101
   55CHL1   H4A 4002   2.072   4.319   7.133  0.1266  0.2687  0.3457
   55CHL1   H4B 4003   1.903   4.372   7.116  1.2654 -0.4011 -1.2765
   55CHL1    C5 4004   1.949   4.262   7.295  0.3963  0.1323 -0.2632
   55CHL1    C6 4005   1.887   4.351   7.372 -0.0371  0.8714 -0.0167
   55CHL1    H6 4006   1.851   4.439   7.315  2.9307  0.4881 -2.6268
   55CHL1    C7 4007   1.864   4.340   7.518 -0.5160  0.0789  0.1667
   55CHL1   H7A 4008   1.893   4.428   7.579  0.3582  0.2666 -0.5052
   55CHL1   H7B 4009   1.756   4.321   7.536 -0.8033 -0.8191 -2.2629
   55CHL1    C8 4010   1.952   4.226   7.578 -0.3681  0.4542  0.4173
   55CHL1    H8 4011   2.055   4.253   7.608 -0.2391 -1.3923  1.7127
   55CHL1   C14 4012   1.889   4.188   7.713  0.4276  0.3644 -0.4908
   55CHL1   H14 4013   1.786   4.156   7.686  0.3579  0.4371 -0.3096
   55CHL1   C15 4014   1.875   4.302   7.819 -0.5153  1.0929  0.2782
   55CHL1  H15A 4015   1.976   4.349   7.822  0.0649 -0.1369  0.5620
   55CHL1  H15B 4016   1.793   4.368   7.785 -1.4396  0.6410  1.5637
   55CHL1   C16 4017   1.845   4.222   7.946 -0.1412  0.3095  0.3707
   55CHL1  H16A 4018   1.923   4.256   8.018 -0.7276  0.7168  0.8136
   55CHL1  H16B 4019   1.746   4.254   7.984 -0.1327  1.2351 -0.3653
   55CHL1   C17 4020   1.861   4.065   7.911  0.1957  0.7978 -0.3928
   55CHL1   H17 4021   1.759   4.036   7.877  0.7023 -0.3932 -0.9199
   55CHL1   C13 4022   1.946   4.065   7.784 -0.4133 -0.6025 -0.0027
   55CHL1   C18 4023   2.091   4.096   7.825 -0.6730  0.5795 -0.2116
   55CHL1  H18A 4024   2.146   4.008   7.864 -0.6418 -0.1836 -1.9269
   55CHL1  H18B 4025   2.150   4.130   7.737 -0.7315  2.1590  0.3521
   55CHL1  H18C 4026   2.086   4.171   7.906 -1.6139  1.2732 -0.9127
   55CHL1   C12 4027   1.930   3.945   7.690 -0.3287  0.2082 -0.3909
   55CHL1  H12A 4028   1.969   3.849   7.732 -1.5439  0.8670  2.3213
   55CHL1  H12B 4029   1.822   3.924   7.678 -0.2724  0.8383 -2.1933
   55CHL1   C11 4030   1.992   3.959   7.559  0.3528  0.3756 -0.1184
   55CHL1  H11A 4031   2.102   3.972   7.560  0.1167  2.5824  0.9938
   55CHL1  H11B 4032   1.961   3.876   7.494 -1.0376  1.8488 -1.3818
   55CHL1    C9 4033   1.933   4.090   7.487  0.0038  0.4653  0.2227
   55CHL1    H9 4034   1.826   4.070   7.469  0.4708 -0.0606 -2.0839
   55CHL1   C10 4035   1.991   4.122   7.344 -0.2882 -0.3499 -0.5505
   55CHL1   C19 4036   2.153   4.110   7.344 -0.0475  0.6702 -0.2464
   55CHL1  H19A 4037   2.200   4.132   7.245 -0.2074  2.4936  0.0654
   55CHL1  H19B 4038   2.175   4.193   7.415  0.4242 -0.0868  0.5026
   55CHL1  H19C 4039   2.192   4.013   7.381 -0.3672  0.6750  0.1071
   55CHL1    C1 4040   1.942   4.009   7.249  0.9434  0.5091  0.3149
   55CHL1   H1A 4041   1.962   3.905   7.284 -0.2136  0.1873  0.0458
   55CHL1   H1B 4042   1.831   4.012   7.242  0.9007  1.5029  1.2508
   55CHL1    C2 4043   1.985   4.029   7.102  0.2845  0.6698  0.0836
   55CHL1   H2A 4044   1.951   3.952   7.029 -1.6421  2.3253 -0.7982
   55CHL1   H2B 4045   2.096   4.038   7.097  0.3173  0.3237  0.1399
   55CHL1   C20 4046   1.909   3.991   8.033 -0.4987 -0.3104  0.9772
   55CHL1   H20 4047   2.012   4.029   8.050 -1.0866  1.5323  0.4614
   55CHL1   C21 4048   1.897   3.843   8.000 -0.4228  0.2100  0.2227
   55CHL1  H21A 4049   1.879   3.782   8.092  0.3788  0.8138  0.7959
   55CHL1  H21B 4050   1.995   3.813   7.958  0.0440  0.2478  1.2458
   55CHL1  H21C 4051   1.815   3.807   7.935  1.7405  0.1917 -2.5989
   55CHL1   C22 4052   1.835   4.025   8.167  0.1970 -0.2406  0.5282
   55CHL1  H22A 4053   1.840   4.135   8.179 -0.3662  0.0633 -1.8563
   55CHL1  H22B 4054   1.725   4.006   8.160  0.0130  1.3595 -1.1624
   55CHL1   C23 4055   1.892   3.951   8.295 -0.1530  0.2026  0.0975
   55CHL1  H23A 4056   1.843   3.851   8.301 -1.2804  0.7845  0.8105
   55CHL1  H23B 4057   2.001   3.934   8.279 -0.0728  3.2167 -3.2023
   55CHL1   C24 4058   1.849   4.029   8.419  0.9573  0.5385  0.1774
   55CHL1  H24A 4059   1.889   4.133   8.416 -0.7524  1.2479  1.1230
   55CHL1  H24B 4060   1.738   4.036   8.413  0.9728  1.3540  0.7918
   55CHL1   C25 4061   1.898   3.958   8.555 -0.0778  0.7974  0.0600
   55CHL1   H25 4062   2.009   3.960   8.547  0.0344 -1.1604  0.8867
   55CHL1   C26 4063   1.866   4.045   8.679  0.2417 -0.2245 -0.9376
   55CHL1  H26A 4064   1.762   4.024   8.712 -1.1979  3.9726 -2.3724
   55CHL1  H26B 4065   1.944   4.028   8.757  0.5937  2.1249 -0.7351
   55CHL1  H26C 4066   1.860   4.153   8.651  1.1218  0.3094  0.8133
   55CHL1   C27 4067   1.838   3.813   8.561 -0.1822  0.0910 -0.1778
   55CHL1  H27A 4068   1.727   3.804   8.556 -0.1436 -1.3966  1.4363
   55CHL1  H27B 4069   1.882   3.765   8.471 -0.6674  0.6302 -0.7121
   55CHL1  H27C 4070   1.865   3.750   8.648  3.2488 -0.0700 -1.2988
   56CHL1    C3 4071   1.643   1.858   6.859 -0.4772  0.1598  0.4186
   56CHL1    H3 4072   1.733   1.916   6.887  1.6403 -1.7720 -2.1243
   56CHL1    O3 4073   1.655   1.817   6.727  0.3710  0.1794  0.0193
   56CHL1   H3' 4074   1.579   1.761   6.710  1.7422 -0.9630 -2.7922
   56CHL1    C4 4075   1.644   1.735   6.948 -0.1575 -0.8216 -0.4922
   56CHL1   H4A 4076   1.571   1.654   6.925 -1.7611  0.6790 -0.7876
   56CHL1   H4B 4077   1.745   1.692   6.934  0.0232 -1.1866  1.7536
   56CHL1    C5 4078   1.615   1.776   7.096 -0.3203 -0.0637  0.7809
   56CHL1    C6 4079   1.690   1.721   7.196  0.0906 -0.3662 -0.4074
   56CHL1    H6 4080   1.776   1.658   7.171 -0.2206 -0.4819 -1.2016
   56CHL1    C7 4081   1.661   1.734   7.341 -0.4421 -0.4514  0.1519
   56CHL1   H7A 4082   1.660   1.636   7.393 -1.0276 -0.5230  0.0106
   56CHL1   H7B 4083   1.746   1.789   7.387  0.8480 -2.6602  0.4651
   56CHL1    C8 4084   1.527   1.804   7.372 -0.0068  0.3914 -0.3897
   56CHL1    H8 4085   1.440   1.740   7.344  1.3427 -2.3575  1.4592
   56CHL1   C14 4086   1.527   1.854   7.515  0.2588 -0.2377  0.1112
   56CHL1   H14 4087   1.602   1.935   7.509 -0.5904  0.4227 -2.2631
   56CHL1   C15 4088   1.558   1.760   7.631  0.0694  0.5040  0.0583
   56CHL1  H15A 4089   1.501   1.665   7.621  1.6846 -0.4421 -0.4255
   56CHL1  H15B 4090   1.668   1.741   7.632 -0.1020 -0.5239  0.0691
   56CHL1   C16 4091   1.506   1.831   7.757 -1.0830 -0.7229  0.0879
   56CHL1  H16A 4092   1.433   1.760   7.800 -4.0047  1.3817 -1.2663
   56CHL1  H16B 4093   1.582   1.860   7.832 -0.0936 -1.0403 -0.7761
   56CHL1   C17 4094   1.432   1.966   7.711  0.0319  0.3660 -0.0419
   56CHL1   H17 4095   1.509   2.046   7.706  1.2469 -0.8483 -1.2084
   56CHL1   C13 4096   1.404   1.934   7.559  0.4248 -0.3107 -0.0507
   56CHL1   C18 4097   1.277   1.839   7.544  0.1591  0.3368 -0.0563
   56CHL1  H18A 4098   1.274   1.810   7.436 -0.0250  0.9698 -0.2208
   56CHL1  H18B 4099   1.293   1.749   7.608  1.6643  0.7411  0.1515
   56CHL1  H18C 4100   1.194   1.900   7.585  0.2692  0.3995  0.0736
   56CHL1   C12 4101   1.382   2.052   7.470 -0.0304  0.0526 -0.5749
   56CHL1  H12A 4102   1.280   2.094   7.480  0.6575  1.8455 -0.8103
   56CHL1  H12B 4103   1.459   2.128   7.493  0.4659 -0.0454 -1.8504
   56CHL1   C11 4104   1.384   2.011   7.314 -0.1264 -0.4521 -0.4987
   56CHL1  H11A 4105   1.294   1.948   7.298 -0.1096 -0.5561 -0.1860
   56CHL1  H11B 4106   1.385   2.102   7.251  2.6932  0.4455  0.7856
   56CHL1    C9 4107   1.511   1.922   7.279 -0.8842 -0.5019  0.2378
   56CHL1    H9 4108   1.599   1.989   7.292 -1.3026  0.1964 -0.5547
   56CHL1   C10 4109   1.498   1.874   7.128  1.0444  0.1595  0.6841
   56CHL1   C19 4110   1.371   1.791   7.100  0.5728 -0.2197  0.2583
   56CHL1  H19A 4111   1.275   1.843   7.122  0.5709  0.4122 -1.1868
   56CHL1  H19B 4112   1.381   1.775   6.991 -2.0197 -0.1823 -0.0081
   56CHL1  H19C 4113   1.371   1.692   7.150 -0.9840 -0.1476  0.4204
   56CHL1    C1 4114   1.500   1.999   7.025 -0.2428  0.0713 -0.3901
   56CHL1   H1A 4115   1.406   2.055   7.040  1.3191  2.4811  0.7430
   56CHL1   H1B 4116   1.585   2.062   7.060 -0.7144  0.0504  0.8045
   56CHL1    C2 4117   1.520   1.952   6.882  0.0216  0.0659 -0.0937
   56CHL1   H2A 4118   1.532   2.037   6.811  0.8646 -0.8843 -1.1198
   56CHL1   H2B 4119   1.431   1.894   6.851  1.0227 -0.7152 -1.5789
   56CHL1   C20 4120   1.312   2.005   7.793  0.3770 -0.1809  0.5057
   56CHL1   H20 4121   1.245   1.918   7.810  1.5437 -0.6223  3.0631
   56CHL1   C21 4122   1.232   2.124   7.733 -0.2084  0.2600 -0.2972
   56CHL1  H21A 4123   1.161   2.175   7.802  1.3085 -0.7576  2.1066
   56CHL1  H21B 4124   1.165   2.099   7.649 -1.6863 -0.1667  0.9840
   56CHL1  H21C 4125   1.295   2.205   7.690 -2.5128  1.4726 -1.4578
   56CHL1   C22 4126   1.359   2.059   7.928 -0.1728 -0.5005  0.2572
   56CHL1  H22A 4127   1.468   2.052   7.950  0.5163  3.6365 -1.3417
   56CHL1  H22B 4128   1.351   2.170   7.921 -0.3143 -0.5779 -0.9114
   56CHL1   C23 4129   1.268   2.007   8.037  0.3147  0.4479 -0.2347
   56CHL1  H23A 4130   1.167   2.052   8.026 -0.1437 -1.0565 -2.4951
   56CHL1  H23B 4131   1.259   1.897   8.029 -0.7440  0.3095  2.5811
   56CHL1   C24 4132   1.314   2.033   8.180 -0.8181 -0.0026 -0.1282
   56CHL1  H24A 4133   1.424   2.019   8.186 -0.7930 -0.1535 -0.8605
   56CHL1  H24B 4134   1.300   2.140   8.205 -1.3430 -0.3604  1.1297
   56CHL1   C25 4135   1.256   1.937   8.286 -0.0037  0.3576 -0.6491
   56CHL1   H25 4136   1.149   1.930   8.256 -0.2397 -1.5185  0.5469
   56CHL1   C26 4137   1.315   1.792   8.290  0.0366  0.4049  0.0782
   56CHL1  H26A 4138   1.259   1.736   8.369 -0.2490  1.4793  0.6423
   56CHL1  H26B 4139   1.424   1.795   8.312 -0.2372 -1.1707  1.8605
   56CHL1  H26C 4140   1.286   1.721   8.210 -0.7509 -1.1554  1.6876
   56CHL1   C27 4141   1.264   2.002   8.421  0.3091  0.1538 -0.0995
   56CHL1  H27A 4142   1.368   1.999   8.460  0.2265 -1.1930  0.0449
   56CHL1  H27B 4143   1.219   2.103   8.416  0.1314  0.0914  0.2435
   56CHL1  H27C 4144   1.208   1.941   8.495  1.6490 -2.1784 -0.9549
   57SAPC     N 4145   1.767   4.732  10.956  0.6789  0.2828  0.2186
   57SAPC   C12 4146   1.709   4.756  10.819 -0.2706  0.2404 -0.3944
   57SAPC  H12A 4147   1.738   4.852  10.779 -1.4087  0.6822 -0.1727
   57SAPC  H12B 4148   1.603   4.767  10.832 -0.4083 -0.5577 -0.8317
   57SAPC   C13 4149   1.723   4.604  11.013 -0.0914 -0.5056 -0.2302
   57SAPC  H13A 4150   1.729   4.519  10.946 -3.3529 -2.2456  1.5704
   57SAPC  H13B 4151   1.757   4.583  11.114 -1.1485 -2.8208 -0.3259
   57SAPC  H13C 4152   1.617   4.618  11.028 -0.1808 -0.5372 -0.8427
   57SAPC   C14 4153   1.917   4.738  10.948 -0.5473 -0.6930  0.6883
   57SAPC  H14A 4154   1.951   4.690  10.857  0.2634  1.9794 -0.4642
   57SAPC  H14B 4155   1.942   4.843  10.953 -0.5645 -0.6915  0.7370
   57SAPC  H14C 4156   1.967   4.684  11.026  2.5080  0.1511 -0.6232
   57SAPC   C15 4157   1.706   4.838  11.037  0.2170  0.7550  0.3578
   57SAPC  H15A 4158   1.731   4.933  10.992 -0.1480  0.1354 -1.1977
   57SAPC  H15B 4159   1.601   4.816  11.048  0.5156 -0.2948  1.2169
   57SAPC  H15C 4160   1.750   4.837  11.135 -1.0605  0.5721  0.9353
   57SAPC   C11 4161   1.719   4.650  10.714 -0.4101 -0.4609  0.6267
   57SAPC  H11A 4162   1.668   4.685  10.622 -0.9404  2.2898  1.9415
   57SAPC  H11B 4163   1.665   4.562  10.755 -2.2707  0.8277  1.0070
   57SAPC     P 4164   1.869   4.455  10.632  0.0030 -0.3262 -0.0206
   57SAPC   O13 4165   1.929   4.379  10.744 -0.3699  0.0040 -0.4346
   57SAPC   O14 4166   1.741   4.394  10.587 -0.1421 -0.2331  0.0649
   57SAPC   O12 4167   1.857   4.614  10.676  0.1833  0.0129  0.2409
   57SAPC   O11 4168   1.971   4.456  10.518 -0.6567 -0.0892  0.5314
   57SAPC    C1 4169   2.015   4.575  10.441 -0.5516  0.5621 -0.8626
   57SAPC    HA 4170   2.003   4.669  10.499  2.0459  0.2200  0.2875
   57SAPC    HB 4171   2.121   4.560  10.413 -0.5215 -1.8476  0.4018
   57SAPC    C2 4172   1.941   4.602  10.311  0.0647 -0.3417  0.1939
   57SAPC    HS 4173   1.832   4.585  10.328 -0.1700  0.0172 -0.9476
   57SAPC   O21 4174   1.985   4.505  10.218 -0.0896  0.8138 -0.8153
   57SAPC   C21 4175   1.914   4.484  10.114 -0.6784 -0.8098  0.4576
   57SAPC   O22 4176   1.792   4.502  10.098 -0.1129  0.1252  0.0546
   57SAPC   C22 4177   2.000   4.412  10.009 -0.1258 -0.1993  0.3643
   57SAPC   H2R 4178   2.098   4.396  10.059 -0.7736 -2.9136  0.8107
   57SAPC   H2S 4179   1.953   4.314   9.987  0.8743 -0.0196 -2.8843
   57SAPC    C3 4180   1.965   4.749  10.262  0.7825 -0.1381 -0.5062
   57SAPC    HX 4181   2.075   4.770  10.260  1.1271 -1.8843 -0.3441
   57SAPC    HY 4182   1.925   4.822  10.335 -1.8982 -1.9124 -0.1662
   57SAPC   O31 4183   1.910   4.762  10.131  0.1823  0.9273  0.1659
   57SAPC   C31 4184   1.824   4.856  10.103 -0.7114 -0.2445  0.1929
   57SAPC   O32 4185   1.775   4.935  10.180 -0.5706  0.9339  0.2684
   57SAPC   C32 4186   1.798   4.846   9.957  0.0343 -0.0066  0.4595
   57SAPC   H2X 4187   1.713   4.780   9.933 -0.2646  0.7938 -0.7381
   57SAPC   H2Y 4188   1.885   4.797   9.906  0.5359  0.3290  0.9847
   57SAPC   C23 4189   2.011   4.489   9.877 -0.0273 -0.4189 -0.2508
   57SAPC   H3R 4190   2.024   4.598   9.890  1.4970 -0.3526 -2.1847
   57SAPC   H3S 4191   1.925   4.472   9.809  1.0627 -2.0459 -1.2586
   57SAPC   C24 4192   2.137   4.449   9.796  0.0960 -0.0101  0.1141
   57SAPC   H4R 4193   2.227   4.471   9.857 -0.6800  1.3169  0.8013
   57SAPC   H4S 4194   2.153   4.525   9.716  3.5513 -1.4030 -0.6188
   57SAPC   C25 4195   2.123   4.306   9.742  0.4757  0.2387 -0.8852
   57SAPC   H5R 4196   2.117   4.221   9.812 -0.4712  0.8825 -0.1789
   57SAPC   C26 4197   2.109   4.279   9.605 -0.2559  0.9061  0.1872
   57SAPC   H6R 4198   2.103   4.172   9.582  1.5382  0.3341  2.1560
   57SAPC   C27 4199   2.105   4.387   9.500  0.7190 -0.3699  0.1866
   57SAPC   H7R 4200   2.168   4.474   9.529 -0.1672  0.5536 -0.6095
   57SAPC   H7S 4201   1.999   4.421   9.504  0.9491  1.1799 -4.1737
   57SAPC   C28 4202   2.163   4.343   9.367  0.3464  0.0779 -0.4840
   57SAPC   H8R 4203   2.228   4.258   9.389 -1.5917 -1.2384  0.2786
   57SAPC   C29 4204   2.144   4.392   9.245 -0.3696  0.4514  0.4620
   57SAPC   H9R 4205   2.197   4.333   9.169 -1.9941  1.6367 -1.6307
   57SAPC  C210 4206   2.055   4.515   9.214  0.1342  0.1088 -0.4653
   57SAPC  H10R 4207   2.115   4.608   9.207 -1.5564  1.3222  0.8595
   57SAPC  H10S 4208   1.977   4.529   9.291 -0.0378  0.3560 -0.6824
   57SAPC  C211 4209   1.980   4.499   9.080 -0.0395 -0.2583  0.1106
   57SAPC  H11R 4210   1.997   4.404   9.026  2.9981  1.7259 -2.6566
   57SAPC  C212 4211   1.891   4.581   9.020 -0.0889 -0.3707 -0.4485
   57SAPC  H12R 4212   1.853   4.549   8.922 -1.9230  2.4125 -0.7149
   57SAPC  C213 4213   1.847   4.719   9.064 -0.1998 -0.1700 -0.2472
   57SAPC  H13R 4214   1.937   4.781   9.084 -0.3540 -0.1796  0.4781
   57SAPC  H13S 4215   1.812   4.712   9.169  0.2406 -1.8524 -0.2008
   57SAPC  C214 4216   1.743   4.782   8.974  0.6231  0.2872  0.2860
   57SAPC  H14R 4217   1.642   4.741   8.983  0.5585  0.3124 -0.3263
   57SAPC  C215 4218   1.758   4.884   8.889  0.7795  0.1792  0.2748
   57SAPC  H15R 4219   1.664   4.921   8.845 -0.0095 -1.8305  0.2237
   57SAPC  C216 4220   1.885   4.959   8.858 -0.4112  0.1073  0.5092
   57SAPC  H16R 4221   1.975   4.903   8.889  0.4082  1.2409  0.1950
   57SAPC  H16S 4222   1.873   5.058   8.907  0.2188  0.8978 -0.9083
   57SAPC  C217 4223   1.890   4.972   8.702  0.6162 -0.9591  0.4458
   57SAPC  H17R 4224   1.806   5.043   8.686 -0.6266 -1.5106  4.1263
   57SAPC  H17S 4225   1.860   4.874   8.660  0.6558 -0.5451 -0.5790
   57SAPC  C218 4226   2.031   5.002   8.658 -0.3570  0.1187  0.3329
   57SAPC  H18R 4227   2.107   4.938   8.708  0.8139  2.0736  1.1250
   57SAPC  H18S 4228   2.059   5.104   8.692 -0.0152  0.7099 -1.6638
   57SAPC  C219 4229   2.048   5.002   8.512 -0.3830 -0.7421 -0.8252
   57SAPC  H19R 4230   2.044   4.896   8.479  1.8063 -1.2084  0.3159
   57SAPC  H19S 4231   2.143   5.050   8.480 -1.6002  2.0332 -0.4104
   57SAPC  C220 4232   1.936   5.080   8.437  0.0854 -0.6770 -0.2572
   57SAPC  H20R 4233   1.961   5.113   8.334  0.2686 -1.7716 -0.5697
   57SAPC  H20S 4234   1.907   5.165   8.502 -0.9255  0.6702 -2.4541
   57SAPC  H20T 4235   1.845   5.017   8.436 -2.3486  2.7176  0.0995
   57SAPC   C33 4236   1.776   4.986   9.886  0.6162 -0.1829  0.4364
   57SAPC   H3X 4237   1.876   5.033   9.887 -0.6276  2.5798  0.2535
   57SAPC   H3Y 4238   1.715   5.059   9.944  2.4294  1.8930 -0.1992
   57SAPC   C34 4239   1.724   4.978   9.741 -0.4607  0.1133 -0.3535
   57SAPC   H4X 4240   1.716   5.081   9.700 -3.1544  0.6576  1.4215
   57SAPC   H4Y 4241   1.619   4.943   9.741  0.2433 -2.3332  4.0552
   57SAPC   C35 4242   1.786   4.873   9.651  0.6142 -0.3283 -0.1060
   57SAPC   H5X 4243   1.760   4.775   9.697 -2.6081  0.5402  0.1014
   57SAPC   H5Y 4244   1.895   4.888   9.640  0.7967 -0.3392  1.5268
   57SAPC   C36 4245   1.722   4.863   9.512 -0.0269  0.0780 -0.7687
   57SAPC   H6X 4246   1.763   4.765   9.477  0.4957 -0.4143  1.1594
   57SAPC   H6Y 4247   1.765   4.947   9.453 -0.6216  0.2530 -0.9500
   57SAPC   C37 4248   1.570   4.857   9.510 -0.1043  0.5615  0.4285
   57SAPC   H7X 4249   1.514   4.942   9.554  0.1043  1.1018 -0.3361
   57SAPC   H7Y 4250   1.548   4.768   9.573 -1.3361  0.0837 -0.6372
   57SAPC   C38 4251   1.524   4.793   9.382 -0.0654  0.2004 -0.3464
   57SAPC   H8X 4252   1.417   4.764   9.392  0.0328  0.2241  0.7997
   57SAPC   H8Y 4253   1.587   4.702   9.369 -1.0417 -0.2298 -2.1514
   57SAPC   C39 4254   1.538   4.872   9.258  1.2123 -0.6174 -0.7787
   57SAPC   H9X 4255   1.489   4.817   9.175  1.8299  1.1398 -2.3551
   57SAPC   H9Y 4256   1.647   4.889   9.249  1.2910 -0.8190 -0.2038
   57SAPC  C310 4257   1.484   5.011   9.268  0.1715 -0.2870 -0.9800
   57SAPC  H10X 4258   1.535   5.062   9.352 -0.4800 -0.1548 -0.6574
   57SAPC  H10Y 4259   1.381   5.015   9.309  1.5390  1.5607  2.5018
   57SAPC  C311 4260   1.487   5.087   9.133  0.3156  0.0217 -0.0510
   57SAPC  H11X 4261   1.587   5.076   9.086  0.9104 -1.8666  1.6162
   57SAPC  H11Y 4262   1.457   5.194   9.144 -1.3247 -0.6827  2.7267
   57SAPC  C312 4263   1.391   5.033   9.026 -0.0473  0.1669 -0.1131
   57SAPC  H12X 4264   1.299   5.005   9.083  2.5651  0.5233  4.5195
   57SAPC  H12Y 4265   1.428   4.935   8.988  0.3591  0.0584  0.5503
   57SAPC  C313 4266   1.371   5.133   8.909  0.5060  0.0711  0.0479
   57SAPC  H13X 4267   1.470   5.170   8.875  0.9322  0.1580  1.3333
   57SAPC  H13Y 4268   1.321   5.224   8.948  0.5932  0.2280 -0.2086
   57SAPC  C314 4269   1.293   5.077   8.790 -0.9395 -0.5326  0.1154
   57SAPC  H14X 4270   1.346   4.989   8.749  1.0183 -0.4402  2.2970
   57SAPC  H14Y 4271   1.290   5.157   8.713  1.4064 -2.4721 -2.0534
   57SAPC  C315 4272   1.147   5.040   8.815 -0.0540  0.4712 -0.4649
   57SAPC  H15X 4273   1.113   5.122   8.881  0.4202  0.4945 -0.2439
   57SAPC  H15Y 4274   1.162   4.949   8.877  0.0710 -0.6781 -2.1355
   57SAPC  C316 4275   1.062   5.024   8.686 -0.3758  0.5309  0.2755
   57SAPC  H16X 4276   1.111   4.952   8.616  0.2685  0.7308  0.5164
   57SAPC  H16Y 4277   1.065   5.121   8.632  1.1666 -0.6083 -1.7398
   57SAPC  C317 4278   0.923   4.977   8.716  0.3391 -0.0570  0.7529
   57SAPC  H17X 4279   0.881   5.057   8.781 -2.1027 -0.1666 -0.6493
   57SAPC  H17Y 4280   0.950   4.889   8.778  2.1393 -0.1144 -0.0806
   57SAPC  C318 4281   0.816   4.961   8.609  0.4968 -0.3352 -0.2987
   57SAPC  H18X 4282   0.773   5.060   8.581 -0.4503 -0.2166  1.4793
   57SAPC  H18Y 4283   0.734   4.909   8.663 -0.4900 -0.6007 -2.0146
   57SAPC  H18Z 4284   0.855   4.908   8.519 -0.0433 -1.0109 -0.1415
   58SAPC     N 4285   3.868   2.578  10.893  0.0762 -0.1080  0.3997
   58SAPC   C12 4286   3.824   2.590  10.755 -0.9044  0.2966 -0.7807
   58SAPC  H12A 4287   3.721   2.558  10.750 -0.1136 -2.4841 -0.1877
   58SAPC  H12B 4288   3.875   2.521  10.689 -2.4437 -2.3307  0.7098
   58SAPC   C13 4289   4.011   2.618  10.905  0.4471 -0.5083  0.1593
   58SAPC  H13A 4290   4.070   2.556  10.840 -0.4837 -0.3651 -0.8430
   58SAPC  H13B 4291   4.030   2.721  10.880 -0.2600 -0.5971 -0.7962
   58SAPC  H13C 4292   4.037   2.608  11.009 -1.9652 -1.2996  0.7432
   58SAPC   C14 4293   3.789   2.673  10.977 -0.7088  0.1884  0.2244
   58SAPC  H14A 4294   3.796   2.773  10.936 -2.4125  0.0585 -0.3937
   58SAPC  H14B 4295   3.684   2.648  10.978 -0.9068  0.9838  0.7984
   58SAPC  H14C 4296   3.823   2.680  11.080 -1.3645  1.0791  0.3852
   58SAPC   C15 4297   3.839   2.443  10.951  0.7274 -0.2861  0.0624
   58SAPC  H15A 4298   3.737   2.415  10.929  0.0433  1.4928  0.8941
   58SAPC  H15B 4299   3.902   2.371  10.901  1.4955  0.3077  0.1583
   58SAPC  H15C 4300   3.844   2.426  11.057  1.0802  1.2948  0.3221
   58SAPC   C11 4301   3.838   2.734  10.688  0.0074  0.3790 -0.1356
   58SAPC  H11A 4302   3.756   2.801  10.723  0.5779  0.7288  0.5400
   58SAPC  H11B 4303   3.809   2.717  10.582  1.0547  1.6143 -0.6320
   58SAPC     P 4304   3.990   2.951  10.702 -0.0144  0.4097  0.0688
   58SAPC   O13 4305   3.860   3.027  10.723 -1.0213 -0.4188  0.0309
   58SAPC   O14 4306   4.095   2.995  10.800 -0.4823  0.0268  0.0658
   58SAPC   O12 4307   3.973   2.795  10.689 -0.3860 -0.1881  0.2927
   58SAPC   O11 4308   4.040   2.983  10.552  0.0317 -0.4095 -0.2133
   58SAPC    C1 4309   3.948   2.979  10.440 -0.0008  0.0917  0.0965
   58SAPC    HA 4310   3.841   2.979  10.470 -0.0351 -0.8468  0.0003
   58SAPC    HB 4311   3.967   3.067  10.375  0.0354 -0.3264 -0.4592
   58SAPC    C2 4312   3.994   2.861  10.347  0.0233  0.1314 -0.7041
   58SAPC    HS 4313   4.041   2.788  10.417 -0.5409 -0.3052 -0.7769
   58SAPC   O21 4314   4.084   2.917  10.253 -0.1012 -0.1545 -1.2205
   58SAPC   C21 4315   4.177   2.833  10.217 -0.6825 -0.3138 -0.8797
   58SAPC   O22 4316   4.185   2.717  10.258  0.0452 -0.2902  0.0949
   58SAPC   C22 4317   4.279   2.897  10.130 -0.3591  0.1088  0.0095
   58SAPC   H2R 4318   4.264   3.006  10.110  1.2679  0.1646 -1.0115
   58SAPC   H2S 4319   4.374   2.888  10.186 -0.2600  0.1186 -0.1567
   58SAPC    C3 4320   3.877   2.800  10.264 -0.0295  0.4651 -0.1760
   58SAPC    HX 4321   3.835   2.885  10.206 -1.7758  0.4897  1.0724
   58SAPC    HY 4322   3.804   2.775  10.344  0.9001  1.2156  0.9222
   58SAPC   O31 4323   3.925   2.701  10.175  0.4860 -0.2878 -0.3866
   58SAPC   C31 4324   3.919   2.576  10.229 -0.4029 -0.3577 -0.2230
   58SAPC   O32 4325   3.864   2.551  10.335  0.5308  0.1554  0.0933
   58SAPC   C32 4326   3.962   2.469  10.131  0.4180  0.5005 -0.5295
   58SAPC   H2X 4327   4.011   2.520  10.045  0.2110  2.7683  0.6644
   58SAPC   H2Y 4328   3.870   2.411  10.106  0.3277  0.3509  0.1445
   58SAPC   C23 4329   4.307   2.817   9.999 -0.1065 -1.1183 -0.4823
   58SAPC   H3R 4330   4.338   2.714  10.023  1.8491 -0.7217 -1.2491
   58SAPC   H3S 4331   4.390   2.870   9.947  0.5229 -2.0347 -0.4199
   58SAPC   C24 4332   4.175   2.804   9.911 -0.3924  0.1303  0.1606
   58SAPC   H4R 4333   4.101   2.750   9.974 -1.0125 -1.8406 -2.2059
   58SAPC   H4S 4334   4.180   2.748   9.815  0.5502 -0.6164  0.6372
   58SAPC   C25 4335   4.133   2.950   9.897  0.7858  0.6013 -0.4386
   58SAPC   H5R 4336   4.072   2.993   9.977  1.0556 -1.4157  0.8944
   58SAPC   C26 4337   4.149   3.014   9.783  0.3371 -0.4523  0.9256
   58SAPC   H6R 4338   4.118   3.119   9.787 -1.9082 -1.0764  0.4540
   58SAPC   C27 4339   4.214   2.971   9.657 -0.4352  0.0769 -0.5583
   58SAPC   H7R 4340   4.295   2.899   9.679 -0.6158  0.2887  0.8552
   58SAPC   H7S 4341   4.267   3.059   9.616  0.5209 -0.1552  0.1633
   58SAPC   C28 4342   4.114   2.901   9.568 -0.5817 -0.3133  1.3054
   58SAPC   H8R 4343   4.043   2.841   9.627 -1.0249 -1.1483 -0.0665
   58SAPC   C29 4344   4.094   2.892   9.432 -0.3836  0.0262  0.4069
   58SAPC   H9R 4345   4.003   2.853   9.383  0.7026  0.2685 -1.8541
   58SAPC  C210 4346   4.187   2.956   9.335 -0.4931 -0.2241  0.2978
   58SAPC  H10R 4347   4.176   2.902   9.238  3.6574  0.2215 -0.5349
   58SAPC  H10S 4348   4.295   2.940   9.356 -0.5298  0.7331  1.2383
   58SAPC  C211 4349   4.152   3.099   9.314 -0.1599 -0.2833  0.1948
   58SAPC  H11R 4350   4.052   3.134   9.343 -0.8113 -3.2695  1.7536
   58SAPC  C212 4351   4.231   3.187   9.250  0.2552  0.0501  0.1115
   58SAPC  H12R 4352   4.195   3.289   9.233  1.1213  0.1020 -1.5223
   58SAPC  C213 4353   4.368   3.162   9.204 -0.8699 -0.1650 -0.4882
   58SAPC  H13R 4354   4.427   3.098   9.273 -0.0680  0.7883 -0.2787
   58SAPC  H13S 4355   4.426   3.257   9.207 -0.4055 -0.4805  0.9476
   58SAPC  C214 4356   4.370   3.107   9.066  0.7329 -0.8256 -0.3019
   58SAPC  H14R 4357   4.348   2.999   9.061  1.5860 -0.9993 -0.3761
   58SAPC  C215 4358   4.407   3.178   8.955 -0.0886 -0.7147  0.7125
   58SAPC  H15R 4359   4.412   3.124   8.859 -0.2316 -0.4448  0.5543
   58SAPC  C216 4360   4.444   3.326   8.946 -0.1216 -0.0033 -0.5862
   58SAPC  H16R 4361   4.552   3.323   8.924  0.1871  0.4185  0.8252
   58SAPC  H16S 4362   4.421   3.379   9.041 -1.6670 -3.2486  0.9010
   58SAPC  C217 4363   4.384   3.424   8.835  0.5289 -0.1057  0.6725
   58SAPC  H17R 4364   4.387   3.524   8.884  0.4041 -0.0683  0.6037
   58SAPC  H17S 4365   4.280   3.397   8.809  0.7936 -3.2733  2.6610
   58SAPC  C218 4366   4.472   3.414   8.711  0.5209 -0.4609  0.3395
   58SAPC  H18R 4367   4.474   3.312   8.666 -0.7663 -0.1322 -0.5117
   58SAPC  H18S 4368   4.577   3.426   8.744  0.6110 -1.4702  0.4407
   58SAPC  C219 4369   4.436   3.517   8.605 -0.8379 -0.1999  0.1965
   58SAPC  H19R 4370   4.326   3.508   8.590 -0.8338 -1.5155  0.9359
   58SAPC  H19S 4371   4.478   3.507   8.502 -3.3444  1.7207 -1.0726
   58SAPC  C220 4372   4.478   3.668   8.631  0.1231 -0.3875  0.0404
   58SAPC  H20R 4373   4.587   3.676   8.609 -0.2116  0.2261 -1.4460
   58SAPC  H20S 4374   4.448   3.700   8.733  0.3237 -2.4540  0.7800
   58SAPC  H20T 4375   4.435   3.737   8.555  0.0189 -0.8092 -0.2883
   58SAPC   C33 4376   4.062   2.361  10.181  0.6383  0.5625 -0.1018
   58SAPC   H3X 4377   4.006   2.266  10.166  1.8501 -0.3965  1.3988
   58SAPC   H3Y 4378   4.094   2.389  10.283  1.3760  1.2315 -0.5106
   58SAPC   C34 4379   4.193   2.358  10.094  0.7197 -0.6576 -0.0062
   58SAPC   H4X 4380   4.271   2.296  10.143  0.1053 -1.0303  0.5097
   58SAPC   H4Y 4381   4.231   2.462  10.088 -1.8083  0.2928 -0.2550
   58SAPC   C35 4382   4.172   2.293   9.956 -0.1341 -0.9799  0.0833
   58SAPC   H5X 4383   4.127   2.356   9.876 -0.2123 -0.7800  0.2877
   58SAPC   H5Y 4384   4.108   2.203   9.966 -3.0589  0.8991 -1.0569
   58SAPC   C36 4385   4.302   2.243   9.903 -0.4651  0.9402  0.2099
   58SAPC   H6X 4386   4.358   2.179   9.975  0.2898 -1.8521 -2.7255
   58SAPC   H6Y 4387   4.374   2.323   9.876 -0.0210  1.1134  1.8598
   58SAPC   C37 4388   4.278   2.156   9.776 -0.3444 -0.5381 -0.3285
   58SAPC   H7X 4389   4.218   2.215   9.703 -2.0795 -0.4818  1.0954
   58SAPC   H7Y 4390   4.212   2.073   9.811  0.6711 -1.3677 -0.3664
   58SAPC   C38 4391   4.404   2.105   9.706  0.3608 -0.3038  0.6140
   58SAPC   H8X 4392   4.454   2.038   9.779 -1.1158 -0.8318  1.1471
   58SAPC   H8Y 4393   4.477   2.188   9.706 -1.9125  1.7472 -0.1438
   58SAPC   C39 4394   4.386   2.034   9.578  0.0792 -0.1014 -0.0507
   58SAPC   H9X 4395   4.287   1.983   9.577 -0.5826  1.1669 -0.2981
   58SAPC   H9Y 4396   4.460   1.952   9.567 -0.2187 -0.6563  1.8727
   58SAPC  C310 4397   4.401   2.142   9.463 -0.4702  0.6522 -0.7134
   58SAPC  H10X 4398   4.507   2.171   9.480 -0.4969  0.4660 -0.2201
   58SAPC  H10Y 4399   4.336   2.229   9.483  1.4436  1.6225  1.4871
   58SAPC  C311 4400   4.390   2.084   9.325 -0.2938 -0.3644 -0.6596
   58SAPC  H11X 4401   4.440   1.984   9.321  0.0648 -0.1806 -0.8912
   58SAPC  H11Y 4402   4.423   2.155   9.246  0.4440 -1.7837 -1.6471
   58SAPC  C312 4403   4.244   2.053   9.283  0.0867  0.5218 -0.2055
   58SAPC  H12X 4404   4.183   2.145   9.273  0.2354  0.6833  0.3144
   58SAPC  H12Y 4405   4.200   1.989   9.362  1.6066 -1.3532 -0.8442
   58SAPC  C313 4406   4.228   1.975   9.150  0.5746  0.9537 -0.0628
   58SAPC  H13X 4407   4.132   1.921   9.133  1.6112 -1.7893  2.4239
   58SAPC  H13Y 4408   4.310   1.899   9.147  1.2953  1.6968  0.7096
   58SAPC  C314 4409   4.252   2.068   9.024  0.5528  0.2733 -0.2187
   58SAPC  H14X 4410   4.344   2.127   9.043 -0.1372  2.2913 -2.7703
   58SAPC  H14Y 4411   4.170   2.143   9.018 -0.5598 -0.8973  0.0794
   58SAPC  C315 4412   4.266   1.995   8.893  0.4841  0.2466 -0.3680
   58SAPC  H15X 4413   4.164   1.964   8.861  0.3582  2.1793 -1.9208
   58SAPC  H15Y 4414   4.335   1.908   8.899  1.1588  0.6039 -2.3207
   58SAPC  C316 4415   4.304   2.093   8.782  0.3497  0.9671 -0.2151
   58SAPC  H16X 4416   4.411   2.110   8.805 -0.1810 -0.3673  3.6235
   58SAPC  H16Y 4417   4.249   2.189   8.792  1.4344  1.3034  2.7992
   58SAPC  C317 4418   4.307   2.038   8.639 -0.1134  0.6219  0.3613
   58SAPC  H17X 4419   4.203   2.011   8.613  0.4774 -1.2496 -0.1018
   58SAPC  H17Y 4420   4.368   1.946   8.647  0.3615  1.0434  1.7939
   58SAPC  C318 4421   4.361   2.122   8.523  0.6598  0.6778 -0.1844
   58SAPC  H18X 4422   4.365   2.057   8.433  0.5602 -1.9572  1.6378
   58SAPC  H18Y 4423   4.467   2.133   8.555  1.7250 -1.4606 -2.7797
   58SAPC  H18Z 4424   4.315   2.220   8.499  0.2541 -0.1740 -3.0688
   59SAPC     N 4425   5.274   3.810  10.995  0.1391 -0.5474 -0.2359
   59SAPC   C12 4426   5.344   3.770  11.123  0.1982  0.0130 -0.1084
   59SAPC  H12A 4427   5.352   3.662  11.128  0.9174  0.1164  0.9743
   59SAPC  H12B 4428   5.281   3.805  11.203 -1.7697 -0.0944 -1.5789
   59SAPC   C13 4429   5.144   3.737  10.992 -0.6914  0.0331 -0.2448
   59SAPC  H13A 4430   5.083   3.780  11.071 -0.4219 -0.7135  0.3726
   59SAPC  H13B 4431   5.089   3.743  10.899  0.7083  0.7343 -1.0433
   59SAPC  H13C 4432   5.168   3.633  11.008 -0.0206  0.2947  0.4889
   59SAPC   C14 4433   5.239   3.959  10.994 -0.4285 -0.0590  0.2043
   59SAPC  H14A 4434   5.208   3.992  10.896  0.3833  2.3243  0.7166
   59SAPC  H14B 4435   5.161   3.977  11.067  0.2632 -2.2601  1.5311
   59SAPC  H14C 4436   5.321   4.023  11.023 -0.2643 -0.5572  0.8432
   59SAPC   C15 4437   5.359   3.774  10.883  0.7910  0.0516 -0.1068
   59SAPC  H15A 4438   5.388   3.670  10.885  2.1454  0.4224  0.5705
   59SAPC  H15B 4439   5.321   3.810  10.789 -0.0684  2.4862  1.1186
   59SAPC  H15C 4440   5.454   3.822  10.901 -0.1017  1.9278 -0.3360
   59SAPC   C11 4441   5.488   3.834  11.140 -0.0471  0.0927  0.4823
   59SAPC  H11A 4442   5.555   3.806  11.056 -0.3723 -0.8352  0.5217
   59SAPC  H11B 4443   5.531   3.785  11.229  2.0620  0.3484 -0.3705
   59SAPC     P 4444   5.617   4.065  11.149 -0.0266  0.3409 -0.1625
   59SAPC   O13 4445   5.584   4.186  11.228 -0.3046 -0.7700  0.5062
   59SAPC   O14 4446   5.736   3.987  11.183 -0.1938 -0.0481 -0.2351
   59SAPC   O12 4447   5.488   3.976  11.152 -0.0097 -0.1826 -0.6318
   59SAPC   O11 4448   5.624   4.101  11.000 -0.8264  0.2069  0.2532
   59SAPC    C1 4449   5.528   4.192  10.942  0.4469 -0.4333  0.1229
   59SAPC    HA 4450   5.429   4.173  10.989 -0.0277  0.0854 -0.6612
   59SAPC    HB 4451   5.563   4.297  10.950 -1.1086 -0.0639  2.4609
   59SAPC    C2 4452   5.499   4.153  10.800 -0.7312 -0.9945 -0.2555
   59SAPC    HS 4453   5.461   4.049  10.809 -0.4155 -0.8984  2.6227
   59SAPC   O21 4454   5.625   4.160  10.730  0.1778 -0.4021 -0.0190
   59SAPC   C21 4455   5.642   4.076  10.628 -0.3374  0.7161 -0.4274
   59SAPC   O22 4456   5.569   3.985  10.606 -0.6382  1.0824 -0.6402
   59SAPC   C22 4457   5.759   4.119  10.536  0.1265 -0.2774 -0.2592
   59SAPC   H2R 4458   5.856   4.127  10.589 -0.8106  3.6568  1.0544
   59SAPC   H2S 4459   5.761   4.034  10.465  1.2326  1.7181 -2.7019
   59SAPC    C3 4460   5.380   4.235  10.748  0.0655 -0.1568 -0.2130
   59SAPC    HX 4461   5.399   4.344  10.758  1.1053 -0.2863 -0.7459
   59SAPC    HY 4462   5.290   4.222  10.812 -0.7659 -0.5449 -1.4569
   59SAPC   O31 4463   5.355   4.215  10.605 -0.1905 -0.6191  0.5029
   59SAPC   C31 4464   5.254   4.133  10.587 -0.2803 -0.0122  0.0934
   59SAPC   O32 4465   5.200   4.076  10.679 -0.0619 -0.6796 -0.6556
   59SAPC   C32 4466   5.217   4.108  10.440 -0.1624 -0.4534  0.1749
   59SAPC   H2X 4467   5.119   4.159  10.421  1.6961  2.3704 -2.3209
   59SAPC   H2Y 4468   5.207   3.999  10.425  0.4840 -0.6468  1.0704
   59SAPC   C23 4469   5.742   4.263  10.468  0.6650 -0.5966 -0.0210
   59SAPC   H3R 4470   5.755   4.334  10.552 -1.3457  0.1878 -0.3554
   59SAPC   H3S 4471   5.632   4.266  10.457  0.3943 -2.0223  1.9602
   59SAPC   C24 4472   5.829   4.290  10.342  0.9037 -0.6217  0.6360
   59SAPC   H4R 4473   5.824   4.395  10.305 -1.7289 -1.4295 -1.4576
   59SAPC   H4S 4474   5.778   4.243  10.255  2.2312  0.7132 -0.9042
   59SAPC   C25 4475   5.974   4.244  10.343  0.2877 -0.3694 -0.2800
   59SAPC   H5R 4476   6.013   4.244  10.446 -0.5581  0.3436  0.0506
   59SAPC   C26 4477   6.053   4.187  10.248 -0.2115  0.0998 -0.1556
   59SAPC   H6R 4478   6.156   4.171  10.283 -0.9083 -0.7537  1.6263
   59SAPC   C27 4479   6.013   4.162  10.104  0.0819  0.2770 -0.2080
   59SAPC   H7R 4480   5.938   4.082  10.092 -0.2090  0.4247  0.5967
   59SAPC   H7S 4481   6.109   4.127  10.060 -0.8237 -2.8072  0.1508
   59SAPC   C28 4482   5.958   4.271  10.023 -0.4888  0.2424  1.1570
   59SAPC   H8R 4483   5.916   4.357  10.078  0.7909  1.0676  0.8932
   59SAPC   C29 4484   5.965   4.276   9.889 -0.7432 -0.4988 -0.1327
   59SAPC   H9R 4485   5.920   4.361   9.835 -0.4408  0.0882  0.5389
   59SAPC  C210 4486   6.015   4.165   9.800 -0.3447 -0.9354  0.0071
   59SAPC  H10R 4487   6.052   4.079   9.860  1.7296 -0.2879 -0.3098
   59SAPC  H10S 4488   6.108   4.181   9.741 -1.1037  0.7457 -0.7666
   59SAPC  C211 4489   5.904   4.111   9.708 -0.2434  0.4360  0.8838
   59SAPC  H11R 4490   5.821   4.067   9.765  0.6832 -1.4409  0.8248
   59SAPC  C212 4491   5.897   4.110   9.570  0.1668 -0.5162 -0.1806
   59SAPC  H12R 4492   5.822   4.052   9.516  0.1197 -1.2819  0.6989
   59SAPC  C213 4493   5.994   4.176   9.471 -0.5018 -0.5687  0.2560
   59SAPC  H13R 4494   6.025   4.266   9.528 -2.1375  0.1340  0.0876
   59SAPC  H13S 4495   5.941   4.219   9.383 -0.1225 -3.2477 -1.3089
   59SAPC  C214 4496   6.121   4.105   9.432  1.1324 -0.1017 -0.3608
   59SAPC  H14R 4497   6.181   4.074   9.519  0.9942 -1.9856 -0.9242
   59SAPC  C215 4498   6.166   4.081   9.310  0.4643 -0.4493 -0.5194
   59SAPC  H15R 4499   6.256   4.018   9.311 -0.2801 -1.5537 -1.3472
   59SAPC  C216 4500   6.121   4.112   9.169  0.3452  0.1817  0.4731
   59SAPC  H16R 4501   6.029   4.174   9.179 -1.1021 -2.2503  2.6597
   59SAPC  H16S 4502   6.081   4.017   9.127 -0.5259  1.4922 -1.7824
   59SAPC  C217 4503   6.219   4.170   9.073  0.5824 -0.3143  0.2096
   59SAPC  H17R 4504   6.285   4.247   9.119  1.3784 -0.9156  0.0916
   59SAPC  H17S 4505   6.179   4.201   8.974 -0.2445 -1.7137  0.0968
   59SAPC  C218 4506   6.329   4.066   9.045  0.3397  0.1217 -0.5338
   59SAPC  H18R 4507   6.280   3.968   9.029 -0.4052  0.5070 -0.6527
   59SAPC  H18S 4508   6.398   4.045   9.129 -0.8587  0.7901  0.6313
   59SAPC  C219 4509   6.412   4.102   8.915 -0.0218 -0.3339 -0.3527
   59SAPC  H19R 4510   6.452   4.205   8.928  0.8619 -0.6060 -0.9167
   59SAPC  H19S 4511   6.346   4.100   8.826  1.9247  2.4835 -1.9301
   59SAPC  C220 4512   6.520   4.007   8.883 -0.6103 -0.1115 -0.0116
   59SAPC  H20R 4513   6.596   4.048   8.814  0.3777 -0.7606  0.6747
   59SAPC  H20S 4514   6.469   3.921   8.834  0.5799 -1.1083  0.4551
   59SAPC  H20T 4515   6.563   3.964   8.976 -2.3884  0.2002  0.9712
   59SAPC   C33 4516   5.309   4.168  10.337  0.6455  0.2351 -0.8209
   59SAPC   H3X 4517   5.403   4.110  10.352  1.0932  1.1869  0.1662
   59SAPC   H3Y 4518   5.343   4.270  10.365 -0.5752  0.2015  0.8635
   59SAPC   C34 4519   5.258   4.146  10.195 -0.4552  0.5227  0.1100
   59SAPC   H4X 4520   5.162   4.200  10.180 -1.6459 -1.7763 -0.9579
   59SAPC   H4Y 4521   5.238   4.039  10.170  2.3671 -0.1050  0.3958
   59SAPC   C35 4522   5.362   4.207  10.098 -0.2145 -0.2981 -0.3165
   59SAPC   H5X 4523   5.461   4.164  10.125 -1.0562 -1.3584  1.1466
   59SAPC   H5Y 4524   5.372   4.315  10.123  0.2694 -0.0929 -1.3799
   59SAPC   C36 4525   5.331   4.191   9.949 -0.4614  0.3264 -0.1653
   59SAPC   H6X 4526   5.226   4.226   9.933 -0.2796  1.2876  0.6549
   59SAPC   H6Y 4527   5.328   4.084   9.919 -1.0423  0.2696  0.0649
   59SAPC   C37 4528   5.429   4.250   9.846 -0.2646 -0.5036  0.5154
   59SAPC   H7X 4529   5.528   4.216   9.882 -0.2331 -0.3333  0.5925
   59SAPC   H7Y 4530   5.425   4.361   9.857 -1.0266 -0.3086 -1.4397
   59SAPC   C38 4531   5.401   4.204   9.698 -0.2005  0.0572 -0.7338
   59SAPC   H8X 4532   5.295   4.223   9.669 -0.5577  2.3956  1.8154
   59SAPC   H8Y 4533   5.419   4.095   9.690 -0.4671 -0.0620  0.1667
   59SAPC   C39 4534   5.502   4.273   9.605  0.2148  0.1173 -0.2563
   59SAPC   H9X 4535   5.606   4.275   9.644 -0.5089 -0.5609  1.8099
   59SAPC   H9Y 4536   5.464   4.377   9.595  1.6865  0.7019 -0.0142
   59SAPC  C310 4537   5.507   4.185   9.480  0.1977 -0.3127  0.1460
   59SAPC  H10X 4538   5.416   4.132   9.447  0.3320  0.5812 -1.7527
   59SAPC  H10Y 4539   5.572   4.098   9.505 -0.3751 -1.2760 -1.6028
   59SAPC  C311 4540   5.545   4.267   9.351  0.1188  0.2513 -0.0336
   59SAPC  H11X 4541   5.614   4.352   9.371  0.6418 -0.2584  0.3667
   59SAPC  H11Y 4542   5.451   4.314   9.315  1.0273  1.4469 -0.8938
   59SAPC  C312 4543   5.590   4.167   9.239 -0.6215  0.1652 -0.0746
   59SAPC  H12X 4544   5.498   4.115   9.205 -0.7737 -0.5342  1.4060
   59SAPC  H12Y 4545   5.663   4.099   9.287 -0.0433 -0.3962 -1.7211
   59SAPC  C313 4546   5.637   4.240   9.111  0.2490  0.1645  0.2128
   59SAPC  H13X 4547   5.701   4.321   9.151 -0.1895 -0.0586  1.3662
   59SAPC  H13Y 4548   5.550   4.281   9.056  0.0320 -1.2008 -0.4863
   59SAPC  C314 4549   5.716   4.145   9.023  0.2538 -0.3820  0.8544
   59SAPC  H14X 4550   5.650   4.063   8.987  2.0705  0.7381 -5.7007
   59SAPC  H14Y 4551   5.797   4.113   9.092 -0.3900  0.3135  1.9553
   59SAPC  C315 4552   5.777   4.204   8.893  0.2356  0.5385  0.0642
   59SAPC  H15X 4553   5.820   4.303   8.914 -0.3859  0.7547  0.3481
   59SAPC  H15Y 4554   5.688   4.212   8.827 -1.7049  0.0179  2.5243
   59SAPC  C316 4555   5.876   4.116   8.824  0.5484  0.4393 -0.0746
   59SAPC  H16X 4556   5.838   4.016   8.793  0.4667  0.6233 -0.5824
   59SAPC  H16Y 4557   5.958   4.100   8.897  2.0320  1.0309 -1.5716
   59SAPC  C317 4558   5.927   4.181   8.694  0.9031 -0.2194  0.3267
   59SAPC  H17X 4559   5.985   4.270   8.726  1.4371 -0.8803  1.2354
   59SAPC  H17Y 4560   5.842   4.204   8.626  2.9100 -0.7742 -2.4558
   59SAPC  C318 4561   6.031   4.098   8.612  0.4930  1.0169 -0.0564
   59SAPC  H18X 4562   6.081   4.141   8.522  0.6144 -1.2036 -1.0731
   59SAPC  H18Y 4563   5.983   4.007   8.572  0.6304  1.0929 -0.4015
   59SAPC  H18Z 4564   6.104   4.058   8.685 -1.2775  0.7608  1.6009
   60SAPC     N 4565   0.016   2.450  10.829 -0.0313 -0.1878 -0.2488
   60SAPC   C12 4566   0.133   2.364  10.884  0.0655  0.0413  0.0427
   60SAPC  H12A 4567   0.113   2.263  10.851 -1.4817  0.2055  0.4127
   60SAPC  H12B 4568   0.117   2.362  10.991 -1.2213 -0.5566 -0.1506
   60SAPC   C13 4569   0.016   2.436  10.682 -0.2173  0.0986 -0.2337
   60SAPC  H13A 4570   0.112   2.469  10.645 -1.2659  1.5296 -1.7353
   60SAPC  H13B 4571  -0.002   2.335  10.650  0.8849  0.2178 -1.2521
   60SAPC  H13C 4572  -0.062   2.498  10.640  0.0416  0.9738  0.5576
   60SAPC   C14 4573  -0.116   2.388  10.879  0.2493  0.6377 -0.0106
   60SAPC  H14A 4574  -0.130   2.393  10.986 -0.1753  3.5542 -0.1653
   60SAPC  H14B 4575  -0.195   2.444  10.833 -0.5143  1.0059  1.6946
   60SAPC  H14C 4576  -0.116   2.282  10.855  1.7071  1.1743 -2.5618
   60SAPC   C15 4577   0.023   2.591  10.873 -0.1657  0.3161 -0.9788
   60SAPC  H15A 4578  -0.074   2.637  10.867  0.0205  0.6567 -1.4532
   60SAPC  H15B 4579   0.073   2.598  10.969 -0.3650 -0.3538 -0.8288
   60SAPC  H15C 4580   0.091   2.646  10.809  0.1143  0.9832 -0.1262
   60SAPC   C11 4581   0.277   2.415  10.851 -0.0076  0.5337 -0.7796
   60SAPC  H11A 4582   0.344   2.341  10.900 -2.3637 -0.0567  1.6536
   60SAPC  H11B 4583   0.283   2.520  10.886 -0.8364  0.3137  0.0429
   60SAPC     P 4584   0.360   2.302  10.631 -0.1336 -0.0288 -0.4528
   60SAPC   O13 4585   0.508   2.327  10.627  0.4581 -0.4346  0.1050
   60SAPC   O14 4586   0.315   2.175  10.688 -0.2106  0.3100 -0.5857
   60SAPC   O12 4587   0.292   2.420  10.713 -0.3005 -0.2915  0.2002
   60SAPC   O11 4588   0.290   2.327  10.491  0.0896  0.1018 -0.3498
   60SAPC    C1 4589   0.307   2.451  10.416 -1.0129 -0.2297 -0.1757
   60SAPC    HA 4590   0.388   2.507  10.469 -1.0450 -0.0860 -0.2815
   60SAPC    HB 4591   0.344   2.441  10.312  0.0463  1.2853  0.0271
   60SAPC    C2 4592   0.182   2.540  10.397 -0.3632 -0.2438 -0.4411
   60SAPC    HS 4593   0.141   2.569  10.496  0.2746 -0.6588 -0.0480
   60SAPC   O21 4594   0.097   2.460  10.320  0.4661  0.0622 -0.2218
   60SAPC   C21 4595  -0.033   2.499  10.336 -0.0865 -0.5963  0.0541
   60SAPC   O22 4596  -0.068   2.589  10.415  0.1420  0.5179 -0.1481
   60SAPC   C22 4597  -0.126   2.421  10.245 -0.0310  0.1627 -0.3291
   60SAPC   H2R 4598  -0.065   2.347  10.189  2.4610  1.3622  0.7199
   60SAPC   H2S 4599  -0.202   2.363  10.301 -0.5724  2.0631  0.9652
   60SAPC    C3 4600   0.218   2.680  10.332  0.0544  0.8166 -0.5245
   60SAPC    HX 4601   0.254   2.749  10.411 -2.1878  1.2239  0.1805
   60SAPC    HY 4602   0.130   2.726  10.281 -0.0313  0.8891 -0.3121
   60SAPC   O31 4603   0.316   2.667  10.231  0.1409 -0.4835  0.1487
   60SAPC   C31 4604   0.359   2.792  10.190 -0.1024 -0.3462 -0.4346
   60SAPC   O32 4605   0.314   2.902  10.217  0.2211  0.0655  0.4145
   60SAPC   C32 4606   0.472   2.775  10.093 -0.0836 -0.6107 -0.1115
   60SAPC   H2X 4607   0.557   2.712  10.126 -1.3959 -1.9366  0.7509
   60SAPC   H2Y 4608   0.511   2.875  10.064  0.2490 -1.2013 -1.7798
   60SAPC   C23 4609  -0.206   2.513  10.155  0.1615 -0.2475 -0.2952
   60SAPC   H3R 4610  -0.261   2.582  10.223 -1.5769 -1.6430 -0.2431
   60SAPC   H3S 4611  -0.276   2.454  10.091 -0.9689  1.4469 -0.6378
   60SAPC   C24 4612  -0.117   2.602  10.070 -0.6013 -0.4297 -0.4129
   60SAPC   H4R 4613  -0.064   2.668  10.142  0.0195 -1.1744 -0.1813
   60SAPC   H4S 4614  -0.185   2.652   9.997 -0.1067 -1.4638 -1.5962
   60SAPC   C25 4615  -0.014   2.511  10.002 -0.9382 -1.1929 -0.2143
   60SAPC   H5R 4616   0.077   2.494  10.061 -0.2995  1.6433 -0.2738
   60SAPC   C26 4617  -0.020   2.481   9.876 -0.0338 -0.1002 -0.1593
   60SAPC   H6R 4618   0.049   2.404   9.838  0.4777  1.7617 -3.2182
   60SAPC   C27 4619  -0.131   2.515   9.784  0.0906  0.0521  0.0983
   60SAPC   H7R 4620  -0.137   2.624   9.761  0.2493 -0.5324 -2.8521
   60SAPC   H7S 4621  -0.224   2.491   9.839  1.3622  1.0566  2.7791
   60SAPC   C28 4622  -0.142   2.439   9.655 -0.4282 -0.0995  0.4470
   60SAPC   H8R 4623  -0.203   2.348   9.647  0.0094 -0.2044 -2.1592
   60SAPC   C29 4624  -0.091   2.474   9.533 -0.7056  0.3523  0.2482
   60SAPC   H9R 4625  -0.110   2.403   9.451 -0.9373 -0.8853  1.3679
   60SAPC  C210 4626   0.002   2.595   9.509 -0.1139  0.1667  0.4192
   60SAPC  H10R 4627   0.070   2.612   9.595 -0.0401  0.7170  0.2515
   60SAPC  H10S 4628  -0.056   2.689   9.499  1.2461  0.9466 -0.1820
   60SAPC  C211 4629   0.071   2.560   9.372  0.1619  0.9234 -0.4377
   60SAPC  H11R 4630   0.000   2.547   9.289  0.1430  0.2133 -0.3047
   60SAPC  C212 4631   0.202   2.570   9.347  0.3962 -0.2528 -0.0826
   60SAPC  H12R 4632   0.233   2.546   9.244 -0.6264 -2.9858  0.2270
   60SAPC  C213 4633   0.311   2.606   9.449  0.3047  0.2156 -0.1250
   60SAPC  H13R 4634   0.276   2.659   9.540  0.2428  1.5594 -0.9046
   60SAPC  H13S 4635   0.384   2.670   9.395 -0.7521  1.1788 -0.4400
   60SAPC  C214 4636   0.383   2.478   9.494 -0.2581  0.1138  0.0112
   60SAPC  H14R 4637   0.339   2.423   9.579 -1.7494 -1.2146 -1.5879
   60SAPC  C215 4638   0.504   2.430   9.455 -0.1101 -0.6013 -0.6915
   60SAPC  H15R 4639   0.527   2.332   9.499 -0.9224 -0.5452 -0.1324
   60SAPC  C216 4640   0.599   2.496   9.356 -0.7795 -0.2657  0.1609
   60SAPC  H16R 4641   0.589   2.606   9.337 -2.2014 -0.7721 -2.2556
   60SAPC  H16S 4642   0.575   2.441   9.262 -1.3989 -0.2523  0.3066
   60SAPC  C217 4643   0.754   2.481   9.394 -0.3030  0.2241 -0.2023
   60SAPC  H17R 4644   0.779   2.373   9.394  2.2233  0.7803 -1.1386
   60SAPC  H17S 4645   0.768   2.510   9.501  0.9427 -2.0011  0.2667
   60SAPC  C218 4646   0.850   2.561   9.311  0.3156  0.5482  0.2010
   60SAPC  H18R 4647   0.956   2.548   9.341  0.1675 -1.5366 -0.1029
   60SAPC  H18S 4648   0.833   2.668   9.333  2.2410  1.0498 -0.6077
   60SAPC  C219 4649   0.847   2.550   9.157 -0.1094 -0.9633  0.4923
   60SAPC  H19R 4650   0.891   2.639   9.106  0.8100 -1.3719  0.5599
   60SAPC  H19S 4651   0.743   2.557   9.120 -0.1611 -0.8452  0.6567
   60SAPC  C220 4652   0.923   2.428   9.092  0.7029  0.4249  0.7553
   60SAPC  H20R 4653   0.881   2.334   9.136 -1.6015  1.8904  1.7509
   60SAPC  H20S 4654   1.031   2.438   9.112  0.7199 -1.0203  1.4876
   60SAPC  H20T 4655   0.909   2.418   8.982  1.1803  2.5890  0.4886
   60SAPC   C33 4656   0.413   2.730   9.951  0.0898 -0.4666 -0.4702
   60SAPC   H3X 4657   0.332   2.797   9.916  1.3121  1.0905 -0.3832
   60SAPC   H3Y 4658   0.375   2.627   9.968 -0.9010 -0.2259 -1.1864
   60SAPC   C34 4659   0.508   2.731   9.836 -0.2525  0.1346  0.5026
   60SAPC   H4X 4660   0.464   2.674   9.752  1.3445  0.0808 -0.3189
   60SAPC   H4Y 4661   0.603   2.682   9.868  1.2368  1.7568 -1.3176
   60SAPC   C35 4662   0.522   2.875   9.779  0.2986 -0.2326 -0.2191
   60SAPC   H5X 4663   0.562   2.945   9.856 -0.5849 -1.1828  1.1421
   60SAPC   H5Y 4664   0.423   2.913   9.745 -0.0708 -0.2885  0.7734
   60SAPC   C36 4665   0.623   2.901   9.670  0.2147  0.6039  0.0060
   60SAPC   H6X 4666   0.591   2.828   9.593  0.0985  0.9077 -0.2352
   60SAPC   H6Y 4667   0.729   2.875   9.688  0.0250 -0.8447 -0.8532
   60SAPC   C37 4668   0.619   3.046   9.622  0.3337  0.1718  0.1853
   60SAPC   H7X 4669   0.670   3.110   9.698 -2.1063 -0.7070  2.6516
   60SAPC   H7Y 4670   0.517   3.089   9.634  0.6815  1.3184 -0.9120
   60SAPC   C38 4671   0.670   3.080   9.485 -0.6780  0.0619  0.2984
   60SAPC   H8X 4672   0.649   3.180   9.443  0.0660  0.0572 -0.0967
   60SAPC   H8Y 4673   0.611   3.011   9.421  0.6761 -0.9310  0.1076
   60SAPC   C39 4674   0.819   3.034   9.481 -0.0168  1.1519  0.4272
   60SAPC   H9X 4675   0.833   2.935   9.529  0.4381  0.5622 -0.8981
   60SAPC   H9Y 4676   0.899   3.101   9.518  0.3065  0.3067  1.3007
   60SAPC  C310 4677   0.866   3.002   9.337  0.2734 -0.5479 -0.1975
   60SAPC  H10X 4678   0.797   2.926   9.295  1.2352 -0.9577 -1.0737
   60SAPC  H10Y 4679   0.962   2.947   9.349 -0.1104 -0.7096  2.3523
   60SAPC  C311 4680   0.885   3.108   9.235 -0.9287 -1.0573  0.6058
   60SAPC  H11X 4681   0.936   3.200   9.269  0.9115 -0.6737 -2.9849
   60SAPC  H11Y 4682   0.795   3.165   9.203 -0.4106  0.4933  1.8387
   60SAPC  C312 4683   0.978   3.056   9.123 -0.0740  0.1974  0.6418
   60SAPC  H12X 4684   1.073   3.027   9.173  0.8581  0.6877 -0.8062
   60SAPC  H12Y 4685   1.005   3.138   9.054 -0.6250 -1.3791 -1.5295
   60SAPC  C313 4686   0.899   2.953   9.035  0.4256  0.5181  0.3089
   60SAPC  H13X 4687   0.800   2.999   9.014 -0.2427  0.0734  2.4115
   60SAPC  H13Y 4688   0.884   2.860   9.094  1.7177  0.6226  0.8227
   60SAPC  C314 4689   0.971   2.926   8.902 -0.5084 -0.2170  0.3544
   60SAPC  H14X 4690   1.069   2.886   8.936  0.7592  0.1339 -2.7336
   60SAPC  H14Y 4691   0.995   3.011   8.835 -0.0958 -1.9129 -1.6798
   60SAPC  C315 4692   0.890   2.829   8.812 -0.0813  0.6423  0.1256
   60SAPC  H15X 4693   0.787   2.871   8.807 -0.3612  0.0671  0.9510
   60SAPC  H15Y 4694   0.898   2.731   8.864  1.2750 -1.0307 -3.0603
   60SAPC  C316 4695   0.950   2.805   8.674  0.1640 -0.2689  1.3494
   60SAPC  H16X 4696   1.038   2.739   8.682 -0.2399 -0.9758  0.0311
   60SAPC  H16Y 4697   0.959   2.903   8.622  0.3175 -0.6797  0.6103
   60SAPC  C317 4698   0.847   2.722   8.591 -0.4496  0.2610  0.0135
   60SAPC  H17X 4699   0.802   2.782   8.508 -0.1947  1.4312  0.7148
   60SAPC  H17Y 4700   0.773   2.688   8.666 -0.7047  1.5547  0.3667
   60SAPC  C318 4701   0.914   2.603   8.526  0.9367 -0.2576 -0.0357
   60SAPC  H18X 4702   0.983   2.630   8.443 -0.7475  1.2389 -0.9724
   60SAPC  H18Y 4703   0.833   2.534   8.498 -0.8475  0.3221  3.3526
   60SAPC  H18Z 4704   0.963   2.549   8.610 -0.0330  2.6223  2.4742
   61SAPC     N 4705   1.153   0.822  10.879  0.5865 -0.7783 -0.1604
   61SAPC   C12 4706   1.153   0.924  10.764  0.0228 -0.1016 -0.7822
   61SAPC  H12A 4707   1.123   0.871  10.676 -0.3382  1.0238 -1.3494
   61SAPC  H12B 4708   1.252   0.962  10.746 -0.4774  1.1794 -0.9122
   61SAPC   C13 4709   1.022   0.751  10.903 -0.2241  0.0532 -0.5704
   61SAPC  H13A 4710   1.041   0.661  10.958  0.0522  0.6624  0.3476
   61SAPC  H13B 4711   0.952   0.818  10.950  0.8781  1.0628 -0.3181
   61SAPC  H13C 4712   0.982   0.717  10.809 -2.5914 -0.0759  0.4593
   61SAPC   C14 4713   1.259   0.717  10.863 -0.0591 -0.5272 -0.2530
   61SAPC  H14A 4714   1.247   0.649  10.779  0.1811 -3.7272  2.2004
   61SAPC  H14B 4715   1.350   0.772  10.846 -2.5124  3.3420 -1.5986
   61SAPC  H14C 4716   1.262   0.668  10.959 -1.0770  2.0056  1.1236
   61SAPC   C15 4717   1.181   0.881  11.012  0.4934 -0.7111 -0.0409
   61SAPC  H15A 4718   1.155   0.816  11.094 -2.2027  0.6562  0.2525
   61SAPC  H15B 4719   1.286   0.902  11.024  0.5586 -0.8229 -0.4069
   61SAPC  H15C 4720   1.134   0.978  11.011 -0.1697 -1.0276  0.2141
   61SAPC   C11 4721   1.042   1.040  10.772 -0.0679  0.0114  0.4716
   61SAPC  H11A 4722   0.948   0.995  10.810 -0.6459  0.9810  0.2042
   61SAPC  H11B 4723   1.018   1.064  10.666 -4.1802  0.1159  1.3719
   61SAPC     P 4724   1.208   1.233  10.768 -0.9121 -0.7123 -0.4486
   61SAPC   O13 4725   1.250   1.326  10.868 -0.2993  0.4322 -0.0319
   61SAPC   O14 4726   1.313   1.145  10.719  0.2293 -0.1235  0.3246
   61SAPC   O12 4727   1.094   1.150  10.843  0.9118  0.4760 -0.1365
   61SAPC   O11 4728   1.139   1.320  10.665 -0.1375  0.6881  0.3700
   61SAPC    C1 4729   1.158   1.303  10.525 -0.5412 -0.4188 -0.3418
   61SAPC    HA 4730   1.236   1.230  10.494 -0.3502  0.1040 -1.1014
   61SAPC    HB 4731   1.056   1.281  10.487 -0.1174 -1.7732 -0.7064
   61SAPC    C2 4732   1.211   1.441  10.467  0.4770  0.4134  0.0795
   61SAPC    HS 4733   1.148   1.523  10.507 -2.4654 -0.8507 -1.8077
   61SAPC   O21 4734   1.200   1.434  10.316  0.4218 -0.0346  0.0704
   61SAPC   C21 4735   1.085   1.459  10.264 -0.3903  0.1200 -0.1659
   61SAPC   O22 4736   0.985   1.502  10.322  0.1680 -0.4143  0.3789
   61SAPC   C22 4737   1.069   1.422  10.124 -0.2569 -0.0179  0.0865
   61SAPC   H2R 4738   1.165   1.435  10.069  0.2594  0.6887  1.1379
   61SAPC   H2S 4739   1.042   1.314  10.118  1.4096 -0.4670  0.3644
   61SAPC    C3 4740   1.358   1.459  10.518 -0.5230  0.2025  0.4224
   61SAPC    HX 4741   1.399   1.358  10.542 -1.2504  0.2284  1.8378
   61SAPC    HY 4742   1.355   1.506  10.619 -0.1498  2.1281 -0.4425
   61SAPC   O31 4743   1.426   1.541  10.421  0.3465  0.2298  0.0022
   61SAPC   C31 4744   1.494   1.487  10.320  0.1692 -0.1808 -0.0310
   61SAPC   O32 4745   1.515   1.368  10.296 -0.5453 -0.3878  0.0168
   61SAPC   C32 4746   1.527   1.592  10.215 -0.2707 -0.1929  0.6607
   61SAPC   H2X 4747   1.635   1.586  10.191 -0.6798 -2.4611 -0.7320
   61SAPC   H2Y 4748   1.498   1.692  10.254 -0.1034 -0.0431  0.4008
   61SAPC   C23 4749   0.945   1.486  10.054  0.0620 -0.1476 -0.4548
   61SAPC   H3R 4750   0.860   1.492  10.125  0.6236  1.9120  0.0893
   61SAPC   H3S 4751   0.920   1.415   9.972  2.9888  0.9607 -2.4225
   61SAPC   C24 4752   0.987   1.617   9.990  0.0190  0.9227 -0.1668
   61SAPC   H4R 4753   1.070   1.603   9.917  0.3155  0.9649  0.1587
   61SAPC   H4S 4754   1.014   1.682  10.076  1.2513  0.8504 -0.4770
   61SAPC   C25 4755   0.859   1.655   9.928 -0.4883  0.5369  0.2579
   61SAPC   H5R 4756   0.778   1.686   9.996 -2.2580  0.2864 -1.6930
   61SAPC   C26 4757   0.830   1.643   9.798  0.2684 -0.0402  0.4504
   61SAPC   H6R 4758   0.734   1.683   9.763  0.1399  0.0611  0.9163
   61SAPC   C27 4759   0.915   1.611   9.683  0.1453  0.2809  0.8724
   61SAPC   H7R 4760   1.025   1.618   9.698  0.2486 -2.0476  1.3301
   61SAPC   H7S 4761   0.885   1.673   9.595 -2.7409 -0.5847  1.1898
   61SAPC   C28 4762   0.893   1.466   9.650 -0.3560 -0.3434  0.4368
   61SAPC   H8R 4763   0.882   1.399   9.737 -0.7413 -1.6634 -0.6072
   61SAPC   C29 4764   0.873   1.407   9.532  0.7272 -0.0670  0.2548
   61SAPC   H9R 4765   0.855   1.299   9.530 -1.0775  0.2354 -1.9794
   61SAPC  C210 4766   0.868   1.476   9.400  0.1686 -0.2123 -0.0830
   61SAPC  H10R 4767   0.877   1.587   9.397  1.1596 -0.2476  1.0588
   61SAPC  H10S 4768   0.771   1.457   9.349 -0.0558  1.5764 -0.3724
   61SAPC  C211 4769   0.977   1.411   9.314 -0.0817 -0.3171  0.4312
   61SAPC  H11R 4770   1.078   1.406   9.358  0.1341 -0.3945 -0.0620
   61SAPC  C212 4771   0.954   1.362   9.192 -0.1446 -0.0196 -0.2875
   61SAPC  H12R 4772   1.048   1.329   9.147  2.1252  1.8265  2.8879
   61SAPC  C213 4773   0.820   1.362   9.118  0.2025  0.4575 -0.0227
   61SAPC  H13R 4774   0.769   1.456   9.146  0.5138  0.4314  0.6252
   61SAPC  H13S 4775   0.747   1.281   9.138 -2.0642  2.6062  0.6768
   61SAPC  C214 4776   0.838   1.363   8.969 -0.2017  0.1351  0.1030
   61SAPC  H14R 4777   0.938   1.401   8.942  0.2178 -0.1005  1.2987
   61SAPC  C215 4778   0.735   1.380   8.878  0.4484 -0.3473  0.0510
   61SAPC  H15R 4779   0.755   1.378   8.770  0.1626  1.1465 -0.0358
   61SAPC  C216 4780   0.586   1.382   8.924 -0.2929  0.2811 -0.5224
   61SAPC  H16R 4781   0.568   1.317   9.012  1.9557 -1.0824 -1.0181
   61SAPC  H16S 4782   0.520   1.361   8.838 -0.6506 -0.7589  0.0079
   61SAPC  C217 4783   0.539   1.533   8.960  0.1851  0.4952  0.4855
   61SAPC  H17R 4784   0.614   1.573   9.031  1.1013  0.4865 -0.4550
   61SAPC  H17S 4785   0.445   1.530   9.018 -0.7004  1.1365 -0.8854
   61SAPC  C218 4786   0.520   1.626   8.838  0.5913  0.3538  0.3523
   61SAPC  H18R 4787   0.442   1.587   8.768 -0.1796 -0.1906  1.5074
   61SAPC  H18S 4788   0.611   1.627   8.775 -0.2283 -0.4292 -0.8899
   61SAPC  C219 4789   0.473   1.761   8.886 -0.1443  0.7036 -0.7640
   61SAPC  H19R 4790   0.559   1.816   8.932  0.3897  0.5638 -1.5740
   61SAPC  H19S 4791   0.390   1.762   8.959  0.1745 -0.4843 -0.3915
   61SAPC  C220 4792   0.429   1.844   8.763 -0.2144  0.4222  0.4580
   61SAPC  H20R 4793   0.508   1.867   8.688 -1.3403  1.6995 -0.3751
   61SAPC  H20S 4794   0.379   1.940   8.789  0.5306  0.3383  2.2371
   61SAPC  H20T 4795   0.358   1.779   8.707  0.5693  0.6513 -0.8310
   61SAPC   C33 4796   1.441   1.560  10.086 -0.8182 -0.5263 -0.0666
   61SAPC   H3X 4797   1.332   1.551  10.108 -0.6153 -0.4771  0.9737
   61SAPC   H3Y 4798   1.471   1.460  10.048 -0.3359 -0.9342  1.3748
   61SAPC   C34 4799   1.457   1.659   9.971 -0.3924 -0.6859 -0.0567
   61SAPC   H4X 4800   1.563   1.674   9.941 -0.7605  1.3495 -0.4147
   61SAPC   H4Y 4801   1.411   1.757   9.995  0.5872 -0.7313  2.0952
   61SAPC   C35 4802   1.391   1.615   9.843 -0.3945 -0.2815 -0.2480
   61SAPC   H5X 4803   1.284   1.639   9.857  0.0253  0.8084  1.2398
   61SAPC   H5Y 4804   1.395   1.504   9.840  0.3986 -0.3069  1.3218
   61SAPC   C36 4805   1.455   1.682   9.722  0.4077 -0.4478  0.3522
   61SAPC   H6X 4806   1.558   1.643   9.714  0.5009 -0.1157 -0.0668
   61SAPC   H6Y 4807   1.461   1.791   9.744  0.5523 -0.4892  0.5200
   61SAPC   C37 4808   1.387   1.660   9.585  0.2721 -0.2829 -0.5363
   61SAPC   H7X 4809   1.289   1.711   9.575 -0.4766 -1.5205  0.4121
   61SAPC   H7Y 4810   1.370   1.552   9.570 -0.8332 -0.0933 -0.6825
   61SAPC   C38 4811   1.482   1.694   9.470 -0.0871  0.0600 -0.4391
   61SAPC   H8X 4812   1.577   1.637   9.478 -0.2910 -0.0410  1.7715
   61SAPC   H8Y 4813   1.500   1.804   9.468 -0.7342  0.1552 -0.9135
   61SAPC   C39 4814   1.428   1.657   9.329 -0.5904 -0.4338 -0.7983
   61SAPC   H9X 4815   1.320   1.680   9.318 -0.3966  1.7539  1.4595
   61SAPC   H9Y 4816   1.425   1.546   9.325 -3.5161 -0.4492  0.1335
   61SAPC  C310 4817   1.522   1.708   9.214 -0.7375  0.1468  0.0084
   61SAPC  H10X 4818   1.549   1.816   9.222  0.0821 -0.0401 -0.1597
   61SAPC  H10Y 4819   1.464   1.694   9.121 -3.3507 -0.5332  1.6917
   61SAPC  C311 4820   1.658   1.632   9.205  0.1091  0.2160  0.6299
   61SAPC  H11X 4821   1.644   1.524   9.182 -1.0328  0.2845  0.9758
   61SAPC  H11Y 4822   1.703   1.642   9.306  1.3125 -1.4343  0.2746
   61SAPC  C312 4823   1.758   1.681   9.101  0.3596  0.1753 -0.2703
   61SAPC  H12X 4824   1.756   1.792   9.107 -0.8617  0.2660 -1.9948
   61SAPC  H12Y 4825   1.723   1.660   8.998  0.3972  1.8600 -0.6368
   61SAPC  C313 4826   1.897   1.615   9.108  0.3530 -0.4608  0.5801
   61SAPC  H13X 4827   1.886   1.511   9.145 -1.4386  0.1291  1.7647
   61SAPC  H13Y 4828   1.958   1.668   9.185  1.2018  0.4272 -0.6809
   61SAPC  C314 4829   1.966   1.614   8.965 -0.4714  0.3398  0.3428
   61SAPC  H14X 4830   1.981   1.718   8.928 -1.2045 -0.2839 -1.7736
   61SAPC  H14Y 4831   1.889   1.572   8.897  2.0482  0.6470 -2.7837
   61SAPC  C315 4832   2.085   1.517   8.974  0.1367 -0.8084 -0.8375
   61SAPC  H15X 4833   2.048   1.416   9.003 -0.7328 -0.3259 -0.2386
   61SAPC  H15Y 4834   2.148   1.545   9.060 -3.7566  0.8139  1.6509
   61SAPC  C316 4835   2.156   1.505   8.836 -0.3370 -0.1139  0.3367
   61SAPC  H16X 4836   2.220   1.595   8.824  2.0553 -1.5781  1.7999
   61SAPC  H16Y 4837   2.086   1.491   8.751  0.3244  0.0662 -0.2418
   61SAPC  C317 4838   2.250   1.386   8.834  0.6235  0.1807  0.1491
   61SAPC  H17X 4839   2.204   1.294   8.876  1.2508  0.5698  1.7212
   61SAPC  H17Y 4840   2.334   1.410   8.903  1.4396  0.2887 -0.8725
   61SAPC  C318 4841   2.302   1.364   8.690  0.5587 -0.1989 -0.4940
   61SAPC  H18X 4842   2.363   1.445   8.645  0.0368  0.1174 -0.6412
   61SAPC  H18Y 4843   2.224   1.337   8.616  0.3935  2.7671 -1.4581
   61SAPC  H18Z 4844   2.380   1.286   8.694  1.8549  1.1761  2.2342
   62SAPC     N 4845   6.694   6.678  10.714  0.1092 -0.0115 -0.0021
   62SAPC   C12 4846   6.728   6.794  10.811  0.5684  0.1379 -0.0541
   62SAPC  H12A 4847   6.783   6.753  10.894 -1.7759  1.4123  2.1736
   62SAPC  H12B 4848   6.643   6.829  10.867  0.7322 -2.3013  1.7919
   62SAPC   C13 4849   6.821   6.607  10.677  0.4385  0.7440  0.0580
   62SAPC  H13A 4850   6.799   6.506  10.645  1.3446 -0.0312  1.8524
   62SAPC  H13B 4851   6.862   6.657  10.591 -0.8125  2.3023  0.3520
   62SAPC  H13C 4852   6.890   6.603  10.760  1.1180  3.4128 -0.3343
   62SAPC   C14 4853   6.596   6.579  10.777  0.0140  0.4536 -0.0550
   62SAPC  H14A 4854   6.623   6.555  10.879 -0.7913  0.6407  0.2066
   62SAPC  H14B 4855   6.497   6.623  10.776  0.8316  2.4525  2.1971
   62SAPC  H14C 4856   6.599   6.487  10.721  0.2915  0.8418 -0.6795
   62SAPC   C15 4857   6.648   6.746  10.593 -0.2400  0.4355 -0.4907
   62SAPC  H15A 4858   6.725   6.804  10.543  0.7446  0.2246  0.7500
   62SAPC  H15B 4859   6.618   6.670  10.522  0.2557 -0.0848 -0.1544
   62SAPC  H15C 4860   6.565   6.812  10.609 -0.7332 -0.6304  1.4972
   62SAPC   C11 4861   6.799   6.922  10.755 -0.3387  0.1621  0.8094
   62SAPC  H11A 4862   6.827   6.987  10.840 -1.1874  0.4300  0.8878
   62SAPC  H11B 4863   6.716   6.973  10.702  0.4574 -0.6219 -1.2407
   62SAPC     P 4864   6.941   6.944  10.525 -0.3167  0.2424 -0.1469
   62SAPC   O13 4865   7.074   7.015  10.516  0.3727  0.2307  0.9246
   62SAPC   O14 4866   6.929   6.820  10.442  0.1209 -0.4279  0.1606
   62SAPC   O12 4867   6.922   6.902  10.677  0.0283 -0.4220  0.2214
   62SAPC   O11 4868   6.826   7.036  10.488 -0.0537 -0.1840  0.5457
   62SAPC    C1 4869   6.731   6.995  10.389 -0.6604  0.2757 -0.3054
   62SAPC    HA 4870   6.701   6.889  10.379 -0.8310  0.5434 -3.3390
   62SAPC    HB 4871   6.642   7.060  10.399 -2.1324 -1.7082 -0.3497
   62SAPC    C2 4872   6.777   7.027  10.243 -0.1714  0.7030 -0.4444
   62SAPC    HS 4873   6.866   6.967  10.215 -0.6885  0.7823 -2.3093
   62SAPC   O21 4874   6.795   7.168  10.226 -0.1691  0.2547  0.4841
   62SAPC   C21 4875   6.913   7.206  10.186 -0.0425 -0.6154  0.2702
   62SAPC   O22 4876   7.010   7.144  10.150 -0.4111  0.1892 -0.2850
   62SAPC   C22 4877   6.910   7.359  10.179  0.6424 -0.2123 -0.3557
   62SAPC   H2R 4878   6.808   7.392  10.211  0.7488  1.0531 -1.2878
   62SAPC   H2S 4879   6.984   7.404  10.248 -0.6981  1.7068 -0.1107
   62SAPC    C3 4880   6.668   6.997  10.131  0.3414 -0.1460  0.2461
   62SAPC    HX 4881   6.581   7.065  10.140  1.0310  0.7768 -0.0555
   62SAPC    HY 4882   6.626   6.895  10.145 -1.0233  0.5229  1.1270
   62SAPC   O31 4883   6.715   7.015   9.992  0.2650  0.0859  0.2024
   62SAPC   C31 4884   6.798   6.926   9.945 -0.2120  0.4272 -0.2467
   62SAPC   O32 4885   6.832   6.825  10.006  0.2792 -0.1296  0.1608
   62SAPC   C32 4886   6.833   6.951   9.799  0.2285 -0.0481  0.1901
   62SAPC   H2X 4887   6.879   7.052   9.801 -0.6547  0.3763 -0.2595
   62SAPC   H2Y 4888   6.733   6.963   9.752 -0.1534 -0.5127  0.8810
   62SAPC   C23 4889   6.952   7.417  10.044  0.2957 -0.4116 -0.4391
   62SAPC   H3R 4890   6.904   7.517  10.032 -0.4789 -0.8472 -0.9239
   62SAPC   H3S 4891   6.931   7.347   9.961  0.1543  0.6558 -1.3196
   62SAPC   C24 4892   7.103   7.450  10.045 -0.1113 -0.7703 -0.1823
   62SAPC   H4R 4893   7.158   7.356  10.065  0.6504 -0.6965 -1.8397
   62SAPC   H4S 4894   7.130   7.521  10.126 -1.3905  2.7050 -2.7046
   62SAPC   C25 4895   7.148   7.514   9.914  0.2264  0.8071  0.0248
   62SAPC   H5R 4896   7.171   7.621   9.925  2.7130  0.3628 -0.6453
   62SAPC   C26 4897   7.168   7.446   9.797  0.1446  0.1076  0.0088
   62SAPC   H6R 4898   7.199   7.509   9.713 -0.4497  0.4520  0.0404
   62SAPC   C27 4899   7.145   7.296   9.775  0.2183 -0.2825 -0.8866
   62SAPC   H7R 4900   7.116   7.239   9.866  0.7180 -0.1439 -0.6360
   62SAPC   H7S 4901   7.239   7.250   9.739  1.1898  0.3682  0.7277
   62SAPC   C28 4902   7.032   7.278   9.680  0.1622 -0.3840  0.4077
   62SAPC   H8R 4903   6.932   7.286   9.723  0.9729  2.5028  1.8442
   62SAPC   C29 4904   7.045   7.277   9.550 -0.7001 -0.6356  0.2933
   62SAPC   H9R 4905   6.953   7.275   9.489  0.6852 -0.5955 -1.8565
   62SAPC  C210 4906   7.177   7.299   9.479  0.4559  0.0093  0.4861
   62SAPC  H10R 4907   7.197   7.213   9.412 -1.4946  0.6212 -0.9463
   62SAPC  H10S 4908   7.265   7.308   9.546 -1.7449 -0.0198  3.4960
   62SAPC  C211 4909   7.165   7.425   9.394  0.6620 -0.3965  0.5859
   62SAPC  H11R 4910   7.204   7.511   9.450 -0.3574  0.6940 -0.3416
   62SAPC  C212 4911   7.110   7.439   9.267 -0.0976 -0.0782 -0.0554
   62SAPC  H12R 4912   7.120   7.538   9.220  1.9696  0.3071  1.1283
   62SAPC  C213 4913   7.049   7.334   9.180 -0.9517  0.3314 -0.6114
   62SAPC  H13R 4914   6.975   7.389   9.119 -0.3848  1.8219  0.0310
   62SAPC  H13S 4915   6.987   7.261   9.236  1.7043 -0.5865  1.2617
   62SAPC  C214 4916   7.151   7.260   9.097 -0.0680  0.4646 -0.3372
   62SAPC  H14R 4917   7.256   7.293   9.094  0.0569  0.3602  2.3158
   62SAPC  C215 4918   7.116   7.165   9.005  0.1395  0.0342  0.4563
   62SAPC  H15R 4919   7.192   7.102   8.957 -0.0112  1.1726 -1.3223
   62SAPC  C216 4920   6.976   7.114   8.978 -0.1903 -0.6164  0.0889
   62SAPC  H16R 4921   6.920   7.115   9.074  0.2782 -0.0294  0.3536
   62SAPC  H16S 4922   6.989   7.009   8.943  1.0812 -0.6638  0.6665
   62SAPC  C217 4923   6.898   7.188   8.867 -0.1382 -0.0221  1.0138
   62SAPC  H17R 4924   6.906   7.299   8.879 -1.0661  0.4687 -2.4491
   62SAPC  H17S 4925   6.791   7.162   8.877 -0.4706  0.6967 -0.4690
   62SAPC  C218 4926   6.942   7.148   8.729  0.7205 -0.2909  0.2372
   62SAPC  H18R 4927   6.846   7.156   8.674  0.9098 -0.7669 -0.1702
   62SAPC  H18S 4928   6.975   7.042   8.725  2.2687  0.2046 -0.8603
   62SAPC  C219 4929   7.053   7.234   8.672 -0.6806  0.2568  0.0510
   62SAPC  H19R 4930   7.133   7.242   8.749 -2.5574  1.7822  1.9144
   62SAPC  H19S 4931   7.011   7.336   8.655 -0.1700  0.6837  1.3450
   62SAPC  C220 4932   7.113   7.178   8.538  0.3005 -0.2152  0.0510
   62SAPC  H20R 4933   7.192   7.236   8.485  0.5113  0.7601  1.4063
   62SAPC  H20S 4934   7.023   7.181   8.473 -0.0068  1.5798  0.5213
   62SAPC  H20T 4935   7.146   7.073   8.554  0.2426 -0.0043  1.6779
   62SAPC   C33 4936   6.911   6.834   9.744 -0.2664 -0.3128 -0.1940
   62SAPC   H3X 4937   6.889   6.734   9.785  0.5618 -0.4639 -0.0977
   62SAPC   H3Y 4938   7.015   6.860   9.772 -0.0981 -0.6378 -0.5089
   62SAPC   C34 4939   6.908   6.831   9.592  0.4280  0.4256 -0.6370
   62SAPC   H4X 4940   6.970   6.739   9.580 -1.1475 -1.0648  2.1754
   62SAPC   H4Y 4941   6.954   6.922   9.547 -1.1744  1.7467  0.3497
   62SAPC   C35 4942   6.774   6.800   9.527  0.6739  0.5341 -0.6384
   62SAPC   H5X 4943   6.700   6.881   9.541  0.2817 -0.4821  4.1923
   62SAPC   H5Y 4944   6.731   6.715   9.584 -0.2432  1.2365 -0.2808
   62SAPC   C36 4945   6.811   6.762   9.378  0.2555 -0.3503 -0.6377
   62SAPC   H6X 4946   6.804   6.652   9.371  1.5312 -0.4718 -0.2642
   62SAPC   H6Y 4947   6.918   6.789   9.363 -0.4080  2.1705 -1.0012
   62SAPC   C37 4948   6.726   6.844   9.282  0.0486 -0.5440 -1.1502
   62SAPC   H7X 4949   6.749   6.950   9.304  2.0166 -1.4113  1.3541
   62SAPC   H7Y 4950   6.619   6.822   9.301 -0.0247 -0.9253 -1.9796
   62SAPC   C38 4951   6.759   6.809   9.141 -0.0228  0.4234 -0.2771
   62SAPC   H8X 4952   6.763   6.699   9.138  0.0143  0.4342 -0.5658
   62SAPC   H8Y 4953   6.863   6.845   9.126 -0.3481  1.3072 -0.4423
   62SAPC   C39 4954   6.661   6.862   9.042  0.4340 -0.0539  0.0745
   62SAPC   H9X 4955   6.663   6.972   9.058 -0.5405  0.0831 -0.6745
   62SAPC   H9Y 4956   6.565   6.829   9.088 -1.2805  4.4661 -0.0357
   62SAPC  C310 4957   6.679   6.800   8.903  1.1350  0.0709 -0.4089
   62SAPC  H10X 4958   6.667   6.692   8.929  1.0366 -0.0711 -1.0306
   62SAPC  H10Y 4959   6.786   6.811   8.877  0.4990  2.2573 -2.2123
   62SAPC  C311 4960   6.594   6.857   8.795  0.0070  0.4529 -0.5252
   62SAPC  H11X 4961   6.613   6.967   8.796 -1.1669  0.6546  0.2683
   62SAPC  H11Y 4962   6.486   6.856   8.820  0.6620  2.6808  2.7825
   62SAPC  C312 4963   6.588   6.793   8.649  0.0007  0.0715 -0.1905
   62SAPC  H12X 4964   6.502   6.837   8.593 -1.2218 -2.0424 -0.0217
   62SAPC  H12Y 4965   6.564   6.685   8.659 -0.2957  0.4094  3.1419
   62SAPC  C313 4966   6.722   6.808   8.580 -0.0591  0.1567  0.4608
   62SAPC  H13X 4967   6.808   6.754   8.625 -1.1039 -3.5123 -1.7630
   62SAPC  H13Y 4968   6.752   6.915   8.586  0.4401  0.0275  0.2802
   62SAPC  C314 4969   6.698   6.780   8.431 -0.6756 -0.4504  0.5832
   62SAPC  H14X 4970   6.605   6.829   8.396  0.4283  0.9009 -0.5296
   62SAPC  H14Y 4971   6.678   6.671   8.425  1.8787 -1.0627  2.1911
   62SAPC  C315 4972   6.818   6.814   8.341  0.7594 -0.2236  0.0736
   62SAPC  H15X 4973   6.816   6.755   8.247 -1.7603 -3.0254  1.8072
   62SAPC  H15Y 4974   6.915   6.797   8.393  1.0007  0.2737 -0.2072
   62SAPC  C316 4975   6.834   6.963   8.303  0.1551  0.3190  0.6271
   62SAPC  H16X 4976   6.944   6.969   8.284  0.0573  0.3750  0.0885
   62SAPC  H16Y 4977   6.822   7.026   8.394 -4.2888  1.8986 -0.9616
   62SAPC  C317 4978   6.784   7.007   8.168 -0.6401  0.9289 -0.4231
   62SAPC  H17X 4979   6.678   6.974   8.158  0.6599 -3.1460 -1.4378
   62SAPC  H17Y 4980   6.839   6.958   8.085 -2.5176  2.7262 -2.8135
   62SAPC  C318 4981   6.800   7.159   8.156  0.4964  0.6599 -0.1724
   62SAPC  H18X 4982   6.763   7.197   8.058 -1.3558  2.6956  1.2662
   62SAPC  H18Y 4983   6.910   7.179   8.156  0.4355  1.1677 -2.0964
   62SAPC  H18Z 4984   6.739   7.212   8.232  0.2685  0.4141 -0.1889
   63SAPC     N 4985   4.111   6.035   6.070 -0.4822 -0.1236  0.0438
   63SAPC   C12 4986   4.152   6.075   6.210 -0.6508  0.3129 -0.3335
   63SAPC  H12A 4987   4.100   6.163   6.246  2.0273  1.1660  1.6676
   63SAPC  H12B 4988   4.257   6.099   6.211 -0.4480 -0.4648  2.9408
   63SAPC   C13 4989   4.150   6.150   5.981  1.0509 -0.1091 -0.1067
   63SAPC  H13A 4990   4.094   6.232   6.022  0.1119 -0.2371 -1.1119
   63SAPC  H13B 4991   4.258   6.157   5.980  0.8571  3.2914 -1.7358
   63SAPC  H13C 4992   4.113   6.142   5.880 -0.0293 -0.6360  0.3262
   63SAPC   C14 4993   4.165   5.907   6.030 -0.3380 -0.8537 -0.1898
   63SAPC  H14A 4994   4.125   5.871   5.936 -1.1784 -0.7068  0.1060
   63SAPC  H14B 4995   4.273   5.907   6.029 -0.2954  2.3830  0.2507
   63SAPC  H14C 4996   4.146   5.843   6.116  2.6154  0.3339  1.4291
   63SAPC   C15 4997   3.961   6.030   6.061 -0.1302 -0.0784 -0.6230
   63SAPC  H15A 4998   3.920   5.961   6.134 -2.4229 -0.2310 -2.0471
   63SAPC  H15B 4999   3.921   6.129   6.075 -0.8082 -0.5480  0.9289
   63SAPC  H15C 5000   3.925   6.001   5.964  0.5126 -2.3815 -0.2100
   63SAPC   C11 5001   4.132   5.973   6.320 -0.2025 -0.1641  0.4784
   63SAPC  H11A 5002   4.175   6.016   6.413  0.6215  2.8618 -1.1950
   63SAPC  H11B 5003   4.183   5.875   6.307 -1.0058 -0.9253  2.8800
   63SAPC     P 5004   3.924   6.013   6.461  0.6282 -0.0876 -0.1381
   63SAPC   O13 5005   3.777   6.000   6.441 -0.3357 -0.0813  0.2668
   63SAPC   O14 5006   3.985   5.968   6.593  0.5596 -0.0507 -0.0285
   63SAPC   O12 5007   3.996   5.945   6.338 -0.2296  0.4359  0.0143
   63SAPC   O11 5008   3.966   6.165   6.434  0.2191  0.4458  0.0249
   63SAPC    C1 5009   3.877   6.267   6.401 -0.5165 -0.2555 -0.0583
   63SAPC    HA 5010   3.937   6.335   6.337  1.8630 -1.2842  0.9918
   63SAPC    HB 5011   3.793   6.230   6.338 -2.7854  2.6700  1.1958
   63SAPC    C2 5012   3.823   6.371   6.509 -0.3683  0.0194  0.0936
   63SAPC    HS 5013   3.796   6.461   6.451  0.0588  0.3082  0.3392
   63SAPC   O21 5014   3.925   6.380   6.614 -0.1167 -0.3285  0.7306
   63SAPC   C21 5015   3.933   6.498   6.680 -0.6948 -0.0204 -0.5686
   63SAPC   O22 5016   3.874   6.600   6.655  0.0349  0.0112 -0.1657
   63SAPC   C22 5017   4.030   6.466   6.791  0.3288 -0.2558  0.4501
   63SAPC   H2R 5018   3.977   6.412   6.872 -1.1531  1.0758  0.4053
   63SAPC   H2S 5019   4.109   6.402   6.748  0.2476 -0.5899  0.7993
   63SAPC    C3 5020   3.704   6.305   6.585 -0.4252 -0.0409  0.7083
   63SAPC    HX 5021   3.724   6.228   6.662  0.4201 -0.4354  0.1019
   63SAPC    HY 5022   3.653   6.244   6.507 -1.0200 -1.1189  1.9304
   63SAPC   O31 5023   3.595   6.395   6.628 -0.0790 -0.1349 -0.1304
   63SAPC   C31 5024   3.610   6.436   6.757 -0.3089 -0.3254 -0.5995
   63SAPC   O32 5025   3.691   6.390   6.835  0.4239  0.0124 -0.0830
   63SAPC   C32 5026   3.528   6.556   6.762 -0.5872  0.0995 -0.0675
   63SAPC   H2X 5027   3.432   6.532   6.712 -2.1265 -0.5014  3.0811
   63SAPC   H2Y 5028   3.574   6.636   6.699  2.0207 -1.1270  0.2308
   63SAPC   C23 5029   4.088   6.591   6.857 -0.6952  0.1724  0.3495
   63SAPC   H3R 5030   4.152   6.557   6.941 -0.3112  0.0870  0.0191
   63SAPC   H3S 5031   4.011   6.650   6.912 -0.3349 -0.6139  1.7167
   63SAPC   C24 5032   4.172   6.680   6.767 -0.1250  0.0925 -0.3348
   63SAPC   H4R 5033   4.220   6.758   6.829  1.6090 -0.8487 -0.4680
   63SAPC   H4S 5034   4.111   6.732   6.689  0.5164 -0.3817 -1.1572
   63SAPC   C25 5035   4.283   6.612   6.694 -0.3131 -0.1901  0.0584
   63SAPC   H5R 5036   4.249   6.552   6.608 -1.8525  0.0244  0.4886
   63SAPC   C26 5037   4.409   6.604   6.748 -0.3025  0.5458 -0.2664
   63SAPC   H6R 5038   4.489   6.560   6.687 -1.2046  0.6754 -1.5829
   63SAPC   C27 5039   4.463   6.671   6.875  0.2983 -0.1675 -0.4155
   63SAPC   H7R 5040   4.560   6.626   6.908  0.6495  2.0016  1.6747
   63SAPC   H7S 5041   4.395   6.661   6.962  2.5803  0.7762  1.5515
   63SAPC   C28 5042   4.485   6.823   6.852  0.1560 -0.0561 -0.2643
   63SAPC   H8R 5043   4.406   6.858   6.784 -1.2619 -1.7139  0.4911
   63SAPC   C29 5044   4.566   6.914   6.909 -0.6151 -0.6736 -0.4864
   63SAPC   H9R 5045   4.571   7.016   6.868  1.2097 -0.5592 -0.0044
   63SAPC  C210 5046   4.665   6.880   7.015  0.4789  0.3873  0.9056
   63SAPC  H10R 5047   4.768   6.903   6.979 -0.1692 -0.3686 -1.5138
   63SAPC  H10S 5048   4.662   6.773   7.046 -0.4207  0.3649  0.7603
   63SAPC  C211 5049   4.636   6.968   7.142  0.4322 -0.3707  0.5000
   63SAPC  H11R 5050   4.684   7.067   7.135 -0.0900 -0.1980 -0.8132
   63SAPC  C212 5051   4.553   6.933   7.239 -0.1538  0.5379 -0.0088
   63SAPC  H12R 5052   4.530   7.005   7.319 -0.9741  1.5171 -1.1088
   63SAPC  C213 5053   4.479   6.803   7.251 -0.1871 -0.9161  0.4090
   63SAPC  H13R 5054   4.545   6.731   7.198 -1.9705 -1.3988 -1.1994
   63SAPC  H13S 5055   4.392   6.798   7.183  0.2069  1.1965 -0.2840
   63SAPC  C214 5056   4.460   6.747   7.387  0.1361  0.3591  0.2713
   63SAPC  H14R 5057   4.553   6.743   7.445  1.4216  0.0912 -1.7614
   63SAPC  C215 5058   4.340   6.719   7.450  0.8362 -0.0425  0.0405
   63SAPC  H15R 5059   4.336   6.668   7.547 -1.2550  1.5830  0.8470
   63SAPC  C216 5060   4.207   6.750   7.385 -0.0952 -0.1257  0.0458
   63SAPC  H16R 5061   4.207   6.842   7.323  2.8099  0.1426  0.3706
   63SAPC  H16S 5062   4.127   6.762   7.461 -1.2861 -1.3322 -0.9934
   63SAPC  C217 5063   4.150   6.625   7.314  0.0548 -0.1819 -0.1546
   63SAPC  H17R 5064   4.151   6.538   7.383  2.4649 -0.6539 -0.7398
   63SAPC  H17S 5065   4.216   6.600   7.228 -1.3603  1.0004 -1.6177
   63SAPC  C218 5066   4.007   6.642   7.249 -0.0945 -0.5449 -0.3378
   63SAPC  H18R 5067   4.012   6.730   7.182 -0.1825 -0.3217 -0.0529
   63SAPC  H18S 5068   3.948   6.689   7.331  0.0807 -1.8144  0.5371
   63SAPC  C219 5069   3.938   6.519   7.186 -0.0108 -0.1015  0.4122
   63SAPC  H19R 5070   3.950   6.434   7.257 -0.8702 -1.7771 -1.3900
   63SAPC  H19S 5071   4.001   6.477   7.105  0.0285  0.7888 -0.0251
   63SAPC  C220 5072   3.796   6.537   7.128  0.9753 -0.6732 -0.3525
   63SAPC  H20R 5073   3.810   6.590   7.032 -2.7366 -0.0845 -0.6294
   63SAPC  H20S 5074   3.733   6.604   7.191  0.6698  0.6180 -2.0213
   63SAPC  H20T 5075   3.739   6.442   7.118  0.3185 -0.2370 -0.7742
   63SAPC   C33 5076   3.520   6.612   6.906  0.4266  0.0017  0.3441
   63SAPC   H3X 5077   3.619   6.662   6.913  0.1542  0.6100 -0.1166
   63SAPC   H3Y 5078   3.488   6.523   6.965  0.2525 -1.5539 -2.0191
   63SAPC   C34 5079   3.406   6.715   6.914  0.5250  0.4117  0.0708
   63SAPC   H4X 5080   3.332   6.685   6.837  3.1464 -0.0056 -2.3841
   63SAPC   H4Y 5081   3.438   6.818   6.886 -0.0361 -0.1534 -2.7762
   63SAPC   C35 5082   3.332   6.724   7.053  0.2912 -0.3362  0.3633
   63SAPC   H5X 5083   3.295   6.621   7.074 -2.1795  0.4029 -0.2639
   63SAPC   H5Y 5084   3.242   6.789   7.048  0.6431  0.0427 -1.2502
   63SAPC   C36 5085   3.435   6.751   7.160  0.1579  0.0654 -0.3206
   63SAPC   H6X 5086   3.489   6.844   7.132 -0.9054  0.6654 -0.4207
   63SAPC   H6Y 5087   3.514   6.674   7.171  0.7894  0.9181  1.2068
   63SAPC   C37 5088   3.374   6.765   7.292 -0.2676 -0.0219 -0.2616
   63SAPC   H7X 5089   3.338   6.664   7.320 -2.5408  0.4560 -1.2929
   63SAPC   H7Y 5090   3.280   6.824   7.284 -1.2734 -1.2510  2.1482
   63SAPC   C38 5091   3.468   6.834   7.397  0.4014  0.3926  0.1422
   63SAPC   H8X 5092   3.476   6.944   7.385  2.6779  0.3207  0.7792
   63SAPC   H8Y 5093   3.575   6.803   7.390  1.0811  2.9074 -1.3921
   63SAPC   C39 5094   3.421   6.796   7.537  0.3280  0.5534  0.4272
   63SAPC   H9X 5095   3.420   6.685   7.548  0.0263  0.2914 -1.9317
   63SAPC   H9Y 5096   3.316   6.829   7.550  0.3201  2.0599 -2.8900
   63SAPC  C310 5097   3.501   6.847   7.654  1.0776  0.0207 -0.2702
   63SAPC  H10X 5098   3.488   6.957   7.656  0.2552 -0.0911  0.7534
   63SAPC  H10Y 5099   3.610   6.828   7.638  0.9055  0.6009 -2.3127
   63SAPC  C311 5100   3.450   6.785   7.787 -0.1134 -0.0510  0.4093
   63SAPC  H11X 5101   3.458   6.676   7.767  1.0655  0.3484 -1.3620
   63SAPC  H11Y 5102   3.341   6.805   7.797 -0.1857  1.2751 -2.4772
   63SAPC  C312 5103   3.528   6.827   7.917  0.5001  0.7185  0.3407
   63SAPC  H12X 5104   3.547   6.937   7.919 -0.3222  0.8536  2.0309
   63SAPC  H12Y 5105   3.624   6.773   7.921  0.2322  0.1247 -1.1612
   63SAPC  C313 5106   3.446   6.793   8.037  0.4837  0.1216 -0.0972
   63SAPC  H13X 5107   3.428   6.684   8.021  0.1841 -0.3719  3.0899
   63SAPC  H13Y 5108   3.352   6.853   8.038 -0.3649 -1.1336 -2.4489
   63SAPC  C314 5109   3.520   6.811   8.170  0.4841  0.1395  0.8112
   63SAPC  H14X 5110   3.558   6.915   8.176  1.9072 -0.3688  0.6747
   63SAPC  H14Y 5111   3.605   6.740   8.177  0.4336 -0.0629 -0.4294
   63SAPC  C315 5112   3.435   6.800   8.299 -0.0679  0.2236 -0.6119
   63SAPC  H15X 5113   3.506   6.779   8.381 -1.4992 -2.3133  0.0203
   63SAPC  H15Y 5114   3.370   6.711   8.293  2.9919 -1.9849 -2.3538
   63SAPC  C316 5115   3.352   6.920   8.338 -0.3393  0.4385  0.2001
   63SAPC  H16X 5116   3.274   6.930   8.259  1.6943  1.1517 -1.7794
   63SAPC  H16Y 5117   3.411   7.013   8.354 -0.7623  0.7246  0.1123
   63SAPC  C317 5118   3.271   6.911   8.468  0.6350 -0.1410  0.6112
   63SAPC  H17X 5119   3.195   6.830   8.482 -1.1020  1.6398  1.7231
   63SAPC  H17Y 5120   3.207   7.002   8.470  1.1609  0.3128 -2.0215
   63SAPC  C318 5121   3.354   6.917   8.596  0.6933 -0.0124  0.5611
   63SAPC  H18X 5122   3.298   6.960   8.682  1.1808  0.1687  0.7891
   63SAPC  H18Y 5123   3.441   6.984   8.586 -1.0834  2.2118 -0.4758
   63SAPC  H18Z 5124   3.381   6.810   8.612 -0.8428 -0.6078 -0.6651
   64SAPC     N 5125   5.926   0.381   6.041  0.1575 -0.9239  0.1554
   64SAPC   C12 5126   5.990   0.371   6.181  0.9332  0.2713 -0.2100
   64SAPC  H12A 5127   5.911   0.368   6.255  1.9956  0.8045  0.9619
   64SAPC  H12B 5128   6.042   0.464   6.199  0.6885  0.2319  0.7343
   64SAPC   C13 5129   5.799   0.473   6.036  0.0902 -0.0936 -0.0808
   64SAPC  H13A 5130   5.709   0.429   6.076 -2.2739  1.8112 -3.1017
   64SAPC  H13B 5131   5.825   0.559   6.095 -0.2158 -0.9887  1.3918
   64SAPC  H13C 5132   5.777   0.502   5.935 -0.7786  2.7916  0.9124
   64SAPC   C14 5133   6.024   0.436   5.940  0.1025  0.1831  0.4471
   64SAPC  H14A 5134   6.065   0.526   5.983  0.3350  0.1723  0.2438
   64SAPC  H14B 5135   6.098   0.358   5.925  0.2031  0.6548 -1.5564
   64SAPC  H14C 5136   5.976   0.469   5.850  0.5359 -0.3704  0.0049
   64SAPC   C15 5137   5.877   0.250   5.987 -0.3385  0.4872 -0.6012
   64SAPC  H15A 5138   5.832   0.256   5.889 -0.6893  2.6964 -0.3470
   64SAPC  H15B 5139   5.962   0.184   5.984  1.2879  2.1840  3.6359
   64SAPC  H15C 5140   5.800   0.213   6.054 -0.9665 -0.2318 -1.7096
   64SAPC   C11 5141   6.087   0.254   6.213 -0.4535  0.2663 -0.7690
   64SAPC  H11A 5142   6.043   0.160   6.172 -0.7001 -0.6901  1.6460
   64SAPC  H11B 5143   6.080   0.232   6.321 -0.1398 -1.3094 -1.0534
   64SAPC     P 5144   6.296   0.407   6.172 -0.1375 -0.1842 -0.4389
   64SAPC   O13 5145   6.435   0.377   6.138 -0.2718  0.0982  0.1199
   64SAPC   O14 5146   6.235   0.530   6.117  0.3039 -0.5129 -0.5426
   64SAPC   O12 5147   6.216   0.270   6.158  0.0335  0.1544 -0.4640
   64SAPC   O11 5148   6.297   0.410   6.330  0.0719  0.2746  0.0109
   64SAPC    C1 5149   6.358   0.519   6.402  0.5866  1.4231 -0.5212
   64SAPC    HA 5150   6.350   0.615   6.346 -0.2852  2.3286  1.1302
   64SAPC    HB 5151   6.302   0.538   6.496  0.4357  0.9608 -0.5186
   64SAPC    C2 5152   6.507   0.500   6.461 -0.0993  0.3612 -0.5760
   64SAPC    HS 5153   6.567   0.451   6.381  2.4387 -1.2706  2.1982
   64SAPC   O21 5154   6.498   0.416   6.572 -0.2352 -0.2370 -0.2495
   64SAPC   C21 5155   6.624   0.365   6.619 -0.3224 -0.1415 -0.2184
   64SAPC   O22 5156   6.730   0.370   6.558  0.2765 -0.5831 -0.6016
   64SAPC   C22 5157   6.611   0.341   6.762 -0.0558 -0.5222 -0.4408
   64SAPC   H2R 5158   6.662   0.420   6.821  1.5806 -2.6728  1.1265
   64SAPC   H2S 5159   6.506   0.339   6.797 -0.9039 -3.4457 -3.0169
   64SAPC    C3 5160   6.570   0.635   6.507  0.1338 -0.3059 -0.2010
   64SAPC    HX 5161   6.601   0.696   6.419 -3.0857  1.9930  0.1594
   64SAPC    HY 5162   6.671   0.629   6.552 -0.0012  0.4079  0.2095
   64SAPC   O31 5163   6.472   0.720   6.574  0.0412  0.3848  0.6569
   64SAPC   C31 5164   6.483   0.730   6.707  0.0903  0.1754 -0.4159
   64SAPC   O32 5165   6.576   0.688   6.770  0.3614  0.6977 -0.3148
   64SAPC   C32 5166   6.366   0.800   6.782  0.0248  0.5924  0.1370
   64SAPC   H2X 5167   6.276   0.735   6.777  0.7468 -0.3375 -1.0901
   64SAPC   H2Y 5168   6.332   0.888   6.724 -1.3455 -2.4105 -3.8386
   64SAPC   C23 5169   6.690   0.209   6.786  0.4487  0.2612 -0.3357
   64SAPC   H3R 5170   6.797   0.216   6.756  0.6403  0.6945  0.4291
   64SAPC   H3S 5171   6.640   0.130   6.726  1.4978 -1.3296  0.8373
   64SAPC   C24 5172   6.688   0.156   6.929  0.5823  0.2440 -0.0124
   64SAPC   H4R 5173   6.773   0.203   6.983  2.8049 -2.2324 -1.2649
   64SAPC   H4S 5174   6.736   0.056   6.922 -0.8841 -0.3119 -2.5844
   64SAPC   C25 5175   6.562   0.149   7.007 -0.3414 -0.0736  0.7465
   64SAPC   H5R 5176   6.477   0.098   6.961 -0.2855 -0.1475  0.7275
   64SAPC   C26 5177   6.547   0.188   7.135  0.4407 -0.1829 -0.3552
   64SAPC   H6R 5178   6.448   0.190   7.182 -0.4821  0.4123 -2.2885
   64SAPC   C27 5179   6.644   0.243   7.239  0.0805  0.2761  0.5688
   64SAPC   H7R 5180   6.593   0.330   7.286 -1.2591 -0.5450  0.6724
   64SAPC   H7S 5181   6.728   0.293   7.186 -0.9641  1.7352  0.2668
   64SAPC   C28 5182   6.711   0.136   7.330 -0.4680 -0.4262 -0.3056
   64SAPC   H8R 5183   6.805   0.087   7.300  0.2856  0.6045  0.3601
   64SAPC   C29 5184   6.666   0.099   7.452 -0.2665 -0.0141  0.0399
   64SAPC   H9R 5185   6.726   0.027   7.509  1.1075 -0.5520 -2.0199
   64SAPC  C210 5186   6.548   0.144   7.533  0.1120  0.5718  0.4488
   64SAPC  H10R 5187   6.493   0.059   7.579 -2.9698  1.2217 -1.7990
   64SAPC  H10S 5188   6.469   0.187   7.467 -1.4166  1.5828  2.8825
   64SAPC  C211 5189   6.572   0.256   7.630  0.5692  0.0938 -1.1258
   64SAPC  H11R 5190   6.545   0.354   7.588  0.4441  0.6877  0.3183
   64SAPC  C212 5191   6.636   0.246   7.748 -0.2336  0.3848  0.1670
   64SAPC  H12R 5192   6.663   0.342   7.794 -0.8074  0.4566  0.3627
   64SAPC  C213 5193   6.707   0.120   7.800 -0.1099  0.0841 -0.4860
   64SAPC  H13R 5194   6.798   0.159   7.850 -1.3285  2.5723 -0.1385
   64SAPC  H13S 5195   6.739   0.058   7.714  0.2111 -0.3225 -0.0796
   64SAPC  C214 5196   6.628   0.022   7.882 -1.1742 -0.2502  0.0859
   64SAPC  H14R 5197   6.525   0.049   7.910 -0.5727  1.3627  0.7650
   64SAPC  C215 5198   6.671  -0.099   7.921  0.0133  0.6412  0.2537
   64SAPC  H15R 5199   6.594  -0.164   7.965 -0.1761  2.3283  2.5140
   64SAPC  C216 5200   6.809  -0.153   7.911 -0.2435 -0.0343  0.3856
   64SAPC  H16R 5201   6.805  -0.255   7.953  1.9106  0.0031  0.7175
   64SAPC  H16S 5202   6.885  -0.109   7.980  1.0096 -0.8270 -0.4809
   64SAPC  C217 5203   6.870  -0.145   7.769 -0.2073 -0.2154 -0.1533
   64SAPC  H17R 5204   6.927  -0.051   7.760 -0.1889 -0.0209  1.8273
   64SAPC  H17S 5205   6.792  -0.146   7.690 -0.2505  1.0038 -0.1356
   64SAPC  C218 5206   6.956  -0.270   7.736  0.1517  0.2409  0.8235
   64SAPC  H18R 5207   6.905  -0.357   7.783  2.5078 -0.5323  2.0301
   64SAPC  H18S 5208   7.054  -0.266   7.789  0.3040  1.0954  0.4774
   64SAPC  C219 5209   6.976  -0.311   7.589  0.0072  0.0898  0.4218
   64SAPC  H19R 5210   6.883  -0.360   7.554  0.3558  0.4864 -1.1004
   64SAPC  H19S 5211   7.046  -0.397   7.584 -0.7846 -0.5542  0.2928
   64SAPC  C220 5212   7.005  -0.192   7.495 -0.0691 -0.2055  0.3338
   64SAPC  H20R 5213   7.115  -0.177   7.495  0.0797 -1.2904 -0.4299
   64SAPC  H20S 5214   6.929  -0.113   7.517 -0.6181 -0.8932  0.9341
   64SAPC  H20T 5215   6.983  -0.229   7.392  1.2800  3.6163 -1.4154
   64SAPC   C33 5216   6.389   0.838   6.925  0.3016 -0.4475 -0.0605
   64SAPC   H3X 5217   6.495   0.868   6.934 -0.0213  0.9333 -0.7067
   64SAPC   H3Y 5218   6.382   0.747   6.988  0.7522  0.1944  0.9327
   64SAPC   C34 5219   6.305   0.948   6.992 -0.4952  0.3506  0.0485
   64SAPC   H4X 5220   6.199   0.921   6.976 -0.1596 -0.0400 -1.5649
   64SAPC   H4Y 5221   6.327   1.038   6.931  0.3580  0.6636  0.8090
   64SAPC   C35 5222   6.331   0.966   7.137  0.7210  0.1917 -0.3425
   64SAPC   H5X 5223   6.334   0.871   7.194  0.3598  0.6524  0.4446
   64SAPC   H5Y 5224   6.256   1.032   7.185  1.7004  0.3514  0.9945
   64SAPC   C36 5225   6.460   1.044   7.161  0.1758  0.7507 -0.5555
   64SAPC   H6X 5226   6.445   1.141   7.108  1.7762 -0.8223 -4.0059
   64SAPC   H6Y 5227   6.539   0.989   7.105  0.0207 -0.3498  0.2956
   64SAPC   C37 5228   6.498   1.040   7.308 -0.8419 -0.1610  0.5350
   64SAPC   H7X 5229   6.605   1.057   7.331 -0.8462  0.0392  0.4077
   64SAPC   H7Y 5230   6.482   0.935   7.341 -0.1418 -0.3741  0.1994
   64SAPC   C38 5231   6.409   1.137   7.393  0.1151 -0.3085  0.0139
   64SAPC   H8X 5232   6.305   1.099   7.403  0.4350 -0.9378  0.9822
   64SAPC   H8Y 5233   6.404   1.239   7.349  0.0288 -0.1918  0.2984
   64SAPC   C39 5234   6.461   1.149   7.529  0.0313  0.1566 -0.1669
   64SAPC   H9X 5235   6.416   1.236   7.581  2.2061  2.0699 -1.4134
   64SAPC   H9Y 5236   6.571   1.163   7.536  0.2452 -1.4989  0.0781
   64SAPC  C310 5237   6.429   1.028   7.610 -0.6392 -0.6443 -0.6626
   64SAPC  H10X 5238   6.486   0.945   7.563  0.1882 -0.1987 -0.4448
   64SAPC  H10Y 5239   6.319   1.028   7.597 -0.9166  2.2058  1.1994
   64SAPC  C311 5240   6.460   1.044   7.754 -1.0311 -0.8545 -0.6069
   64SAPC  H11X 5241   6.418   1.145   7.777  2.0250  0.3476 -0.1066
   64SAPC  H11Y 5242   6.570   1.047   7.770 -0.7851 -0.3534 -2.2134
   64SAPC  C312 5243   6.403   0.928   7.839 -0.4059 -0.2262 -0.1923
   64SAPC  H12X 5244   6.483   0.851   7.828  1.1700  1.1802  1.0197
   64SAPC  H12Y 5245   6.313   0.891   7.786 -0.4135  2.4192 -2.1273
   64SAPC  C313 5246   6.375   0.971   7.986 -0.5114  0.0389 -0.5869
   64SAPC  H13X 5247   6.295   1.047   7.995 -0.6920 -0.3977  2.1315
   64SAPC  H13Y 5248   6.461   1.012   8.043 -0.7890  0.2879 -0.3494
   64SAPC  C314 5249   6.329   0.848   8.060  0.1734  0.2697 -0.8314
   64SAPC  H14X 5250   6.411   0.774   8.057  0.1680  0.2330 -0.1308
   64SAPC  H14Y 5251   6.245   0.799   8.006 -0.3050 -1.6047  1.5439
   64SAPC  C315 5252   6.282   0.886   8.203  0.0621 -0.0085 -0.5534
   64SAPC  H15X 5253   6.192   0.950   8.192  0.8930  1.4046  0.6650
   64SAPC  H15Y 5254   6.355   0.956   8.249  0.2390  1.2081 -2.6317
   64SAPC  C316 5255   6.244   0.768   8.295  0.7014 -0.3823  0.3817
   64SAPC  H16X 5256   6.329   0.702   8.322  1.3131 -0.3761 -1.4567
   64SAPC  H16Y 5257   6.180   0.711   8.225  2.0780 -0.0123 -1.2175
   64SAPC  C317 5258   6.165   0.815   8.419 -0.6760  0.7638  0.1649
   64SAPC  H17X 5259   6.069   0.862   8.390 -0.3254  0.2441 -1.9019
   64SAPC  H17Y 5260   6.225   0.878   8.489  2.3508 -0.3979 -1.2585
   64SAPC  C318 5261   6.141   0.695   8.513  0.4822  0.0451  0.7203
   64SAPC  H18X 5262   6.129   0.599   8.459 -1.2637  0.4567  0.3148
   64SAPC  H18Y 5263   6.044   0.699   8.567 -0.4191  1.9356 -0.9509
   64SAPC  H18Z 5264   6.229   0.679   8.578  1.1091  1.8245  0.3367
   65SAPC     N 5265   6.033   1.425   6.281 -0.5420  0.0841  1.0324
   65SAPC   C12 5266   6.152   1.421   6.369 -1.0056  0.4441 -0.4128
   65SAPC  H12A 5267   6.136   1.337   6.436 -1.9442  0.4691 -0.6073
   65SAPC  H12B 5268   6.153   1.512   6.427 -0.3181 -0.1801  0.5902
   65SAPC   C13 5269   5.912   1.393   6.357 -0.2155 -0.1840  0.5343
   65SAPC  H13A 5270   5.898   1.440   6.454 -2.5308 -0.9107  0.5676
   65SAPC  H13B 5271   5.824   1.415   6.299  0.7438 -1.4692 -1.4478
   65SAPC  H13C 5272   5.902   1.289   6.384 -0.5076 -0.5822 -1.0798
   65SAPC   C14 5273   6.005   1.561   6.228 -0.4752  0.8651  0.0904
   65SAPC  H14A 5274   5.917   1.569   6.166  1.3115  0.9257 -2.5192
   65SAPC  H14B 5275   6.009   1.632   6.309  0.5280 -0.5363  1.3080
   65SAPC  H14C 5276   6.075   1.586   6.150 -1.2012 -0.7995 -1.1373
   65SAPC   C15 5277   6.044   1.329   6.164 -0.7558  0.0911 -0.4825
   65SAPC  H15A 5278   6.088   1.235   6.193 -0.0969  0.1638 -1.2458
   65SAPC  H15B 5279   5.947   1.314   6.117 -1.2876 -0.1036  0.6518
   65SAPC  H15C 5280   6.126   1.363   6.102  0.1605 -0.9553  0.1379
   65SAPC   C11 5281   6.290   1.401   6.299 -0.0643  0.1593  0.5060
   65SAPC  H11A 5282   6.288   1.307   6.239  2.0039  1.0842 -1.1065
   65SAPC  H11B 5283   6.375   1.383   6.368  0.9740 -0.2861 -0.8617
   65SAPC     P 5284   6.368   1.653   6.254  0.0173  0.4632  0.0555
   65SAPC   O13 5285   6.510   1.624   6.292 -0.3432 -0.1075  0.3196
   65SAPC   O14 5286   6.348   1.755   6.145  0.3103 -1.2718 -0.1330
   65SAPC   O12 5287   6.302   1.515   6.210 -0.9790  0.1998 -0.2276
   65SAPC   O11 5288   6.284   1.686   6.382  0.2156  0.3169  0.5466
   65SAPC    C1 5289   6.321   1.771   6.492 -0.3484  0.2531 -0.1922
   65SAPC    HA 5290   6.429   1.767   6.516 -0.6101  2.5579  1.5580
   65SAPC    HB 5291   6.287   1.876   6.479 -1.9968 -0.3477 -0.9208
   65SAPC    C2 5292   6.238   1.737   6.622  0.1475 -0.0031 -0.1433
   65SAPC    HS 5293   6.264   1.799   6.710 -1.0698 -1.9243  1.6282
   65SAPC   O21 5294   6.235   1.596   6.656  0.1568  0.9234  0.3926
   65SAPC   C21 5295   6.353   1.563   6.704 -0.2035  0.1664  0.1860
   65SAPC   O22 5296   6.449   1.637   6.724 -0.0779  0.4071  0.4361
   65SAPC   C22 5297   6.364   1.413   6.729  0.0370  0.1762  0.4803
   65SAPC   H2R 5298   6.374   1.356   6.634  0.8529 -1.8789  1.7799
   65SAPC   H2S 5299   6.463   1.390   6.773  0.7048  0.2901 -0.9364
   65SAPC    C3 5300   6.093   1.786   6.600  0.0866 -0.2569 -0.0494
   65SAPC    HX 5301   6.058   1.748   6.501  0.9120 -1.6723  0.1872
   65SAPC    HY 5302   6.108   1.896   6.595  1.1527 -0.3611  0.6140
   65SAPC   O31 5303   6.009   1.755   6.712  0.3820  0.3079  0.0464
   65SAPC   C31 5304   5.920   1.662   6.693 -0.3127 -0.2453 -0.3080
   65SAPC   O32 5305   5.910   1.577   6.605 -0.6814 -0.2732 -0.2087
   65SAPC   C32 5306   5.841   1.648   6.826 -0.0321  0.9405  0.1188
   65SAPC   H2X 5307   5.750   1.597   6.787  1.5838 -1.2827 -0.8646
   65SAPC   H2Y 5308   5.811   1.752   6.851  3.7859  2.0118  0.5355
   65SAPC   C23 5309   6.247   1.360   6.818  0.3130 -0.5844 -0.5471
   65SAPC   H3R 5310   6.267   1.253   6.842  0.0074 -0.3869  0.6161
   65SAPC   H3S 5311   6.148   1.369   6.768 -0.4915  0.5980  1.2363
   65SAPC   C24 5312   6.240   1.437   6.956 -0.2719 -0.4247  0.1872
   65SAPC   H4R 5313   6.146   1.401   7.005  0.0402 -0.7978  0.5225
   65SAPC   H4S 5314   6.208   1.541   6.936  1.1887 -0.2639 -1.3342
   65SAPC   C25 5315   6.355   1.420   7.056  0.1825 -0.4012 -0.3003
   65SAPC   H5R 5316   6.361   1.320   7.100 -1.6446 -0.8280 -0.9401
   65SAPC   C26 5317   6.428   1.519   7.107 -0.5365 -0.7230  0.5489
   65SAPC   H6R 5318   6.495   1.495   7.191  0.6991  1.8443  0.3667
   65SAPC   C27 5319   6.427   1.672   7.078  0.2441  0.4827  0.5945
   65SAPC   H7R 5320   6.444   1.692   6.970 -0.1131 -0.0847  0.4313
   65SAPC   H7S 5321   6.521   1.710   7.124 -0.8171  1.9960  1.6051
   65SAPC   C28 5322   6.303   1.746   7.131  0.0684  0.4726  0.2801
   65SAPC   H8R 5323   6.218   1.732   7.062 -0.9030 -1.4373  1.8258
   65SAPC   C29 5324   6.284   1.829   7.235  0.0113  0.3846  0.5575
   65SAPC   H9R 5325   6.182   1.839   7.274  0.7406  0.1095  2.6006
   65SAPC  C210 5326   6.382   1.888   7.329 -0.1173  0.3051  0.6079
   65SAPC  H10R 5327   6.482   1.841   7.325 -0.1835  0.3458 -1.8123
   65SAPC  H10S 5328   6.361   1.857   7.434  1.2559 -2.1878  0.2016
   65SAPC  C211 5329   6.408   2.029   7.311  0.1123  0.4373  0.3303
   65SAPC  H11R 5330   6.495   2.049   7.246 -0.5542 -1.6616 -1.2838
   65SAPC  C212 5331   6.345   2.125   7.377 -0.2970 -0.5503  0.2107
   65SAPC  H12R 5332   6.375   2.229   7.360  2.0595 -0.8555  2.1236
   65SAPC  C213 5333   6.239   2.112   7.487 -0.0855 -0.3794 -0.7683
   65SAPC  H13R 5334   6.295   2.093   7.581 -0.9684 -0.9927 -0.3626
   65SAPC  H13S 5335   6.168   2.028   7.475  1.0347 -1.4165 -0.2424
   65SAPC  C214 5336   6.158   2.238   7.514 -0.8232 -0.2029 -1.0519
   65SAPC  H14R 5337   6.162   2.269   7.620 -0.9971  2.3469 -1.7661
   65SAPC  C215 5338   6.075   2.303   7.429 -0.5973  0.5294 -0.2995
   65SAPC  H15R 5339   6.023   2.394   7.464  0.7031  0.9522  0.5467
   65SAPC  C216 5340   6.047   2.276   7.287  0.5467  0.2154  0.1023
   65SAPC  H16R 5341   5.941   2.274   7.255  0.6995 -0.7099 -0.3801
   65SAPC  H16S 5342   6.093   2.179   7.258  0.5950  0.2650  0.0090
   65SAPC  C217 5343   6.130   2.364   7.195 -0.0235  0.0905 -0.5364
   65SAPC  H17R 5344   6.235   2.351   7.229 -0.0708  1.3593  0.1468
   65SAPC  H17S 5345   6.109   2.472   7.214  0.5005 -0.1496  1.5739
   65SAPC  C218 5346   6.111   2.334   7.049  0.3120 -0.2989  0.5571
   65SAPC  H18R 5347   6.002   2.337   7.028  0.4162 -0.5309 -0.0269
   65SAPC  H18S 5348   6.148   2.231   7.032 -0.0689  0.0595 -2.6442
   65SAPC  C219 5349   6.186   2.435   6.957  0.2171  0.7949 -0.0803
   65SAPC  H19R 5350   6.147   2.539   6.955 -1.3437  0.2788  2.0423
   65SAPC  H19S 5351   6.186   2.385   6.858  0.8950  0.2819  0.1731
   65SAPC  C220 5352   6.334   2.451   6.996  0.0940  0.0271  0.7846
   65SAPC  H20R 5353   6.390   2.360   7.025 -0.5897 -0.1478  1.5734
   65SAPC  H20S 5354   6.329   2.507   7.092 -1.4254  1.2849 -0.0029
   65SAPC  H20T 5355   6.393   2.499   6.916  2.2557 -0.4357  2.0705
   65SAPC   C33 5356   5.908   1.572   6.947 -0.4238 -0.2751  0.6589
   65SAPC   H3X 5357   6.000   1.628   6.976  0.1146 -1.0994  0.5645
   65SAPC   H3Y 5358   5.925   1.472   6.902  2.0020 -1.6240  4.3598
   65SAPC   C34 5359   5.813   1.556   7.064  0.6895 -0.2826  0.4256
   65SAPC   H4X 5360   5.735   1.490   7.022 -1.4151  1.9408  0.7113
   65SAPC   H4Y 5361   5.758   1.645   7.102 -0.0576 -1.5144  2.2809
   65SAPC   C35 5362   5.875   1.495   7.194  0.1828 -0.0159  0.3102
   65SAPC   H5X 5363   5.901   1.388   7.183 -1.7605 -0.2812 -2.4199
   65SAPC   H5Y 5364   5.784   1.485   7.258 -0.8819 -0.9516 -1.3002
   65SAPC   C36 5365   5.987   1.569   7.270  0.3606 -0.1990 -1.1989
   65SAPC   H6X 5366   5.959   1.676   7.283 -0.7675 -0.7017  0.7661
   65SAPC   H6Y 5367   6.089   1.558   7.227  1.7569  2.0774  1.3595
   65SAPC   C37 5368   5.990   1.524   7.424  0.6601  0.3394 -0.3442
   65SAPC   H7X 5369   5.981   1.413   7.418 -2.2933  0.4864  0.6930
   65SAPC   H7Y 5370   5.895   1.556   7.471  1.1004  0.5414  0.4109
   65SAPC   C38 5371   6.110   1.562   7.500 -0.3356 -0.7617  0.0260
   65SAPC   H8X 5372   6.202   1.549   7.439 -0.9521 -1.9864 -0.6384
   65SAPC   H8Y 5373   6.119   1.496   7.589 -1.0808  0.8093  1.2958
   65SAPC   C39 5374   6.107   1.709   7.562  0.1906  0.0704  0.2955
   65SAPC   H9X 5375   6.007   1.725   7.608 -0.0353  0.1361 -0.2207
   65SAPC   H9Y 5376   6.109   1.791   7.488  2.7685 -0.0614  0.1899
   65SAPC  C310 5377   6.225   1.742   7.662  0.0753 -0.6689 -0.2756
   65SAPC  H10X 5378   6.206   1.849   7.685  0.1925 -0.8285  0.5948
   65SAPC  H10Y 5379   6.324   1.722   7.616  0.5965 -2.4336  1.5251
   65SAPC  C311 5380   6.215   1.662   7.790 -0.1954  0.5544  0.1355
   65SAPC  H11X 5381   6.207   1.553   7.768  1.1723  0.6880 -1.0483
   65SAPC  H11Y 5382   6.120   1.679   7.844 -0.9898  0.5947 -1.2608
   65SAPC  C312 5383   6.333   1.694   7.878 -0.1317 -0.1135  0.1044
   65SAPC  H12X 5384   6.422   1.707   7.812 -0.9366 -2.5248 -1.5106
   65SAPC  H12Y 5385   6.358   1.611   7.947  2.8156  0.3977 -0.2652
   65SAPC  C313 5386   6.308   1.818   7.964 -0.2632 -0.0136  0.1211
   65SAPC  H13X 5387   6.218   1.804   8.028 -0.6375  2.1905  0.0932
   65SAPC  H13Y 5388   6.294   1.915   7.913 -1.5517  1.3879  3.0352
   65SAPC  C314 5389   6.427   1.841   8.053  0.0313  0.0622  0.1600
   65SAPC  H14X 5390   6.437   1.945   8.090 -0.1361  0.6847 -1.4832
   65SAPC  H14Y 5391   6.515   1.840   7.984  0.4972 -1.1160  0.7626
   65SAPC  C315 5392   6.446   1.749   8.181  0.5271  0.0266  0.1514
   65SAPC  H15X 5393   6.543   1.761   8.233  1.5961 -2.7893 -1.0681
   65SAPC  H15Y 5394   6.434   1.643   8.149  1.2101 -0.0163  0.0365
   65SAPC  C316 5395   6.336   1.777   8.279 -0.5906 -0.0531 -0.1559
   65SAPC  H16X 5396   6.247   1.720   8.247 -0.9277  0.5074 -0.2250
   65SAPC  H16Y 5397   6.320   1.887   8.284  0.9235  0.1991 -0.5587
   65SAPC  C317 5398   6.382   1.725   8.417  0.0894  0.3912  0.4595
   65SAPC  H17X 5399   6.439   1.807   8.465 -0.5809 -0.1776  2.2861
   65SAPC  H17Y 5400   6.463   1.652   8.397 -1.2702 -1.0862  0.1970
   65SAPC  C318 5401   6.281   1.663   8.507 -0.1581 -0.2112  0.1567
   65SAPC  H18X 5402   6.248   1.571   8.455  1.0139  0.2792 -1.4963
   65SAPC  H18Y 5403   6.189   1.723   8.526 -1.5305 -1.5818 -2.0034
   65SAPC  H18Z 5404   6.325   1.636   8.605 -3.1698 -0.3923  1.5231
   66SAPC     N 5405   3.271   1.294   5.806 -0.0539  0.3869  0.1224
   66SAPC   C12 5406   3.260   1.266   5.959 -0.2138  0.1619  0.5335
   66SAPC  H12A 5407   3.171   1.207   5.972 -0.0919 -0.6318 -1.9799
   66SAPC  H12B 5408   3.247   1.361   6.007  1.2860 -0.0540  1.3815
   66SAPC   C13 5409   3.139   1.340   5.751  0.4693  0.9912  0.7217
   66SAPC  H13A 5410   3.148   1.352   5.644  1.5965 -2.5013  0.3653
   66SAPC  H13B 5411   3.066   1.262   5.761 -0.4829  1.6523 -0.8543
   66SAPC  H13C 5412   3.114   1.434   5.797  0.5386  2.2693 -1.7700
   66SAPC   C14 5413   3.370   1.405   5.778  0.0928 -0.2139 -0.0147
   66SAPC  H14A 5414   3.345   1.499   5.825  3.4348  0.5118  0.4268
   66SAPC  H14B 5415   3.467   1.373   5.811 -0.1762 -0.3198  0.6756
   66SAPC  H14C 5416   3.385   1.425   5.673 -0.5774 -0.6336 -0.1928
   66SAPC   C15 5417   3.308   1.168   5.736 -0.2846  0.0786  0.0196
   66SAPC  H15A 5418   3.410   1.140   5.759 -0.3488  0.1746  0.4246
   66SAPC  H15B 5419   3.243   1.086   5.759  0.8332 -1.0250 -0.7131
   66SAPC  H15C 5420   3.300   1.174   5.629  1.5107 -1.9434 -0.2414
   66SAPC   C11 5421   3.384   1.204   6.032  0.0048 -0.3183 -0.0465
   66SAPC  H11A 5422   3.373   1.203   6.142 -0.0827  1.6564 -0.0180
   66SAPC  H11B 5423   3.468   1.274   6.011  0.2181 -0.5246  0.1215
   66SAPC     P 5424   3.339   0.951   6.045  0.1193  0.5763 -0.3780
   66SAPC   O13 5425   3.194   0.980   6.060 -0.8726 -0.0666  0.0215
   66SAPC   O14 5426   3.369   0.829   5.974 -0.5009 -0.3852  0.1490
   66SAPC   O12 5427   3.417   1.077   5.973  0.3471 -0.5921 -0.2142
   66SAPC   O11 5428   3.416   0.947   6.181  0.2620 -0.1147  0.2339
   66SAPC    C1 5429   3.340   0.967   6.299  0.3568 -0.2032 -0.0000
   66SAPC    HA 5430   3.293   1.068   6.301  1.2468  0.2755 -1.8478
   66SAPC    HB 5431   3.252   0.899   6.294  0.2702 -0.0533 -0.6570
   66SAPC    C2 5432   3.413   0.933   6.430  0.0652  0.0138 -0.1953
   66SAPC    HS 5433   3.334   0.948   6.507  0.3072 -0.9699  0.2564
   66SAPC   O21 5434   3.532   1.007   6.461  0.7848 -0.0504  0.3941
   66SAPC   C21 5435   3.526   1.134   6.489  0.0031 -0.1971  0.2402
   66SAPC   O22 5436   3.429   1.202   6.464 -0.0038 -0.0899 -0.4285
   66SAPC   C22 5437   3.651   1.177   6.570  0.2263  0.3933  0.3671
   66SAPC   H2R 5438   3.657   1.108   6.657 -2.3649  2.1832  2.0138
   66SAPC   H2S 5439   3.739   1.175   6.502 -1.3625 -0.5896 -1.7379
   66SAPC    C3 5440   3.457   0.784   6.452 -0.0262 -0.3604  0.7499
   66SAPC    HX 5441   3.532   0.754   6.375 -2.3684 -1.6768 -1.0860
   66SAPC    HY 5442   3.361   0.732   6.434 -0.6274  1.2784 -1.0207
   66SAPC   O31 5443   3.499   0.745   6.582  0.0895 -0.0578 -0.6133
   66SAPC   C31 5444   3.623   0.753   6.606  0.1076  0.9085 -0.2165
   66SAPC   O32 5445   3.715   0.770   6.524 -0.3240  0.6528 -0.3613
   66SAPC   C32 5446   3.638   0.729   6.759 -0.0946  0.6765 -0.5853
   66SAPC   H2X 5447   3.545   0.761   6.811  0.2148 -0.7656  0.8679
   66SAPC   H2Y 5448   3.723   0.786   6.803 -0.4739  0.2832  0.6705
   66SAPC   C23 5449   3.654   1.330   6.620 -0.1949  0.1619  0.4301
   66SAPC   H3R 5450   3.569   1.326   6.691 -0.5604  0.7334  0.0276
   66SAPC   H3S 5451   3.631   1.410   6.547 -2.0278  0.1488  0.9577
   66SAPC   C24 5452   3.782   1.367   6.695  0.5627  0.2071 -0.1047
   66SAPC   H4R 5453   3.851   1.369   6.608  1.0442  3.3020  0.2801
   66SAPC   H4S 5454   3.823   1.288   6.761  1.1594  0.1502 -0.5448
   66SAPC   C25 5455   3.781   1.505   6.759  0.3767  0.0110  0.3069
   66SAPC   H5R 5456   3.794   1.578   6.677  2.9366 -1.5295 -0.7161
   66SAPC   C26 5457   3.778   1.549   6.892 -0.0048  0.2351 -0.1159
   66SAPC   H6R 5458   3.772   1.657   6.911  1.0917 -0.0839  2.1345
   66SAPC   C27 5459   3.781   1.459   7.018 -0.0931  0.0725  0.2483
   66SAPC   H7R 5460   3.730   1.360   7.011  0.4158 -0.0719 -1.6684
   66SAPC   H7S 5461   3.730   1.510   7.102 -1.8299  2.2208 -2.0294
   66SAPC   C28 5462   3.927   1.440   7.047 -0.8277 -0.3014  0.3862
   66SAPC   H8R 5463   3.975   1.353   7.001 -0.0544 -0.8386  2.1590
   66SAPC   C29 5464   4.010   1.518   7.116  0.2947 -0.2175  0.2845
   66SAPC   H9R 5465   4.115   1.487   7.129 -0.4783 -3.0138  0.3063
   66SAPC  C210 5466   3.968   1.636   7.195  0.1643  0.6911  0.0294
   66SAPC  H10R 5467   3.876   1.611   7.252 -0.3768  0.6927 -0.8428
   66SAPC  H10S 5468   3.937   1.703   7.113  0.8843  0.0719 -0.7583
   66SAPC  C211 5469   4.069   1.695   7.285  0.0274  0.3742 -0.0217
   66SAPC  H11R 5470   4.170   1.692   7.241 -0.0773  3.3170 -0.5524
   66SAPC  C212 5471   4.056   1.737   7.411  0.3874  0.2622 -0.4060
   66SAPC  H12R 5472   4.142   1.785   7.460  1.5983 -1.5828 -0.7040
   66SAPC  C213 5473   3.933   1.735   7.509  0.0980  0.2143  0.5070
   66SAPC  H13R 5474   3.968   1.705   7.610 -0.7632 -0.2516  0.6700
   66SAPC  H13S 5475   3.855   1.661   7.480 -0.4050  1.6072 -1.8485
   66SAPC  C214 5476   3.868   1.868   7.518 -0.0971  0.1670 -0.3603
   66SAPC  H14R 5477   3.796   1.889   7.438 -0.1336 -0.0440 -0.3815
   66SAPC  C215 5478   3.878   1.958   7.619 -0.1826  0.2276  0.3945
   66SAPC  H15R 5479   3.841   2.060   7.604  0.0522  0.2321 -0.1505
   66SAPC  C216 5480   3.939   1.932   7.761  0.2290 -0.1369 -0.5377
   66SAPC  H16R 5481   3.964   2.027   7.813  0.6506 -0.8427  0.5798
   66SAPC  H16S 5482   4.012   1.848   7.763  0.9426  0.4955  1.6201
   66SAPC  C217 5483   3.823   1.868   7.846  0.9662  0.3118 -0.2624
   66SAPC  H17R 5484   3.871   1.827   7.938 -1.2964 -0.5793  0.5674
   66SAPC  H17S 5485   3.792   1.776   7.793  2.4264  0.4367 -1.3487
   66SAPC  C218 5486   3.704   1.956   7.887  0.3081 -1.0452 -0.5863
   66SAPC  H18R 5487   3.635   1.986   7.805  0.5882 -0.6169 -0.6630
   66SAPC  H18S 5488   3.744   2.048   7.934 -0.5659 -1.2448  0.5596
   66SAPC  C219 5489   3.614   1.882   7.982 -0.3152  0.9752  0.2067
   66SAPC  H19R 5490   3.667   1.851   8.075 -1.3531 -2.3539 -0.2593
   66SAPC  H19S 5491   3.597   1.781   7.940  5.2271 -0.1556  0.3066
   66SAPC  C220 5492   3.482   1.951   8.027 -0.4166  0.9027 -0.4625
   66SAPC  H20R 5493   3.413   1.947   7.941  0.5095  1.8374 -1.2608
   66SAPC  H20S 5494   3.501   2.054   8.062 -0.8249  1.1826 -1.0717
   66SAPC  H20T 5495   3.437   1.894   8.111  0.5758  1.6775  0.6102
   66SAPC   C33 5496   3.661   0.583   6.797 -0.1773  0.3218 -0.4316
   66SAPC   H3X 5497   3.741   0.532   6.740 -1.4134  0.1072 -2.0066
   66SAPC   H3Y 5498   3.573   0.521   6.767  0.1290  0.2102 -1.1075
   66SAPC   C34 5499   3.664   0.565   6.955  0.2045 -0.3737 -0.8064
   66SAPC   H4X 5500   3.704   0.462   6.965  0.3055 -0.4089 -1.5385
   66SAPC   H4Y 5501   3.559   0.572   6.990  0.2034 -2.9502 -0.2297
   66SAPC   C35 5502   3.762   0.653   7.029  0.1254  0.5089  0.2676
   66SAPC   H5X 5503   3.733   0.759   7.011  2.4366  1.7329  3.3413
   66SAPC   H5Y 5504   3.866   0.645   6.990  0.5653 -0.8601  1.6916
   66SAPC   C36 5505   3.751   0.629   7.181 -0.0044 -0.4726 -0.4832
   66SAPC   H6X 5506   3.756   0.520   7.197  1.0049 -0.6150 -1.7294
   66SAPC   H6Y 5507   3.651   0.662   7.219  0.5186  1.0159 -0.3489
   66SAPC   C37 5508   3.847   0.695   7.272 -0.5353 -0.7864 -0.3064
   66SAPC   H7X 5509   3.825   0.804   7.279 -2.6227 -1.3014  1.8723
   66SAPC   H7Y 5510   3.950   0.684   7.231  0.4124  1.1142  1.4717
   66SAPC   C38 5511   3.840   0.643   7.409  0.2913  0.0098 -0.4531
   66SAPC   H8X 5512   3.869   0.537   7.419 -0.8264 -0.2031  0.6177
   66SAPC   H8Y 5513   3.732   0.654   7.433 -0.0119 -0.8334 -1.3940
   66SAPC   C39 5514   3.915   0.726   7.522  0.9986  0.6227  0.3662
   66SAPC   H9X 5515   3.883   0.832   7.510  0.5844  0.4196 -0.3684
   66SAPC   H9Y 5516   4.025   0.724   7.512  0.9627  1.7621 -0.2984
   66SAPC  C310 5517   3.859   0.684   7.660 -0.1510 -0.2249  0.0327
   66SAPC  H10X 5518   3.911   0.589   7.685 -0.4313 -0.7835 -1.4043
   66SAPC  H10Y 5519   3.753   0.656   7.639  0.4593 -0.5208 -2.8871
   66SAPC  C311 5520   3.863   0.791   7.770 -0.3537  0.0012 -0.0718
   66SAPC  H11X 5521   3.788   0.869   7.744 -2.6967 -0.8421  3.6237
   66SAPC  H11Y 5522   3.959   0.847   7.773 -0.0328 -0.5647  0.2750
   66SAPC  C312 5523   3.828   0.717   7.900  0.5206 -1.0582 -0.2892
   66SAPC  H12X 5524   3.920   0.662   7.931  1.6399 -0.3770 -2.3150
   66SAPC  H12Y 5525   3.750   0.642   7.875  0.0167 -0.3072 -0.9918
   66SAPC  C313 5526   3.783   0.807   8.010  0.1592  0.0764  0.1183
   66SAPC  H13X 5527   3.752   0.750   8.100 -1.9704  0.2069 -0.4838
   66SAPC  H13Y 5528   3.695   0.861   7.970 -0.8329  0.0592  2.2101
   66SAPC  C314 5529   3.895   0.911   8.048  0.6065  0.4636 -0.6872
   66SAPC  H14X 5530   3.900   0.984   7.964  1.6209  0.6864 -0.4327
   66SAPC  H14Y 5531   3.993   0.862   8.063  0.4503  0.2906 -0.2327
   66SAPC  C315 5532   3.844   1.002   8.163  0.3876  0.5925  0.1755
   66SAPC  H15X 5533   3.812   0.932   8.244  0.4286  0.6435  0.2359
   66SAPC  H15Y 5534   3.748   1.054   8.142  0.6589  0.9651 -0.1525
   66SAPC  C316 5535   3.954   1.091   8.222  0.9414 -0.1832  0.1815
   66SAPC  H16X 5536   3.981   1.172   8.151  2.0569  0.4350  1.2759
   66SAPC  H16Y 5537   4.042   1.025   8.237 -0.4256 -2.6048 -1.9558
   66SAPC  C317 5538   3.901   1.150   8.362 -0.2779 -0.1267  0.7951
   66SAPC  H17X 5539   3.876   1.064   8.427 -0.1391  0.1906  1.2765
   66SAPC  H17Y 5540   3.808   1.206   8.340  0.0241  0.5343  1.1579
   66SAPC  C318 5541   4.013   1.238   8.415 -0.1569  0.0044 -0.7027
   66SAPC  H18X 5542   3.988   1.282   8.514 -0.5015 -0.4663 -0.5778
   66SAPC  H18Y 5543   4.041   1.322   8.348  0.3807 -0.1197 -0.6367
   66SAPC  H18Z 5544   4.102   1.172   8.425 -0.6291 -0.6000 -0.4658
   67SAPC     N 5545   6.658   2.915   6.481  0.0701  0.3119 -0.1156
   67SAPC   C12 5546   6.587   3.015   6.573  0.4745  0.5580 -0.3563
   67SAPC  H12A 5547   6.628   3.018   6.673  0.9690  0.9227 -0.5704
   67SAPC  H12B 5548   6.484   2.994   6.600  1.5281 -1.5105  2.2350
   67SAPC   C13 5549   6.674   2.783   6.554 -0.3112 -0.4452 -0.0806
   67SAPC  H13A 5550   6.580   2.739   6.584 -0.8058 -0.0964 -1.1106
   67SAPC  H13B 5551   6.708   2.707   6.486  2.2005 -0.0329  0.6312
   67SAPC  H13C 5552   6.739   2.790   6.640 -0.0947  0.4485 -0.3109
   67SAPC   C14 5553   6.566   2.881   6.369 -0.0441  0.2550 -0.4623
   67SAPC  H14A 5554   6.555   2.960   6.296 -1.2487 -2.1012 -2.9491
   67SAPC  H14B 5555   6.606   2.789   6.327  0.9320  0.2546  0.4434
   67SAPC  H14C 5556   6.469   2.859   6.410  0.1421 -0.5583 -0.4385
   67SAPC   C15 5557   6.794   2.952   6.435 -0.7139  0.0130  0.0264
   67SAPC  H15A 5558   6.795   3.040   6.372  1.7034  1.4286  1.9601
   67SAPC  H15B 5559   6.858   2.975   6.518 -1.7357  0.2499  0.7580
   67SAPC  H15C 5560   6.831   2.868   6.378  0.0351  0.4861 -0.2021
   67SAPC   C11 5561   6.573   3.161   6.523 -0.1572 -0.1290 -0.1916
   67SAPC  H11A 5562   6.516   3.212   6.604 -1.2041 -1.6524  0.0426
   67SAPC  H11B 5563   6.518   3.174   6.428 -3.7922  2.5999  2.1572
   67SAPC     P 5564   6.771   3.292   6.637  0.1339  0.2087 -0.0592
   67SAPC   O13 5565   6.905   3.346   6.597  0.0409 -0.1365 -0.1291
   67SAPC   O14 5566   6.667   3.396   6.676 -0.4016  0.0232 -0.4804
   67SAPC   O12 5567   6.705   3.216   6.520 -0.1023  0.4273  0.1408
   67SAPC   O11 5568   6.792   3.184   6.756  0.2879 -0.0839 -0.5208
   67SAPC    C1 5569   6.830   3.226   6.890 -0.0117 -0.0463  0.0234
   67SAPC    HA 5570   6.880   3.144   6.946 -0.1669 -1.4232 -1.8008
   67SAPC    HB 5571   6.910   3.302   6.877  0.7827 -0.4231  2.4898
   67SAPC    C2 5572   6.717   3.281   6.982 -0.3039 -0.7776  0.2324
   67SAPC    HS 5573   6.685   3.382   6.948 -3.0471 -2.2090 -1.6588
   67SAPC   O21 5574   6.754   3.305   7.122 -0.2301 -0.0304 -0.1705
   67SAPC   C21 5575   6.813   3.422   7.153  0.0419 -0.1796 -0.8368
   67SAPC   O22 5576   6.851   3.511   7.079 -0.2732 -0.1654 -0.7215
   67SAPC   C22 5577   6.838   3.430   7.306 -0.5644 -0.7938 -0.2715
   67SAPC   H2R 5578   6.945   3.458   7.319 -0.3133 -0.5583 -2.5551
   67SAPC   H2S 5579   6.768   3.510   7.338  1.5528  1.5027 -1.2659
   67SAPC    C3 5580   6.599   3.187   6.970  0.3535  0.5694  0.0849
   67SAPC    HX 5581   6.560   3.192   6.866 -0.6479  0.4594  0.4480
   67SAPC    HY 5582   6.521   3.231   7.035  0.9988  1.9646 -0.0733
   67SAPC   O31 5583   6.628   3.048   7.015 -0.2147 -0.2552  0.4577
   67SAPC   C31 5584   6.558   2.953   6.948 -0.2588 -0.4909  0.2333
   67SAPC   O32 5585   6.478   2.974   6.861  0.7571 -0.0516 -0.1909
   67SAPC   C32 5586   6.589   2.820   7.010  0.1093 -0.0719 -0.0553
   67SAPC   H2X 5587   6.691   2.794   6.976  1.2880 -0.8342  3.8788
   67SAPC   H2Y 5588   6.514   2.746   6.973  0.0294  0.4097 -0.8658
   67SAPC   C23 5589   6.806   3.305   7.389 -0.1868 -0.4007 -0.1735
   67SAPC   H3R 5590   6.847   3.337   7.487 -1.8606  0.6896  0.1926
   67SAPC   H3S 5591   6.871   3.225   7.349  0.6904 -0.2233  0.8700
   67SAPC   C24 5592   6.666   3.273   7.411  0.3608 -0.9386 -0.7017
   67SAPC   H4R 5593   6.623   3.229   7.318 -1.9406  0.1212 -0.1894
   67SAPC   H4S 5594   6.611   3.364   7.442 -1.1676 -1.7321 -0.9738
   67SAPC   C25 5595   6.658   3.171   7.520 -0.3307 -0.0741  0.0339
   67SAPC   H5R 5596   6.751   3.115   7.541  0.4490  1.1740 -0.0287
   67SAPC   C26 5597   6.554   3.151   7.596  0.7159 -0.8089 -0.4651
   67SAPC   H6R 5598   6.577   3.090   7.685 -0.1485 -1.3063 -0.5713
   67SAPC   C27 5599   6.418   3.214   7.605 -0.2892 -0.4633  0.8618
   67SAPC   H7R 5600   6.380   3.221   7.501 -0.3312 -1.4510  0.8091
   67SAPC   H7S 5601   6.433   3.309   7.661  1.3679 -0.3844  0.3088
   67SAPC   C28 5602   6.318   3.125   7.680 -0.0989 -0.6627  0.0278
   67SAPC   H8R 5603   6.249   3.073   7.612 -1.0513 -1.1723  1.3632
   67SAPC   C29 5604   6.309   3.115   7.814  0.4359 -0.7887 -0.6358
   67SAPC   H9R 5605   6.231   3.052   7.858 -0.3263  0.4393 -0.1860
   67SAPC  C210 5606   6.394   3.184   7.916 -0.5043 -0.7280 -0.5983
   67SAPC  H10R 5607   6.492   3.218   7.877  0.5980 -2.4621  0.6113
   67SAPC  H10S 5608   6.426   3.111   7.993 -0.3378 -0.0442 -0.0109
   67SAPC  C211 5609   6.320   3.297   7.975 -0.4899  0.0091  0.3913
   67SAPC  H11R 5610   6.315   3.396   7.927 -0.1484  0.3821  1.1090
   67SAPC  C212 5611   6.242   3.285   8.089  0.6446  0.3002  0.3517
   67SAPC  H12R 5612   6.198   3.377   8.132 -0.6249 -0.2546  0.2484
   67SAPC  C213 5613   6.221   3.158   8.165  0.1392 -0.6559 -0.7472
   67SAPC  H13R 5614   6.320   3.110   8.181  1.4800  1.8358 -1.3924
   67SAPC  H13S 5615   6.160   3.089   8.102 -0.7090 -0.5871 -0.0036
   67SAPC  C214 5616   6.154   3.185   8.297 -0.3620 -0.1311 -0.5815
   67SAPC  H14R 5617   6.191   3.270   8.356  0.9319 -1.1370  0.0673
   67SAPC  C215 5618   6.056   3.114   8.354 -0.2519 -0.7516  0.8134
   67SAPC  H15R 5619   6.024   3.150   8.453  2.7473  1.1526  1.1619
   67SAPC  C216 5620   5.975   2.990   8.321  0.0102  0.2840 -0.5499
   67SAPC  H16R 5621   6.026   2.895   8.350  0.7246  0.9807  0.5448
   67SAPC  H16S 5622   5.957   2.975   8.213 -1.8663  0.8559 -0.3273
   67SAPC  C217 5623   5.840   2.993   8.400  0.1827  0.4565 -0.1612
   67SAPC  H17R 5624   5.778   2.924   8.338  1.4231 -0.5887 -0.2562
   67SAPC  H17S 5625   5.785   3.089   8.393 -1.0240 -0.2642 -0.9045
   67SAPC  C218 5626   5.859   2.938   8.547  0.2498  0.1621 -0.4383
   67SAPC  H18R 5627   5.909   3.006   8.619 -1.0768  0.4638  0.2095
   67SAPC  H18S 5628   5.916   2.842   8.541 -0.9931 -0.6320  0.2371
   67SAPC  C219 5629   5.722   2.912   8.602 -0.3125 -0.4212  0.4862
   67SAPC  H19R 5630   5.667   2.846   8.531  0.1318  2.7844 -2.9601
   67SAPC  H19S 5631   5.667   3.008   8.614 -0.9672 -0.8042  0.5683
   67SAPC  C220 5632   5.724   2.841   8.743  0.4527 -0.3149 -0.0764
   67SAPC  H20R 5633   5.791   2.894   8.814 -1.3077 -0.0926  1.4390
   67SAPC  H20S 5634   5.758   2.735   8.735 -0.8902 -0.6477 -1.6079
   67SAPC  H20T 5635   5.623   2.837   8.789  0.5241  2.2360  0.3467
   67SAPC   C33 5636   6.598   2.819   7.163 -0.9132 -0.6084  0.9912
   67SAPC   H3X 5637   6.671   2.890   7.209  1.2559 -1.2568 -1.3741
   67SAPC   H3Y 5638   6.642   2.720   7.186  0.8771 -0.5791 -2.0915
   67SAPC   C34 5639   6.460   2.836   7.218 -0.2859 -0.9827 -0.5449
   67SAPC   H4X 5640   6.381   2.781   7.164 -0.7393  0.7973 -1.7500
   67SAPC   H4Y 5641   6.432   2.944   7.219 -0.9662 -1.1560 -0.9486
   67SAPC   C35 5642   6.446   2.817   7.372  0.5506 -0.2619  0.6240
   67SAPC   H5X 5643   6.349   2.859   7.407  0.7283  1.6428 -1.1002
   67SAPC   H5Y 5644   6.527   2.868   7.429  0.0027 -1.0836  2.1584
   67SAPC   C36 5645   6.448   2.664   7.400 -0.3555  0.6133 -0.2575
   67SAPC   H6X 5646   6.551   2.627   7.383 -0.1247  1.1962 -0.1582
   67SAPC   H6Y 5647   6.372   2.619   7.332 -0.2131  0.5650 -0.3834
   67SAPC   C37 5648   6.430   2.622   7.543 -0.1835  0.9078  0.4934
   67SAPC   H7X 5649   6.330   2.641   7.587  0.6698  0.8962  2.5372
   67SAPC   H7Y 5650   6.494   2.691   7.604  1.7898  0.0032 -0.4976
   67SAPC   C38 5651   6.468   2.479   7.583 -0.4109  0.0036 -0.0476
   67SAPC   H8X 5652   6.571   2.453   7.553 -0.1708  1.6534 -0.6997
   67SAPC   H8Y 5653   6.409   2.404   7.527  1.1920 -1.0350 -0.3643
   67SAPC   C39 5654   6.451   2.448   7.740  0.2199 -0.0682 -0.2126
   67SAPC   H9X 5655   6.346   2.473   7.765  0.0021  1.0827 -2.1869
   67SAPC   H9Y 5656   6.513   2.529   7.785 -3.5474  3.0373 -0.3289
   67SAPC  C310 5657   6.488   2.304   7.783  0.7806  0.1338 -0.0755
   67SAPC  H10X 5658   6.587   2.274   7.743  0.1417  1.3545 -2.6828
   67SAPC  H10Y 5659   6.412   2.234   7.743 -1.0851  1.4567  1.1139
   67SAPC  C311 5660   6.505   2.286   7.938  0.4277 -0.3099 -0.5773
   67SAPC  H11X 5661   6.413   2.256   7.993 -0.1504  1.3729 -0.5878
   67SAPC  H11Y 5662   6.519   2.383   7.990  0.0351  0.4366 -1.8239
   67SAPC  C312 5663   6.607   2.179   7.975 -0.4309  0.6030 -0.2138
   67SAPC  H12X 5664   6.695   2.198   7.910 -0.3358 -1.1727 -0.6247
   67SAPC  H12Y 5665   6.585   2.072   7.953  0.3199  0.3789  0.1353
   67SAPC  C313 5666   6.653   2.191   8.124 -0.0624 -0.5334  0.2626
   67SAPC  H13X 5667   6.573   2.158   8.194  0.7137 -2.0997  0.4359
   67SAPC  H13Y 5668   6.656   2.301   8.140  0.9214 -0.5221 -0.0001
   67SAPC  C314 5669   6.781   2.113   8.158  0.0787 -0.1965 -0.0419
   67SAPC  H14X 5670   6.853   2.137   8.076  0.2703  0.8642  0.4254
   67SAPC  H14Y 5671   6.772   2.003   8.156  1.7162 -0.3584  0.6448
   67SAPC  C315 5672   6.856   2.154   8.280  0.7816  0.0624  0.2772
   67SAPC  H15X 5673   6.783   2.140   8.363  0.4168 -0.1387 -0.0767
   67SAPC  H15Y 5674   6.884   2.261   8.277 -0.0458  0.3678  2.5916
   67SAPC  C316 5675   6.974   2.062   8.309 -0.2970 -0.4209  0.5833
   67SAPC  H16X 5676   7.030   2.038   8.215 -1.5531 -0.4262 -0.1771
   67SAPC  H16Y 5677   6.913   1.976   8.345 -0.3508 -1.0085 -0.8656
   67SAPC  C317 5678   7.072   2.114   8.426  0.0471 -0.6650  0.2053
   67SAPC  H17X 5679   7.009   2.119   8.517 -0.4367 -0.8109 -0.1218
   67SAPC  H17Y 5680   7.095   2.220   8.404 -2.8550 -0.3044 -1.3105
   67SAPC  C318 5681   7.195   2.031   8.445  0.3416 -0.3829  0.0638
   67SAPC  H18X 5682   7.270   2.057   8.368 -0.9064  2.6238 -0.1781
   67SAPC  H18Y 5683   7.178   1.921   8.447  1.7771 -0.6405 -0.9888
   67SAPC  H18Z 5684   7.247   2.053   8.540  0.6554 -0.5529 -0.0693
   68SAPC     N 5685   3.934   2.538   6.336  0.0923 -0.4164  0.1578
   68SAPC   C12 5686   4.042   2.422   6.345  0.0601 -0.2997  0.4138
   68SAPC  H12A 5687   4.056   2.391   6.243 -0.1627  1.5051 -0.1765
   68SAPC  H12B 5688   4.002   2.341   6.406  1.0703 -0.0067  1.4867
   68SAPC   C13 5689   3.799   2.482   6.306 -0.4661 -0.1323  0.1579
   68SAPC  H13A 5690   3.779   2.464   6.201 -0.8016  1.5382 -0.0904
   68SAPC  H13B 5691   3.771   2.394   6.361  0.0864  0.3101  1.1538
   68SAPC  H13C 5692   3.727   2.558   6.332  2.2376  1.7019  2.5826
   68SAPC   C14 5693   3.919   2.614   6.463 -0.1131  0.2536 -0.1813
   68SAPC  H14A 5694   3.868   2.559   6.541 -0.6693  2.2810  0.9264
   68SAPC  H14B 5695   4.014   2.647   6.504 -0.5912 -0.5441  1.6226
   68SAPC  H14C 5696   3.868   2.707   6.446 -3.0439 -1.1939  0.3321
   68SAPC   C15 5697   3.979   2.633   6.234 -0.2156 -0.0761 -0.2471
   68SAPC  H15A 5698   3.907   2.712   6.219 -0.9689 -0.8664 -0.8545
   68SAPC  H15B 5699   4.070   2.681   6.266  0.5828 -2.6024  1.4516
   68SAPC  H15C 5700   3.990   2.581   6.140 -0.8885 -3.1998  1.3535
   68SAPC   C11 5701   4.182   2.459   6.394 -0.3125 -0.0323  0.3105
   68SAPC  H11A 5702   4.233   2.362   6.410 -0.5448 -0.5609 -2.0035
   68SAPC  H11B 5703   4.171   2.513   6.491  3.1193  0.0672  0.6824
   68SAPC     P 5704   4.316   2.503   6.165  0.3756 -0.2552  0.2123
   68SAPC   O13 5705   4.212   2.439   6.077  0.2250 -0.8212 -0.4784
   68SAPC   O14 5706   4.372   2.629   6.110  0.0861  0.2716 -0.3487
   68SAPC   O12 5707   4.258   2.537   6.306 -0.0651  0.3439  0.2356
   68SAPC   O11 5708   4.435   2.396   6.185  0.5946 -0.2417 -0.3984
   68SAPC    C1 5709   4.564   2.440   6.241 -0.1789 -0.5700  0.0544
   68SAPC    HA 5710   4.640   2.384   6.183  0.4048 -0.5498  0.7930
   68SAPC    HB 5711   4.589   2.547   6.221  2.1276 -1.0368  0.4145
   68SAPC    C2 5712   4.571   2.408   6.394  0.0486 -0.0708 -0.2145
   68SAPC    HS 5713   4.673   2.366   6.409  0.3901  0.7773 -0.1304
   68SAPC   O21 5714   4.475   2.306   6.440 -0.0408 -0.5545 -0.1475
   68SAPC   C21 5715   4.502   2.189   6.393  0.1531 -0.3040 -0.0479
   68SAPC   O22 5716   4.590   2.161   6.314  0.3155 -0.1370 -0.3133
   68SAPC   C22 5717   4.441   2.076   6.478  0.3124 -0.0553 -0.3994
   68SAPC   H2R 5718   4.339   2.040   6.454  0.6523 -0.3623 -1.3996
   68SAPC   H2S 5719   4.510   1.989   6.477 -1.6067 -1.6589  1.6410
   68SAPC    C3 5720   4.549   2.526   6.483  0.4612  0.1086 -0.2617
   68SAPC    HX 5721   4.449   2.573   6.477  0.8640  1.1560  0.8443
   68SAPC    HY 5722   4.619   2.610   6.461 -0.7315  0.8080 -1.4100
   68SAPC   O31 5723   4.566   2.483   6.622 -0.3933  0.3429 -0.1261
   68SAPC   C31 5724   4.466   2.492   6.709 -0.1840  0.7012 -0.4564
   68SAPC   O32 5725   4.348   2.514   6.684  0.0227 -0.2990 -0.9448
   68SAPC   C32 5726   4.522   2.452   6.840 -0.4320 -0.8839  0.2622
   68SAPC   H2X 5727   4.602   2.527   6.863 -1.5965  0.6997 -0.7653
   68SAPC   H2Y 5728   4.572   2.353   6.843  1.6500  0.1325  0.1989
   68SAPC   C23 5729   4.426   2.112   6.628  0.4622  0.2538 -0.2823
   68SAPC   H3R 5730   4.332   2.171   6.638 -0.4697 -1.1647 -0.5787
   68SAPC   H3S 5731   4.512   2.173   6.664 -0.1156  0.4925  0.7074
   68SAPC   C24 5732   4.421   1.989   6.713 -0.6966 -0.4120  0.3858
   68SAPC   H4R 5733   4.523   1.948   6.725 -0.8845 -1.2132 -0.6516
   68SAPC   H4S 5734   4.371   1.914   6.648 -0.5180  0.9693 -1.3979
   68SAPC   C25 5735   4.347   2.007   6.844 -0.4919  0.6155  0.4091
   68SAPC   H5R 5736   4.243   2.044   6.838 -0.2894  1.1274  0.0247
   68SAPC   C26 5737   4.397   1.973   6.962 -0.6745 -0.3872  0.0599
   68SAPC   H6R 5738   4.346   2.002   7.055 -0.3179  5.8685 -1.4939
   68SAPC   C27 5739   4.540   1.918   6.982  0.2745  0.2096 -0.1642
   68SAPC   H7R 5740   4.599   1.999   7.029  0.1497  1.2403 -1.7649
   68SAPC   H7S 5741   4.596   1.886   6.892 -1.3970  1.0333 -1.5170
   68SAPC   C28 5742   4.520   1.816   7.089 -0.0419 -0.2416 -0.2001
   68SAPC   H8R 5743   4.516   1.710   7.059  2.2700 -0.1777 -0.8314
   68SAPC   C29 5744   4.503   1.834   7.225 -0.0429 -0.2889  0.1363
   68SAPC   H9R 5745   4.509   1.743   7.286 -0.7005 -0.2123  0.3173
   68SAPC  C210 5746   4.523   1.961   7.302 -0.3622 -0.2696  0.1635
   68SAPC  H10R 5747   4.564   2.047   7.245  0.2889 -0.3667  0.4909
   68SAPC  H10S 5748   4.594   1.933   7.382 -0.2572  1.2147  0.6092
   68SAPC  C211 5749   4.392   2.005   7.366  0.5949 -0.9232 -0.6619
   68SAPC  H11R 5750   4.325   2.042   7.287 -0.7237  1.3767  1.4603
   68SAPC  C212 5751   4.364   1.995   7.499 -0.5816  0.4355  0.1552
   68SAPC  H12R 5752   4.264   2.033   7.525 -0.5753 -0.5706  1.7380
   68SAPC  C213 5753   4.440   1.929   7.612  0.1655 -0.3705  0.2958
   68SAPC  H13R 5754   4.531   1.885   7.565 -2.1150 -2.5533 -2.2535
   68SAPC  H13S 5755   4.380   1.850   7.660 -0.5307 -1.3355 -2.0858
   68SAPC  C214 5756   4.481   2.045   7.700  0.7097 -0.0729 -0.5154
   68SAPC  H14R 5757   4.562   2.100   7.650  0.0412 -0.4287 -2.0000
   68SAPC  C215 5758   4.437   2.069   7.827 -0.4605  0.1666  0.6141
   68SAPC  H15R 5759   4.458   2.168   7.870 -0.9085  0.0444  1.1210
   68SAPC  C216 5760   4.331   1.988   7.906  0.4400 -0.2303  0.3439
   68SAPC  H16R 5761   4.377   1.905   7.963  0.0977 -0.7690 -0.1581
   68SAPC  H16S 5762   4.252   1.946   7.841 -1.1367  1.0249  1.4145
   68SAPC  C217 5763   4.266   2.078   8.002  0.0932  0.1137  0.0916
   68SAPC  H17R 5764   4.203   2.150   7.946 -2.1564 -3.0352 -1.6516
   68SAPC  H17S 5765   4.344   2.121   8.067  1.3489 -0.3535 -1.0741
   68SAPC  C218 5766   4.163   2.001   8.092  0.1708  0.0153  0.0564
   68SAPC  H18R 5767   4.218   1.940   8.166 -0.8220  0.3201  1.0569
   68SAPC  H18S 5768   4.100   1.933   8.031 -0.2314  0.5805 -0.1615
   68SAPC  C219 5769   4.078   2.111   8.160  1.0722  0.2077 -0.1113
   68SAPC  H19R 5770   4.014   2.168   8.088  1.1844 -0.4859 -0.7614
   68SAPC  H19S 5771   4.139   2.189   8.210 -1.0661  1.8454  0.0483
   68SAPC  C220 5772   3.969   2.051   8.257  0.1959 -0.0867  0.0495
   68SAPC  H20R 5773   4.016   2.004   8.346 -2.8464 -3.6892 -0.1119
   68SAPC  H20S 5774   3.923   1.960   8.213  0.0695  0.0699 -0.1435
   68SAPC  H20T 5775   3.883   2.116   8.285  0.6407  2.3316 -3.8238
   68SAPC   C33 5776   4.407   2.471   6.947 -0.2438  0.0117  0.2048
   68SAPC   H3X 5777   4.320   2.404   6.933  0.0743 -0.4930  0.6411
   68SAPC   H3Y 5778   4.373   2.576   6.932 -1.2971 -0.2406  0.7935
   68SAPC   C34 5779   4.452   2.475   7.091 -0.0957 -0.3707  0.8679
   68SAPC   H4X 5780   4.357   2.492   7.147 -0.0540  1.9668  0.2720
   68SAPC   H4Y 5781   4.529   2.552   7.113  0.1946 -0.3647 -0.1399
   68SAPC   C35 5782   4.506   2.338   7.144 -0.1104  0.4471  0.3091
   68SAPC   H5X 5783   4.579   2.309   7.066 -0.2083  0.5422  0.1849
   68SAPC   H5Y 5784   4.425   2.261   7.142 -2.4064  2.7961  0.5141
   68SAPC   C36 5785   4.570   2.362   7.281 -0.0443 -0.2124 -1.0616
   68SAPC   H6X 5786   4.634   2.453   7.273  0.4971 -0.3559  1.4092
   68SAPC   H6Y 5787   4.642   2.283   7.311  2.0307  1.9806 -0.0382
   68SAPC   C37 5788   4.473   2.380   7.399  0.5779 -0.2372 -0.2870
   68SAPC   H7X 5789   4.410   2.289   7.407 -1.9704  1.5621  0.9765
   68SAPC   H7Y 5790   4.412   2.470   7.374  0.3812  0.1709  1.5376
   68SAPC   C38 5791   4.550   2.402   7.530 -0.5426 -0.1752 -0.0055
   68SAPC   H8X 5792   4.575   2.510   7.517  1.4854 -0.6602 -0.2043
   68SAPC   H8Y 5793   4.636   2.334   7.541 -0.7253 -0.3514  0.3344
   68SAPC   C39 5794   4.463   2.389   7.658  0.2100  0.2445 -0.3617
   68SAPC   H9X 5795   4.417   2.288   7.665 -1.9994  1.0926 -2.1828
   68SAPC   H9Y 5796   4.376   2.458   7.649 -1.1059 -1.4638 -0.9667
   68SAPC  C310 5797   4.537   2.418   7.788  0.3155  0.3432  0.5129
   68SAPC  H10X 5798   4.623   2.487   7.776 -0.7686  1.4616 -0.9632
   68SAPC  H10Y 5799   4.582   2.323   7.825 -2.1651 -1.2639 -0.4101
   68SAPC  C311 5800   4.439   2.465   7.891 -0.0149  0.4514 -0.3827
   68SAPC  H11X 5801   4.351   2.398   7.896  0.1554  0.3425  1.4689
   68SAPC  H11Y 5802   4.395   2.567   7.877 -0.4079  0.6231  1.8412
   68SAPC  C312 5803   4.501   2.464   8.038  0.0022 -0.6364 -0.1759
   68SAPC  H12X 5804   4.589   2.532   8.026 -2.2000  2.5125  0.7391
   68SAPC  H12Y 5805   4.546   2.364   8.056  1.6186  0.3008  1.1999
   68SAPC  C313 5806   4.412   2.503   8.159  0.2626  0.0984 -0.9398
   68SAPC  H13X 5807   4.322   2.438   8.170  1.8838 -2.0624 -0.1850
   68SAPC  H13Y 5808   4.382   2.610   8.158  1.2172  0.4132  1.1101
   68SAPC  C314 5809   4.492   2.478   8.285 -0.1237 -0.0350 -0.0319
   68SAPC  H14X 5810   4.586   2.537   8.284 -0.6049  0.7771  1.2712
   68SAPC  H14Y 5811   4.523   2.372   8.283 -0.4203 -0.1177 -0.2502
   68SAPC  C315 5812   4.410   2.500   8.406  0.0905  1.2515 -0.1076
   68SAPC  H15X 5813   4.317   2.440   8.410  0.1644  1.1867  0.6460
   68SAPC  H15Y 5814   4.389   2.609   8.402  0.6996  1.3109 -2.0976
   68SAPC  C316 5815   4.496   2.478   8.534  0.0695  0.5813 -0.2309
   68SAPC  H16X 5816   4.592   2.528   8.509  1.4684 -2.6163 -1.5177
   68SAPC  H16Y 5817   4.531   2.373   8.536  0.4103  0.6825  3.4576
   68SAPC  C317 5818   4.431   2.514   8.663  1.1595 -0.5884  0.3999
   68SAPC  H17X 5819   4.331   2.468   8.673  0.0760  1.1045 -2.2540
   68SAPC  H17Y 5820   4.404   2.622   8.668  0.2837 -0.8868  2.1528
   68SAPC  C318 5821   4.521   2.492   8.785  0.4334 -0.0828  0.0372
   68SAPC  H18X 5822   4.488   2.527   8.885  1.1901 -0.5854  0.4698
   68SAPC  H18Y 5823   4.618   2.546   8.772  0.0562  0.7676  0.7324
   68SAPC  H18Z 5824   4.549   2.385   8.794  1.6653  0.2927  0.8132
   69SLPC     N 5825   2.767   0.813  11.003 -0.4830  0.0577  0.2966
   69SLPC   C13 5826   2.897   0.871  11.068 -0.0948 -0.5252  0.3564
   69SLPC  H13A 5827   2.860   0.916  11.159 -0.9706 -0.1918 -0.1504
   69SLPC  H13B 5828   2.963   0.795  11.108  0.0336 -0.7174 -0.2245
   69SLPC  H13C 5829   2.948   0.938  11.001  0.5303 -0.3033  1.0553
   69SLPC   C14 5830   2.673   0.920  10.948  0.4108  0.7489  1.0429
   69SLPC  H14A 5831   2.584   0.869  10.913  0.9523  1.0537 -0.8238
   69SLPC  H14B 5832   2.650   0.994  11.024 -0.4451  0.3256  1.1996
   69SLPC  H14C 5833   2.715   0.974  10.864  3.4384 -0.1559  1.9271
   69SLPC   C15 5834   2.697   0.741  11.114 -0.5754 -0.2346 -0.1922
   69SLPC  H15A 5835   2.617   0.694  11.058  1.6166 -2.6752 -1.3388
   69SLPC  H15B 5836   2.759   0.674  11.172 -0.2002  0.9461  0.7940
   69SLPC  H15C 5837   2.651   0.806  11.187 -0.1736 -0.2348  0.0614
   69SLPC   C12 5838   2.817   0.713  10.903  0.4401  0.2860 -0.4286
   69SLPC  H12A 5839   2.865   0.632  10.957 -0.1808 -0.3127 -0.7741
   69SLPC  H12B 5840   2.895   0.758  10.844  1.1085 -0.9925 -0.5386
   69SLPC   C11 5841   2.714   0.643  10.809  0.2928 -0.4080  0.3654
   69SLPC  H11A 5842   2.755   0.567  10.740  0.3231  1.4673 -1.7354
   69SLPC  H11B 5843   2.691   0.729  10.742 -0.7460 -0.3999  0.7087
   69SLPC     P 5844   2.621   0.443  10.945 -0.0006  0.0311 -0.3079
   69SLPC   O13 5845   2.762   0.430  10.993 -0.3613  0.2609  1.2266
   69SLPC   O14 5846   2.513   0.413  11.039 -0.0893 -0.3536 -0.4486
   69SLPC   O12 5847   2.599   0.585  10.882  0.6039 -0.3271 -0.4129
   69SLPC   O11 5848   2.613   0.341  10.827  0.7589  1.3725  0.8031
   69SLPC    C1 5849   2.506   0.353  10.734 -0.3033 -0.8820  0.2435
   69SLPC    HA 5850   2.413   0.306  10.772 -0.8795 -0.2877 -0.4176
   69SLPC    HB 5851   2.485   0.460  10.710  2.1220 -0.8917 -2.0509
   69SLPC    C2 5852   2.550   0.286  10.605 -0.6316  0.1367 -0.4553
   69SLPC    HS 5853   2.578   0.179  10.620  0.7779  0.4216 -0.9729
   69SLPC   O21 5854   2.651   0.366  10.550  0.3159  0.7057 -0.3070
   69SLPC   C21 5855   2.772   0.319  10.563  0.3486 -0.7790 -0.1689
   69SLPC   O22 5856   2.801   0.209  10.602 -0.2263 -0.3876  0.4303
   69SLPC   C22 5857   2.881   0.417  10.503 -0.2233  0.3405  0.8419
   69SLPC   H2R 5858   2.833   0.501  10.449  0.0908  0.7615  1.2125
   69SLPC   H2S 5859   2.948   0.456  10.583 -0.2540  0.4350  0.8231
   69SLPC    C3 5860   2.432   0.275  10.504  0.3350  0.4013 -0.1043
   69SLPC    HX 5861   2.360   0.359  10.516  0.3777  0.0829  2.4836
   69SLPC    HY 5862   2.367   0.196  10.547  0.7579  1.6240  2.8942
   69SLPC   O31 5863   2.463   0.258  10.366  0.2332 -0.2665 -0.2509
   69SLPC   C31 5864   2.416   0.151  10.306  0.4237  0.4155 -0.3980
   69SLPC   O32 5865   2.365   0.062  10.364 -0.2504  0.6320  0.2887
   69SLPC   C32 5866   2.449   0.152  10.161 -0.1313 -0.0518 -0.3068
   69SLPC   H2X 5867   2.557   0.127  10.149 -0.1256 -1.7701  2.8487
   69SLPC   H2Y 5868   2.437   0.255  10.121  1.7429 -0.4645 -2.0434
   69SLPC   C23 5869   2.969   0.343  10.403  0.1097  0.6371 -0.5583
   69SLPC   H3R 5870   2.988   0.236  10.425  0.2963  0.4084 -1.8221
   69SLPC   H3S 5871   3.068   0.388  10.383  1.3987 -1.0189  1.8258
   69SLPC   C24 5872   2.905   0.326  10.261  0.1538 -0.4440  0.1094
   69SLPC   H4R 5873   2.888   0.427  10.218 -0.1338  0.2832  1.9089
   69SLPC   H4S 5874   2.809   0.269  10.261  1.3942 -2.6007  2.0092
   69SLPC   C25 5875   3.009   0.258  10.166 -0.1878 -0.1302  0.0372
   69SLPC   H5R 5876   3.039   0.160  10.208  2.0656  0.7604  0.5563
   69SLPC   H5S 5877   3.096   0.326  10.157  0.1534 -0.4816  0.6258
   69SLPC   C26 5878   2.949   0.225  10.024  0.1637 -0.6601 -0.5875
   69SLPC   H6R 5879   2.867   0.154  10.046  0.0053 -0.5229 -0.7311
   69SLPC   H6S 5880   3.024   0.167   9.966  0.9934  1.4596 -1.6968
   69SLPC   C27 5881   2.892   0.341   9.949 -0.4376  0.1166  0.2075
   69SLPC   H7R 5882   2.970   0.420   9.947 -1.0662  0.7649  0.7119
   69SLPC   H7S 5883   2.817   0.390  10.015  0.1979 -0.2630  1.2136
   69SLPC   C28 5884   2.839   0.320   9.812 -0.5150  0.3740  0.1954
   69SLPC   H8R 5885   2.766   0.239   9.833 -1.2815  0.9092 -0.3898
   69SLPC   H8S 5886   2.923   0.274   9.755 -0.3075  1.7251 -0.6190
   69SLPC   C29 5887   2.784   0.445   9.743  0.1439 -0.2805 -0.2405
   69SLPC   H9R 5888   2.706   0.499   9.799 -0.5400 -1.6579  0.1593
   69SLPC  C210 5889   2.811   0.496   9.624  0.0159 -0.3548 -0.2471
   69SLPC  H10R 5890   2.761   0.592   9.601 -0.0250  0.1501  1.8443
   69SLPC  C211 5891   2.914   0.435   9.530  0.1464  0.2710 -0.0847
   69SLPC  H11R 5892   2.926   0.326   9.550  2.5759  0.0914 -2.3280
   69SLPC  H11S 5893   3.010   0.490   9.539 -0.1969  0.6970  1.2195
   69SLPC  C212 5894   2.878   0.456   9.383 -0.0872  0.3746 -0.6748
   69SLPC  H12R 5895   2.769   0.441   9.373  0.0859  0.3562 -2.6715
   69SLPC  C213 5896   2.960   0.485   9.283  0.2614  0.1766  0.2833
   69SLPC  H13R 5897   2.917   0.509   9.185  0.5117  0.4873  0.2508
   69SLPC  C214 5898   3.106   0.516   9.290 -0.3555  0.3181 -0.3846
   69SLPC  H14R 5899   3.153   0.437   9.352  1.7833  0.6956 -1.4837
   69SLPC  H14S 5900   3.124   0.608   9.351 -3.3871 -0.3737  1.6698
   69SLPC  C215 5901   3.178   0.558   9.157  0.7791 -0.0716  0.4534
   69SLPC  H15R 5902   3.288   0.558   9.173  0.9151 -0.7035 -0.4295
   69SLPC  H15S 5903   3.158   0.666   9.137 -2.4509 -1.2775 -3.5976
   69SLPC  C216 5904   3.148   0.472   9.039 -0.1276 -0.7349  0.1616
   69SLPC  H16R 5905   3.043   0.438   9.034 -0.9815  1.9042 -0.2948
   69SLPC  H16S 5906   3.195   0.372   9.030  3.6910  0.7562  2.2444
   69SLPC  C217 5907   3.173   0.555   8.911 -0.0888  0.1676  0.3688
   69SLPC  H17R 5908   3.277   0.593   8.915  0.7940 -1.8102 -2.1568
   69SLPC  H17S 5909   3.110   0.646   8.907 -1.2830 -0.5870  1.6763
   69SLPC  C218 5910   3.169   0.483   8.771  0.2150  0.6888  0.0686
   69SLPC  H18R 5911   3.221   0.385   8.771 -0.9372  0.0415 -2.0592
   69SLPC  H18S 5912   3.208   0.543   8.687  1.0485  0.2898  0.1675
   69SLPC  H18T 5913   3.068   0.443   8.745  0.3588  0.5862 -0.3359
   69SLPC   C33 5914   2.353   0.047  10.094 -0.4971  0.3663 -0.1829
   69SLPC   H3X 5915   2.246   0.044  10.126 -0.4348  1.5456  0.1691
   69SLPC   H3Y 5916   2.398  -0.054  10.098 -1.5805 -0.0710  1.8590
   69SLPC   C34 5917   2.336   0.080   9.943 -0.2443  0.2246 -0.0873
   69SLPC   H4X 5918   2.275   0.174   9.938  0.5687  0.7651  0.1427
   69SLPC   H4Y 5919   2.279  -0.008   9.906 -0.5641 -0.7744  2.6185
   69SLPC   C35 5920   2.460   0.083   9.861 -0.6207  0.2192 -0.2353
   69SLPC   H5X 5921   2.519  -0.007   9.889 -0.7932  0.6281  1.5215
   69SLPC   H5Y 5922   2.506   0.179   9.889 -1.4639  0.3379  0.7729
   69SLPC   C36 5923   2.427   0.079   9.711 -0.5146 -0.2293  0.0903
   69SLPC   H6X 5924   2.330   0.135   9.713  0.4644  1.5683 -1.1287
   69SLPC   H6Y 5925   2.406  -0.026   9.681 -1.2590 -0.6229  1.9738
   69SLPC   C37 5926   2.530   0.127   9.603  0.2634 -0.2959 -0.3393
   69SLPC   H7X 5927   2.608   0.051   9.579  1.1583  0.7826 -0.9059
   69SLPC   H7Y 5928   2.576   0.223   9.636 -2.2415  0.9142 -0.2642
   69SLPC   C38 5929   2.462   0.168   9.478 -0.1958 -0.2424 -0.6306
   69SLPC   H8X 5930   2.380   0.239   9.500  0.9212  0.8234  0.1833
   69SLPC   H8Y 5931   2.421   0.077   9.428 -1.3344 -0.2855  0.3772
   69SLPC   C39 5932   2.553   0.229   9.373  0.2348 -0.3496 -0.5992
   69SLPC   H9X 5933   2.629   0.155   9.339 -0.3353 -0.7263 -1.0440
   69SLPC   H9Y 5934   2.607   0.319   9.411  2.5530 -1.4259 -1.2604
   69SLPC  C310 5935   2.483   0.293   9.252 -0.2362 -0.0116 -0.3362
   69SLPC  H10X 5936   2.408   0.372   9.276 -0.6303 -0.4416 -0.1450
   69SLPC  H10Y 5937   2.417   0.215   9.209  1.2147 -0.7972 -1.1501
   69SLPC  C311 5938   2.589   0.325   9.142  0.4091  0.1603 -0.5020
   69SLPC  H11X 5939   2.634   0.227   9.116  4.5545  2.4199 -2.4977
   69SLPC  H11Y 5940   2.667   0.392   9.186 -0.3767 -0.0411  1.2639
   69SLPC  C312 5941   2.532   0.387   9.022 -0.1529 -0.0811  0.1966
   69SLPC  H12X 5942   2.496   0.492   9.026 -1.4074 -0.5767  3.0004
   69SLPC  H12Y 5943   2.442   0.332   8.987  2.8347 -4.1874 -1.4246
   69SLPC  C313 5944   2.626   0.363   8.901 -0.6256 -0.0208 -0.7013
   69SLPC  H13X 5945   2.679   0.266   8.898  0.6490  0.6667 -0.9443
   69SLPC  H13Y 5946   2.704   0.441   8.912 -1.3720  0.9282 -1.8400
   69SLPC  C314 5947   2.562   0.391   8.767  1.1705  0.4227 -0.3260
   69SLPC  H14X 5948   2.493   0.478   8.776  0.0419 -0.6356  1.4126
   69SLPC  H14Y 5949   2.495   0.307   8.737 -3.1156  2.0611  3.9588
   69SLPC  C315 5950   2.662   0.413   8.658 -0.2020 -0.4449 -0.3783
   69SLPC  H15X 5951   2.718   0.317   8.653 -1.7623 -1.4114  0.3569
   69SLPC  H15Y 5952   2.739   0.489   8.684  0.5017 -0.1556 -3.1469
   69SLPC  C316 5953   2.591   0.458   8.523 -0.1798 -0.1612 -0.1066
   69SLPC  H16X 5954   2.587   0.566   8.496  2.3179  0.3457  1.5055
   69SLPC  H16Y 5955   2.485   0.425   8.536  0.3976 -1.8276  0.4899
   69SLPC  C317 5956   2.656   0.390   8.402  0.3746 -0.7207 -0.0284
   69SLPC  H17X 5957   2.588   0.427   8.322  1.7609  0.5134 -0.6733
   69SLPC  H17Y 5958   2.645   0.280   8.409  1.4579 -0.7817  0.7400
   69SLPC  C318 5959   2.796   0.449   8.372 -0.3712  0.0211  0.1686
   69SLPC  H18X 5960   2.870   0.422   8.450 -0.8854 -0.6768  0.4202
   69SLPC  H18Y 5961   2.782   0.559   8.368 -0.1288  0.0287 -0.5156
   69SLPC  H18Z 5962   2.835   0.413   8.274  0.6699  0.4258  0.4320
   70SLPC     N 5963   3.049   4.944  11.013 -0.1140 -0.1518  0.4967
   70SLPC   C13 5964   3.023   5.012  11.139  0.4072  0.3190 -0.2819
   70SLPC  H13A 5965   2.917   5.028  11.149  0.1006 -0.9868 -1.3819
   70SLPC  H13B 5966   3.051   4.954  11.226 -0.6519  2.4199  1.5138
   70SLPC  H13C 5967   3.075   5.107  11.145 -0.3207  0.6690  0.6622
   70SLPC   C14 5968   2.988   5.036  10.905 -0.7712  0.3017 -0.1878
   70SLPC  H14A 5969   3.036   5.132  10.902 -1.1978  0.5404  0.5482
   70SLPC  H14B 5970   2.986   4.992  10.806 -1.5242 -1.3507  0.5506
   70SLPC  H14C 5971   2.883   5.060  10.917 -0.6732  0.8514 -0.4167
   70SLPC   C15 5972   2.977   4.807  11.013 -0.0443 -0.3712  0.0680
   70SLPC  H15A 5973   2.982   4.756  11.109 -0.2097  2.9990  1.9611
   70SLPC  H15B 5974   2.872   4.828  10.997  0.1208 -1.9784 -3.3745
   70SLPC  H15C 5975   3.013   4.731  10.945  0.8771 -0.4935  0.6760
   70SLPC   C12 5976   3.197   4.925  10.995  0.2393  0.0428  0.5283
   70SLPC  H12A 5977   3.244   4.864  11.071  2.1188  1.7574  0.7852
   70SLPC  H12B 5978   3.243   5.022  11.002 -0.3418  0.4161 -0.8098
   70SLPC   C11 5979   3.249   4.858  10.867 -0.6431 -0.4625  0.5232
   70SLPC  H11A 5980   3.357   4.882  10.858 -0.9943  1.5036  1.2700
   70SLPC  H11B 5981   3.202   4.909  10.780  0.7817  0.5111  0.3152
   70SLPC     P 5982   3.334   4.628  10.928 -0.0908  0.1663 -0.2819
   70SLPC   O13 5983   3.419   4.718  11.012 -0.3390  0.8622  0.2759
   70SLPC   O14 5984   3.268   4.510  10.992  0.1466 -0.7520 -0.0726
   70SLPC   O12 5985   3.220   4.718  10.871 -0.3560 -0.1237  0.2963
   70SLPC   O11 5986   3.412   4.586  10.792 -0.0368  0.0040 -0.4962
   70SLPC    C1 5987   3.362   4.556  10.661  0.5627  0.0458 -0.0941
   70SLPC    HA 5988   3.261   4.596  10.636  0.3441 -1.8711 -2.3936
   70SLPC    HB 5989   3.437   4.604  10.594  0.3980  0.0874 -0.2508
   70SLPC    C2 5990   3.370   4.402  10.632  0.2717 -0.2181 -0.6212
   70SLPC    HS 5991   3.461   4.369  10.686 -0.9575 -0.5182  1.3132
   70SLPC   O21 5992   3.375   4.385  10.488  0.3771 -0.8313 -0.9948
   70SLPC   C21 5993   3.397   4.260  10.451  0.4107 -0.2637 -0.1243
   70SLPC   O22 5994   3.417   4.165  10.527 -0.0931  0.0374  0.0821
   70SLPC   C22 5995   3.400   4.262  10.299  0.1071  0.4844 -0.1948
   70SLPC   H2R 5996   3.483   4.330  10.271  0.1531  1.9969  3.3917
   70SLPC   H2S 5997   3.421   4.160  10.261  1.2215  0.7118 -0.2185
   70SLPC    C3 5998   3.245   4.329  10.700  0.8338 -0.1602 -0.6582
   70SLPC    HX 5999   3.272   4.343  10.806 -0.9618 -0.0351 -0.1972
   70SLPC    HY 6000   3.244   4.220  10.680  1.9022 -0.3469  0.2613
   70SLPC   O31 6001   3.139   4.398  10.643 -0.2869 -0.4035  0.4375
   70SLPC   C31 6002   3.087   4.354  10.534 -0.5257  0.4165  0.7286
   70SLPC   O32 6003   3.102   4.239  10.494  0.2617 -0.3148  0.3771
   70SLPC   C32 6004   3.007   4.461  10.468 -0.1080 -0.1605 -1.5027
   70SLPC   H2X 6005   3.074   4.534  10.418  1.3402  1.6364  2.8927
   70SLPC   H2Y 6006   2.938   4.503  10.544  2.5160  0.3962  0.6252
   70SLPC   C23 6007   3.269   4.302  10.228  0.5551 -0.1634  0.4614
   70SLPC   H3R 6008   3.252   4.411  10.248 -2.3786 -0.7192  1.2789
   70SLPC   H3S 6009   3.181   4.250  10.271  1.5228 -1.9581  0.2931
   70SLPC   C24 6010   3.279   4.295  10.077 -0.2295 -0.1662  0.0242
   70SLPC   H4R 6011   3.188   4.352  10.046  0.6625  0.4393 -1.5498
   70SLPC   H4S 6012   3.263   4.190  10.044  0.3174 -0.3275  0.2643
   70SLPC   C25 6013   3.409   4.352  10.020 -0.7980 -0.2997 -0.2400
   70SLPC   H5R 6014   3.488   4.289  10.067 -0.4119 -0.2600 -0.8346
   70SLPC   H5S 6015   3.426   4.449  10.071  2.3619 -0.5791 -0.6313
   70SLPC   C26 6016   3.418   4.358   9.867 -0.1094  0.5227  0.1176
   70SLPC   H6R 6017   3.331   4.407   9.819  0.2159  1.8904  0.9142
   70SLPC   H6S 6018   3.420   4.250   9.840  1.0091  0.9973 -1.8548
   70SLPC   C27 6019   3.550   4.423   9.818  0.0898  0.9200  0.0710
   70SLPC   H7R 6020   3.642   4.390   9.871 -0.3849 -2.0431 -0.8657
   70SLPC   H7S 6021   3.532   4.529   9.846  0.2131  1.3123 -1.3185
   70SLPC   C28 6022   3.569   4.412   9.665 -0.5572 -0.0165 -0.2310
   70SLPC   H8R 6023   3.569   4.305   9.635  0.3091 -0.4930  1.4080
   70SLPC   H8S 6024   3.660   4.462   9.626 -0.4491 -0.2109 -0.2264
   70SLPC   C29 6025   3.453   4.477   9.581 -0.3329 -0.0591  0.1031
   70SLPC   H9R 6026   3.356   4.465   9.631 -0.3276  2.0499  0.6738
   70SLPC  C210 6027   3.463   4.526   9.461 -0.3962 -0.2967  0.1707
   70SLPC  H10R 6028   3.364   4.552   9.422 -1.0923  0.4062  2.3281
   70SLPC  C211 6029   3.584   4.551   9.380 -0.1800 -0.6246  0.0566
   70SLPC  H11R 6030   3.662   4.590   9.449  0.6579 -2.2327  0.0552
   70SLPC  H11S 6031   3.569   4.630   9.304 -0.6622 -0.4192  0.3588
   70SLPC  C212 6032   3.641   4.425   9.325 -0.1211  0.1828 -0.2165
   70SLPC  H12R 6033   3.628   4.339   9.392 -0.9706  1.0468  0.7523
   70SLPC  C213 6034   3.715   4.408   9.215  0.2302 -0.5017 -0.0799
   70SLPC  H13R 6035   3.744   4.309   9.177 -1.9111 -1.7239  1.3193
   70SLPC  C214 6036   3.755   4.507   9.108  0.6042  0.4387  0.0488
   70SLPC  H14R 6037   3.865   4.503   9.095  0.4496  0.0960 -1.2541
   70SLPC  H14S 6038   3.722   4.610   9.134 -0.5052  0.0737  0.1289
   70SLPC  C215 6039   3.680   4.478   8.977 -0.4183 -0.4119 -0.4730
   70SLPC  H15R 6040   3.572   4.458   8.994 -0.8169  0.8082 -1.4333
   70SLPC  H15S 6041   3.717   4.378   8.945  1.8853  0.3634 -0.2901
   70SLPC  C216 6042   3.686   4.586   8.869 -0.0307 -0.4485  0.8458
   70SLPC  H16R 6043   3.788   4.614   8.836 -1.1078 -2.1405 -4.3688
   70SLPC  H16S 6044   3.649   4.679   8.918 -2.6093 -1.1823  0.3733
   70SLPC  C217 6045   3.610   4.561   8.739  0.3739  0.0784 -0.1135
   70SLPC  H17R 6046   3.522   4.497   8.763 -0.2813  0.1934 -2.0851
   70SLPC  H17S 6047   3.679   4.506   8.671  0.2830  0.9823 -0.9404
   70SLPC  C218 6048   3.558   4.690   8.678  0.1537 -0.6206  0.5457
   70SLPC  H18R 6049   3.646   4.758   8.672 -1.9971  2.2846  0.6857
   70SLPC  H18S 6050   3.496   4.738   8.757  2.1134 -1.4305  2.6498
   70SLPC  H18T 6051   3.504   4.673   8.583 -1.8294 -0.9755  1.7216
   70SLPC   C33 6052   2.929   4.411  10.347 -0.1173 -0.3338  0.5037
   70SLPC   H3X 6053   2.862   4.332  10.385  1.4561 -2.0287 -0.1801
   70SLPC   H3Y 6054   2.993   4.371  10.265 -0.2740  0.0913  0.1671
   70SLPC   C34 6055   2.841   4.517  10.289  0.4608  0.1781 -0.2256
   70SLPC   H4X 6056   2.812   4.594  10.364 -1.0136 -0.3377 -0.2583
   70SLPC   H4Y 6057   2.746   4.471  10.254  1.2654 -2.3554  0.8060
   70SLPC   C35 6058   2.910   4.588  10.174  1.5223  0.3945  0.0850
   70SLPC   H5X 6059   2.965   4.514  10.113 -1.0847 -1.3284 -0.2583
   70SLPC   H5Y 6060   2.983   4.659  10.219  0.2673  0.4163  2.1386
   70SLPC   C36 6061   2.814   4.658  10.078 -0.1902  0.4406 -0.0155
   70SLPC   H6X 6062   2.877   4.746  10.051 -0.0932  0.9016  1.6579
   70SLPC   H6Y 6063   2.725   4.683  10.140 -1.2916  0.7403 -1.6964
   70SLPC   C37 6064   2.773   4.581   9.949  1.2250  0.4725  0.0724
   70SLPC   H7X 6065   2.706   4.499   9.981  0.3657  0.7912 -0.8809
   70SLPC   H7Y 6066   2.868   4.549   9.901  0.1226 -2.3221 -0.3268
   70SLPC   C38 6067   2.704   4.666   9.836  0.3662 -0.0454  0.4254
   70SLPC   H8X 6068   2.783   4.736   9.802  0.7462 -2.2110 -3.4242
   70SLPC   H8Y 6069   2.622   4.727   9.880  0.6816  0.7794 -0.1036
   70SLPC   C39 6070   2.657   4.598   9.707  0.8427 -0.5068  0.7398
   70SLPC   H9X 6071   2.553   4.560   9.719  0.1500  0.9715 -0.3645
   70SLPC   H9Y 6072   2.713   4.503   9.690  0.1843 -0.9549  1.0512
   70SLPC  C310 6073   2.659   4.690   9.592 -0.3612 -0.2974  0.3745
   70SLPC  H10X 6074   2.762   4.712   9.557 -0.9722  0.1598 -1.2037
   70SLPC  H10Y 6075   2.602   4.780   9.623  1.8227 -0.0553  3.9710
   70SLPC  C311 6076   2.575   4.636   9.473  0.4396  0.1466  1.1015
   70SLPC  H11X 6077   2.478   4.595   9.507 -0.3181  0.4631 -0.6341
   70SLPC  H11Y 6078   2.636   4.553   9.432  0.5156  0.2260  1.0497
   70SLPC  C312 6079   2.553   4.738   9.350 -0.3478 -0.5134  0.2913
   70SLPC  H12X 6080   2.646   4.775   9.301 -0.6238  0.2822  0.3700
   70SLPC  H12Y 6081   2.497   4.823   9.393 -0.2546  0.1129 -0.8345
   70SLPC  C313 6082   2.457   4.672   9.251 -0.0738 -0.6110  0.0570
   70SLPC  H13X 6083   2.361   4.641   9.297 -0.4315  0.9949  0.3984
   70SLPC  H13Y 6084   2.487   4.571   9.214  0.6988 -0.0093 -0.9788
   70SLPC  C314 6085   2.439   4.752   9.118  0.3825 -0.5322 -0.7263
   70SLPC  H14X 6086   2.539   4.798   9.109  0.2313 -0.4636 -2.1052
   70SLPC  H14Y 6087   2.376   4.839   9.145  0.3218 -1.1338  1.1518
   70SLPC  C315 6088   2.384   4.669   8.998 -0.7537 -0.1787 -0.1990
   70SLPC  H15X 6089   2.279   4.637   9.013 -1.1800  1.7504  1.0146
   70SLPC  H15Y 6090   2.446   4.582   8.965  0.1862  0.7714 -0.9607
   70SLPC  C316 6091   2.377   4.757   8.873 -0.0281  0.0669  0.7651
   70SLPC  H16X 6092   2.478   4.800   8.856  0.0054 -1.0370 -2.1127
   70SLPC  H16Y 6093   2.311   4.843   8.896  0.6414  0.4413  1.3258
   70SLPC  C317 6094   2.334   4.696   8.742  0.3961 -0.3529  0.6242
   70SLPC  H17X 6095   2.323   4.773   8.663 -2.2253 -0.0380  1.2739
   70SLPC  H17Y 6096   2.236   4.645   8.746  0.1587 -0.1057 -1.3983
   70SLPC  C318 6097   2.435   4.601   8.686  0.0397 -0.5966  0.1168
   70SLPC  H18X 6098   2.425   4.574   8.579  1.7117 -2.4263  0.3762
   70SLPC  H18Y 6099   2.427   4.510   8.750 -0.7856 -0.4855  0.1639
   70SLPC  H18Z 6100   2.540   4.637   8.685 -1.0410  2.6624 -0.7797
   71SLPC     N 6101   2.822   2.576  10.807 -0.3513 -0.0068 -0.3330
   71SLPC   C13 6102   2.770   2.706  10.870 -0.3327  0.0962 -0.2871
   71SLPC  H13A 6103   2.673   2.692  10.917  0.3561  0.4407  1.2657
   71SLPC  H13B 6104   2.837   2.723  10.953 -0.5202  0.7332 -0.2679
   71SLPC  H13C 6105   2.769   2.790  10.803 -0.2411  0.3591  0.0416
   71SLPC   C14 6106   2.716   2.537  10.709  1.0371  0.4836 -0.0363
   71SLPC  H14A 6107   2.633   2.521  10.776  1.5874  1.9329  1.0285
   71SLPC  H14B 6108   2.690   2.616  10.640  3.3241  0.6650 -0.7302
   71SLPC  H14C 6109   2.737   2.445  10.656 -2.1515 -2.4721  3.5961
   71SLPC   C15 6110   2.845   2.464  10.906  0.0120  0.4011 -0.8332
   71SLPC  H15A 6111   2.820   2.372  10.856  1.5360 -1.7876  2.3012
   71SLPC  H15B 6112   2.944   2.458  10.948 -0.0160 -1.5669 -1.0104
   71SLPC  H15C 6113   2.755   2.453  10.965 -0.4059  0.4193 -1.4687
   71SLPC   C12 6114   2.951   2.597  10.731 -1.1036 -0.4914  0.1020
   71SLPC  H12A 6115   2.975   2.502  10.686  2.7005 -0.1261  1.2336
   71SLPC  H12B 6116   3.024   2.602  10.810 -0.3547 -3.7216 -0.3195
   71SLPC   C11 6117   2.959   2.719  10.638 -0.0234 -0.4521  0.2152
   71SLPC  H11A 6118   2.863   2.724  10.582 -0.0197  0.3600  0.2727
   71SLPC  H11B 6119   3.038   2.706  10.561  1.4472  0.2850  1.5685
   71SLPC     P 6120   2.922   2.976  10.674 -0.3410  0.0650 -0.3350
   71SLPC   O13 6121   2.799   3.001  10.759 -0.4613 -0.4804  0.8263
   71SLPC   O14 6122   3.036   3.073  10.677 -0.5065  0.0501  0.1293
   71SLPC   O12 6123   2.987   2.842  10.703 -0.3083 -0.0371  0.4297
   71SLPC   O11 6124   2.882   2.967  10.517 -0.0311  0.3871  0.0803
   71SLPC    C1 6125   2.746   2.985  10.469  0.1092  0.0691 -0.1709
   71SLPC    HA 6126   2.684   3.055  10.529 -0.4500  0.0564 -0.7379
   71SLPC    HB 6127   2.754   3.043  10.375  1.7079  3.3329  1.8758
   71SLPC    C2 6128   2.662   2.859  10.446  0.3256 -0.6139 -0.1274
   71SLPC    HS 6129   2.676   2.801  10.540  0.8617  0.2368  0.3360
   71SLPC   O21 6130   2.727   2.787  10.342  0.1941 -0.4977  0.0911
   71SLPC   C21 6131   2.702   2.655  10.340  0.5506  1.1431 -0.0120
   71SLPC   O22 6132   2.650   2.590  10.432 -0.6734  0.3555  0.3317
   71SLPC   C22 6133   2.751   2.611  10.195 -0.5532  0.2197 -0.7833
   71SLPC   H2R 6134   2.861   2.628  10.195 -1.0194  3.3682 -0.0267
   71SLPC   H2S 6135   2.728   2.502  10.185 -1.8586  0.2889  1.1474
   71SLPC    C3 6136   2.510   2.892  10.420  0.3822  0.1209  0.3465
   71SLPC    HX 6137   2.452   2.924  10.509  1.7588  1.6799  0.7118
   71SLPC    HY 6138   2.470   2.794  10.386 -0.0031 -0.2521  1.8326
   71SLPC   O31 6139   2.512   2.990  10.316 -0.3464 -0.3069  1.1274
   71SLPC   C31 6140   2.393   3.004  10.260  0.1662 -0.1761  0.0604
   71SLPC   O32 6141   2.286   2.962  10.299 -0.0075  0.0460 -0.1172
   71SLPC   C32 6142   2.419   3.081  10.137  0.4159  1.3528  0.3556
   71SLPC   H2X 6143   2.507   3.149  10.145  1.3691  0.1220  0.5310
   71SLPC   H2Y 6144   2.333   3.148  10.114 -0.3681  0.0832 -0.5029
   71SLPC   C23 6145   2.680   2.686  10.076  0.2090 -0.1127  0.0202
   71SLPC   H3R 6146   2.703   2.794  10.083  2.7096 -0.7709  3.2078
   71SLPC   H3S 6147   2.572   2.660  10.072  0.1052  0.5504 -3.8713
   71SLPC   C24 6148   2.747   2.656   9.937 -0.5157  0.0269  0.0657
   71SLPC   H4R 6149   2.749   2.546   9.922 -0.3948 -0.2316  1.8757
   71SLPC   H4S 6150   2.853   2.687   9.947 -0.7263  0.6877  0.2659
   71SLPC   C25 6151   2.677   2.731   9.819 -0.2892  0.1956  0.1186
   71SLPC   H5R 6152   2.658   2.838   9.840  3.5046  1.0409 -0.3174
   71SLPC   H5S 6153   2.579   2.679   9.812 -1.4597  2.3255  0.4121
   71SLPC   C26 6154   2.745   2.721   9.675  0.1862  0.3056 -0.1072
   71SLPC   H6R 6155   2.746   2.613   9.650 -0.0426  0.2552  0.0974
   71SLPC   H6S 6156   2.845   2.764   9.695 -0.8188  1.8396  1.8635
   71SLPC   C27 6157   2.661   2.792   9.573 -0.6284  0.3401 -0.1914
   71SLPC   H7R 6158   2.688   2.899   9.578 -0.0124  0.2498 -1.4344
   71SLPC   H7S 6159   2.554   2.774   9.598 -0.4013 -0.2651  0.3670
   71SLPC   C28 6160   2.684   2.728   9.437  0.4186 -0.1947 -0.4131
   71SLPC   H8R 6161   2.603   2.757   9.366 -0.6052  0.2794  0.9380
   71SLPC   H8S 6162   2.663   2.620   9.452  0.7423 -0.2117 -0.0922
   71SLPC   C29 6163   2.819   2.752   9.377  0.6726  0.0730  0.4280
   71SLPC   H9R 6164   2.906   2.733   9.443  1.2079  0.0398 -0.2846
   71SLPC  C210 6165   2.837   2.811   9.257 -0.2743  0.5305 -0.0419
   71SLPC  H10R 6166   2.944   2.824   9.233 -0.8855  0.6629 -2.9219
   71SLPC  C211 6167   2.745   2.862   9.152 -0.0369  0.0041  0.2686
   71SLPC  H11R 6168   2.802   2.934   9.090 -1.4594  1.4220  0.5745
   71SLPC  H11S 6169   2.651   2.910   9.188  0.1634  0.8277 -0.2946
   71SLPC  C212 6170   2.689   2.739   9.062  0.3512 -0.4424 -0.0770
   71SLPC  H12R 6171   2.607   2.685   9.111 -0.0570  0.8829  0.7518
   71SLPC  C213 6172   2.719   2.699   8.936 -0.1044 -0.3615  0.0611
   71SLPC  H13R 6173   2.672   2.615   8.884 -0.6298 -0.1904  0.2540
   71SLPC  C214 6174   2.827   2.764   8.854 -0.2114 -1.3731 -0.4242
   71SLPC  H14R 6175   2.913   2.695   8.850  0.1482 -0.9757  0.3289
   71SLPC  H14S 6176   2.879   2.846   8.907  0.3617 -0.8413 -1.7862
   71SLPC  C215 6177   2.777   2.805   8.720  0.2508  0.1152 -0.0894
   71SLPC  H15R 6178   2.855   2.872   8.677  1.1534 -1.5009 -1.0126
   71SLPC  H15S 6179   2.678   2.855   8.729  0.2576 -0.1849  1.8151
   71SLPC  C216 6180   2.764   2.690   8.621  0.5447  0.6286  0.1144
   71SLPC  H16R 6181   2.679   2.719   8.557 -1.0268 -0.2607  1.7597
   71SLPC  H16S 6182   2.735   2.596   8.672  1.5439  0.0175 -0.4371
   71SLPC  C217 6183   2.892   2.666   8.534 -0.0457  0.8235 -0.6104
   71SLPC  H17R 6184   2.975   2.640   8.603 -0.5447  0.0652 -0.2947
   71SLPC  H17S 6185   2.915   2.764   8.487 -2.7740  1.1628 -1.3407
   71SLPC  C218 6186   2.866   2.555   8.423  0.0259 -0.2979  0.2381
   71SLPC  H18R 6187   2.761   2.519   8.425 -0.1292  0.1728  0.6202
   71SLPC  H18S 6188   2.938   2.472   8.442 -1.7611 -1.6721  1.0508
   71SLPC  H18T 6189   2.882   2.596   8.320  2.9152  0.6071  0.9871
   71SLPC   C33 6190   2.423   2.988  10.021 -0.3371  0.0464  0.5618
   71SLPC   H3X 6191   2.339   2.916  10.010  0.5639 -1.0292  0.6354
   71SLPC   H3Y 6192   2.513   2.923  10.028  1.3134  2.4316  2.3610
   71SLPC   C34 6193   2.436   3.063   9.884  0.3371 -0.2547 -0.2130
   71SLPC   H4X 6194   2.364   3.148   9.881 -0.0997 -0.6547 -2.8994
   71SLPC   H4Y 6195   2.408   2.998   9.798  0.6112  1.6208 -1.7587
   71SLPC   C35 6196   2.581   3.120   9.862 -0.4711  0.2891  0.0951
   71SLPC   H5X 6197   2.653   3.041   9.891  0.2360  0.3705 -1.3953
   71SLPC   H5Y 6198   2.593   3.202   9.936 -0.6142  1.2468 -0.9128
   71SLPC   C36 6199   2.602   3.154   9.718  0.0188  0.0659  0.2819
   71SLPC   H6X 6200   2.556   3.250   9.686  0.2217  0.8234  2.2185
   71SLPC   H6Y 6201   2.560   3.071   9.657 -1.6192  0.6120  0.6396
   71SLPC   C37 6202   2.753   3.177   9.682  0.9228 -0.6571  0.5104
   71SLPC   H7X 6203   2.793   3.076   9.704 -1.0541 -1.2574  1.4565
   71SLPC   H7Y 6204   2.808   3.248   9.749  0.7814  0.4495 -0.5296
   71SLPC   C38 6205   2.782   3.225   9.535 -0.4600  0.1102 -0.9236
   71SLPC   H8X 6206   2.713   3.306   9.502 -1.3737 -0.8363 -1.3399
   71SLPC   H8Y 6207   2.761   3.141   9.466  0.0197 -1.2135  0.5158
   71SLPC   C39 6208   2.927   3.260   9.523  0.5693  0.3778  0.7321
   71SLPC   H9X 6209   2.988   3.184   9.576  1.7095  2.4482  2.4896
   71SLPC   H9Y 6210   2.944   3.357   9.574 -2.3871  1.8885 -1.0139
   71SLPC  C310 6211   2.962   3.277   9.373 -0.2979  0.2428  0.4166
   71SLPC  H10X 6212   2.888   3.345   9.328  0.3271  1.4304  1.1686
   71SLPC  H10Y 6213   2.952   3.181   9.318 -2.0899  0.6682 -0.0135
   71SLPC  C311 6214   3.101   3.337   9.350 -0.0104  0.6431 -0.5854
   71SLPC  H11X 6215   3.184   3.273   9.387 -1.1504 -0.0322  0.8720
   71SLPC  H11Y 6216   3.100   3.433   9.406 -1.5298  1.5604 -2.1454
   71SLPC  C312 6217   3.130   3.366   9.201  0.0097 -0.4060 -1.0546
   71SLPC  H12X 6218   3.058   3.444   9.168 -0.7992 -0.1039  1.3424
   71SLPC  H12Y 6219   3.105   3.277   9.139  2.1112 -1.3452 -0.5998
   71SLPC  C313 6220   3.267   3.423   9.176  0.1634 -0.3665 -1.0769
   71SLPC  H13X 6221   3.347   3.347   9.177 -0.5237 -1.1071  0.2741
   71SLPC  H13Y 6222   3.290   3.488   9.263 -0.5340  0.2108 -1.3199
   71SLPC  C314 6223   3.280   3.510   9.054  0.1754 -0.0803  0.6387
   71SLPC  H14X 6224   3.381   3.556   9.054  0.2864 -0.3204  0.2714
   71SLPC  H14Y 6225   3.217   3.600   9.045  1.0461  0.5714  0.9427
   71SLPC  C315 6226   3.264   3.416   8.929 -0.4679 -0.0149 -0.6564
   71SLPC  H15X 6227   3.157   3.394   8.910 -0.0390 -0.1153 -3.0814
   71SLPC  H15Y 6228   3.331   3.328   8.939 -2.9640 -1.9709 -0.5651
   71SLPC  C316 6229   3.307   3.484   8.800 -0.5916 -0.3358  0.9162
   71SLPC  H16X 6230   3.414   3.457   8.794 -0.3347  0.7852  0.3656
   71SLPC  H16Y 6231   3.308   3.595   8.806  2.7063 -0.1420 -1.8280
   71SLPC  C317 6232   3.238   3.427   8.677 -0.3172  0.4061 -0.1480
   71SLPC  H17X 6233   3.129   3.444   8.692  0.0596  3.3439 -0.5520
   71SLPC  H17Y 6234   3.254   3.317   8.670  1.9917  0.8164 -2.0992
   71SLPC  C318 6235   3.288   3.488   8.543 -0.7695 -0.6786  0.0731
   71SLPC  H18X 6236   3.213   3.479   8.461  0.0451  1.9107 -0.9668
   71SLPC  H18Y 6237   3.376   3.427   8.515  0.8831  1.4506  0.5911
   71SLPC  H18Z 6238   3.306   3.596   8.556 -1.0762 -0.5236 -0.7416
   72SLPC     N 6239   3.972   1.514  11.170  0.2120  0.5856  1.5669
   72SLPC   C13 6240   4.090   1.562  11.250  0.0213  0.3840 -0.3793
   72SLPC  H13A 6241   4.143   1.481  11.299 -1.3891  0.1844  0.8540
   72SLPC  H13B 6242   4.168   1.605  11.189  0.5466 -0.8239 -0.5685
   72SLPC  H13C 6243   4.050   1.636  11.317  2.5081 -0.2502  1.9073
   72SLPC   C14 6244   3.892   1.627  11.119  1.0790  0.3096  0.0363
   72SLPC  H14A 6245   3.848   1.701  11.185 -0.1581 -0.8135  0.5041
   72SLPC  H14B 6246   3.944   1.680  11.041  0.6860  0.6457 -0.0025
   72SLPC  H14C 6247   3.810   1.575  11.072 -0.0097  0.2957  1.8750
   72SLPC   C15 6248   3.888   1.434  11.264  0.0438 -0.0531  0.5474
   72SLPC  H15A 6249   3.902   1.327  11.255 -0.5256 -0.0058 -1.1485
   72SLPC  H15B 6250   3.917   1.475  11.359  0.0302  3.4262 -0.8816
   72SLPC  H15C 6251   3.782   1.453  11.252  0.0917 -0.7377 -1.1935
   72SLPC   C12 6252   4.018   1.420  11.060  0.2833 -0.2496 -0.1249
   72SLPC  H12A 6253   4.076   1.337  11.096 -1.2245 -1.0554  0.4796
   72SLPC  H12B 6254   4.083   1.475  10.993 -0.4685  0.2439 -0.4514
   72SLPC   C11 6255   3.908   1.361  10.969  0.2849 -0.1887  0.1559
   72SLPC  H11A 6256   3.832   1.307  11.030  0.6502  1.4660  2.1244
   72SLPC  H11B 6257   3.957   1.279  10.911  0.5434  1.0043 -1.3358
   72SLPC     P 6258   3.882   1.492  10.755  0.0308  0.2122 -0.3806
   72SLPC   O13 6259   3.848   1.639  10.732 -0.1597  0.0603  0.3390
   72SLPC   O14 6260   4.016   1.451  10.720 -0.1002 -0.0512 -0.0140
   72SLPC   O12 6261   3.842   1.464  10.896 -0.4537  0.7287 -0.1524
   72SLPC   O11 6262   3.773   1.397  10.687  0.2936 -0.2165  0.6299
   72SLPC    C1 6263   3.671   1.456  10.613  0.7917 -0.2232  0.4397
   72SLPC    HA 6264   3.571   1.441  10.661 -0.1965 -0.4972 -1.6339
   72SLPC    HB 6265   3.685   1.564  10.593  0.4842 -0.2804 -0.0922
   72SLPC    C2 6266   3.646   1.385  10.474 -0.0633  0.1184 -0.5390
   72SLPC    HS 6267   3.642   1.274  10.479 -1.7176  0.1570 -0.7047
   72SLPC   O21 6268   3.757   1.425  10.400  0.5271 -0.2753 -0.8071
   72SLPC   C21 6269   3.868   1.352  10.419 -0.7850  0.5028 -0.0271
   72SLPC   O22 6270   3.866   1.240  10.467 -0.0445 -0.0720  0.0167
   72SLPC   C22 6271   3.981   1.433  10.364 -0.5489  0.1639 -0.4958
   72SLPC   H2R 6272   3.939   1.526  10.321 -0.2035  0.0588 -1.0613
   72SLPC   H2S 6273   4.060   1.445  10.441  0.3336 -1.7392 -1.0703
   72SLPC    C3 6274   3.517   1.430  10.402  0.3276  0.6893 -0.1299
   72SLPC    HX 6275   3.506   1.540  10.414 -0.6646  0.4937  0.7848
   72SLPC    HY 6276   3.433   1.393  10.465  1.1434 -0.0298  0.5479
   72SLPC   O31 6277   3.505   1.378  10.270 -0.3749  0.2056  0.2571
   72SLPC   C31 6278   3.510   1.471  10.174  1.1430 -0.1475 -0.1654
   72SLPC   O32 6279   3.485   1.590  10.193 -0.0709 -0.0237 -0.7310
   72SLPC   C32 6280   3.510   1.397  10.042  0.5359  0.1901  0.0569
   72SLPC   H2X 6281   3.419   1.335  10.029  1.1946 -0.5242 -1.1763
   72SLPC   H2Y 6282   3.587   1.317  10.034 -0.2731 -0.6908  1.0321
   72SLPC   C23 6283   4.050   1.356  10.253  0.3236  0.3384 -0.7250
   72SLPC   H3R 6284   4.096   1.262  10.290 -1.4811  0.8907  3.1736
   72SLPC   H3S 6285   4.127   1.429  10.220  0.3399  0.7401  0.1729
   72SLPC   C24 6286   3.964   1.326  10.130  0.7583 -0.0891 -0.5985
   72SLPC   H4R 6287   3.926   1.415  10.076 -0.3748 -0.1030  0.1596
   72SLPC   H4S 6288   3.874   1.267  10.157  1.4759 -1.4310 -1.0744
   72SLPC   C25 6289   4.036   1.229  10.023 -0.5069 -0.3358 -0.6902
   72SLPC   H5R 6290   4.060   1.127  10.062  0.1005 -0.4276 -1.2938
   72SLPC   H5S 6291   4.129   1.282   9.992  1.4090 -1.2969  3.0850
   72SLPC   C26 6292   3.965   1.218   9.885 -1.0702  0.2892  1.1516
   72SLPC   H6R 6293   4.034   1.159   9.821 -1.3406  0.7454  0.4362
   72SLPC   H6S 6294   3.941   1.317   9.839 -0.9124  0.1334  0.7313
   72SLPC   C27 6295   3.838   1.130   9.883 -0.6298 -0.4518 -0.0459
   72SLPC   H7R 6296   3.768   1.192   9.943 -1.0503  2.7975 -3.6305
   72SLPC   H7S 6297   3.846   1.035   9.939 -1.0558  1.3280  3.1595
   72SLPC   C28 6298   3.783   1.103   9.744 -0.0929 -0.0439  0.1365
   72SLPC   H8R 6299   3.780   1.200   9.689  0.5333 -1.1976 -1.9873
   72SLPC   H8S 6300   3.678   1.073   9.763 -0.6806  2.0922  0.4242
   72SLPC   C29 6301   3.856   0.989   9.682  0.2287  0.6279 -0.1660
   72SLPC   H9R 6302   3.859   0.896   9.741 -3.1759  1.1539  0.9312
   72SLPC  C210 6303   3.921   0.991   9.565 -0.3167  1.2115 -0.0621
   72SLPC  H10R 6304   3.965   0.902   9.518  3.6048  2.6050  0.7674
   72SLPC  C211 6305   3.929   1.104   9.465  0.0105  0.2670 -0.1986
   72SLPC  H11R 6306   3.910   1.203   9.511  1.2106  0.2048  0.4523
   72SLPC  H11S 6307   3.838   1.104   9.402 -0.8547 -2.4770  0.9792
   72SLPC  C212 6308   4.053   1.109   9.379 -0.1251 -0.1611  0.0418
   72SLPC  H12R 6309   4.150   1.122   9.430  0.5479 -1.3697 -0.8961
   72SLPC  C213 6310   4.051   1.104   9.244  0.3017 -0.0694 -0.1052
   72SLPC  H13R 6311   4.150   1.092   9.197  0.6710  0.5615  0.5159
   72SLPC  C214 6312   3.925   1.088   9.165  0.2969 -0.4623  0.0448
   72SLPC  H14R 6313   3.855   1.170   9.193  2.7879  2.4064 -1.7898
   72SLPC  H14S 6314   3.875   0.994   9.196  0.0787  0.0379  1.2177
   72SLPC  C215 6315   3.959   1.093   9.013  0.4088 -0.6085  0.0430
   72SLPC  H15R 6316   4.026   1.010   8.981 -1.4378 -2.1546  0.1291
   72SLPC  H15S 6317   4.013   1.188   8.991 -0.2121 -0.3983 -0.5871
   72SLPC  C216 6318   3.828   1.107   8.938  0.1455  0.6261 -0.1277
   72SLPC  H16R 6319   3.761   1.183   8.983  1.7670  1.8189  0.3283
   72SLPC  H16S 6320   3.774   1.011   8.956 -1.1748  1.4491  0.3540
   72SLPC  C217 6321   3.862   1.123   8.788 -0.2582 -0.4346 -0.5244
   72SLPC  H17R 6322   3.939   1.054   8.747 -1.3201 -2.7954  1.3748
   72SLPC  H17S 6323   3.889   1.230   8.784  0.4899 -0.6362 -0.8939
   72SLPC  C218 6324   3.724   1.104   8.720  0.3035  0.7165 -0.0226
   72SLPC  H18R 6325   3.719   1.156   8.622  0.5615 -1.8270 -1.4264
   72SLPC  H18S 6326   3.639   1.147   8.777  0.1076  1.5296 -0.9043
   72SLPC  H18T 6327   3.701   1.000   8.690 -1.4974  0.7041  1.3388
   72SLPC   C33 6328   3.522   1.477   9.915 -0.2225  0.0749  0.4122
   72SLPC   H3X 6329   3.614   1.540   9.928  1.9769 -2.8334 -0.6319
   72SLPC   H3Y 6330   3.434   1.544   9.915 -0.0541  0.3703  3.6053
   72SLPC   C34 6331   3.551   1.396   9.787 -0.0637 -0.5993 -0.0940
   72SLPC   H4X 6332   3.474   1.318   9.773 -1.0211  0.1143  1.1219
   72SLPC   H4Y 6333   3.654   1.353   9.790  0.1346 -0.0862  0.5542
   72SLPC   C35 6334   3.559   1.487   9.663 -0.2041 -0.4954 -1.1710
   72SLPC   H5X 6335   3.631   1.569   9.686 -1.5202  0.4515 -0.3561
   72SLPC   H5Y 6336   3.457   1.529   9.651 -0.6576 -0.5691  1.9302
   72SLPC   C36 6337   3.601   1.417   9.534  0.3130  0.7297  0.1116
   72SLPC   H6X 6338   3.530   1.333   9.524  2.1926 -1.1121  1.8157
   72SLPC   H6Y 6339   3.704   1.376   9.537 -0.1108 -0.4371 -0.9830
   72SLPC   C37 6340   3.587   1.507   9.413 -0.0495  0.0628  0.0092
   72SLPC   H7X 6341   3.657   1.592   9.422  0.7365 -0.6322  0.4445
   72SLPC   H7Y 6342   3.483   1.545   9.403 -0.3620 -1.5244 -3.5540
   72SLPC   C38 6343   3.594   1.426   9.279  0.1848  0.7309  0.1336
   72SLPC   H8X 6344   3.510   1.359   9.253 -0.0473  1.3415 -0.7201
   72SLPC   H8Y 6345   3.671   1.347   9.288 -0.6318  0.2234  3.0492
   72SLPC   C39 6346   3.627   1.519   9.164  0.1539  0.2280 -0.5602
   72SLPC   H9X 6347   3.737   1.535   9.166 -0.0756  1.9135 -0.2781
   72SLPC   H9Y 6348   3.583   1.621   9.159  0.4249  0.4443  1.0422
   72SLPC  C310 6349   3.590   1.450   9.029  0.1490  0.3567  0.4421
   72SLPC  H10X 6350   3.620   1.343   9.034  2.4513  0.9555  0.1351
   72SLPC  H10Y 6351   3.658   1.481   8.946  0.7115 -0.1030  0.7260
   72SLPC  C311 6352   3.439   1.449   8.985  1.2440 -0.0971  0.0372
   72SLPC  H11X 6353   3.396   1.550   8.967 -1.4785 -1.4101 -1.1723
   72SLPC  H11Y 6354   3.374   1.414   9.068 -3.1854  0.7325 -2.8726
   72SLPC  C312 6355   3.422   1.364   8.861  0.0826  0.5998  0.7211
   72SLPC  H12X 6356   3.315   1.342   8.840  1.0380 -1.7014 -2.1616
   72SLPC  H12Y 6357   3.472   1.266   8.879 -0.4558  0.1248 -0.3105
   72SLPC  C313 6358   3.506   1.405   8.732 -0.5301 -0.8940 -0.0564
   72SLPC  H13X 6359   3.612   1.373   8.740  0.0509  0.9863 -0.1242
   72SLPC  H13Y 6360   3.506   1.516   8.734  2.3762 -0.8328 -1.0236
   72SLPC  C314 6361   3.459   1.334   8.597 -0.2230 -0.3610  0.0313
   72SLPC  H14X 6362   3.354   1.350   8.564  0.4985  0.0823 -2.1993
   72SLPC  H14Y 6363   3.478   1.226   8.610 -0.3392 -0.3417  0.3544
   72SLPC  C315 6364   3.556   1.381   8.487  0.1649  0.8666  0.2220
   72SLPC  H15X 6365   3.661   1.364   8.518 -0.6403 -1.9281  1.6735
   72SLPC  H15Y 6366   3.537   1.484   8.452 -2.7747  0.3824  0.2501
   72SLPC  C316 6367   3.512   1.307   8.357 -0.1860 -0.5855 -0.0820
   72SLPC  H16X 6368   3.406   1.330   8.332 -0.3827  1.7804  2.6530
   72SLPC  H16Y 6369   3.518   1.197   8.376 -1.6214 -0.4736  1.0907
   72SLPC  C317 6370   3.598   1.340   8.236 -0.0113  0.0009 -0.2947
   72SLPC  H17X 6371   3.615   1.253   8.169 -0.1269 -0.0035 -0.3208
   72SLPC  H17Y 6372   3.701   1.356   8.274  0.6107 -0.2905 -1.8222
   72SLPC  C318 6373   3.549   1.466   8.158 -0.4736 -0.0668 -0.3037
   72SLPC  H18X 6374   3.555   1.550   8.232 -1.0128  0.0781 -0.4206
   72SLPC  H18Y 6375   3.445   1.452   8.123 -0.8479  1.9053 -0.0454
   72SLPC  H18Z 6376   3.608   1.475   8.065 -2.2943 -1.3916 -1.6171
   73SLPC     N 6377   3.601   6.469  11.159 -0.4706  0.0510  0.3631
   73SLPC   C13 6378   3.495   6.377  11.206  0.6603  0.3302  0.4090
   73SLPC  H13A 6379   3.511   6.277  11.169 -0.4667  0.9117 -1.7660
   73SLPC  H13B 6380   3.489   6.376  11.314  0.3383  0.3946  0.3931
   73SLPC  H13C 6381   3.395   6.415  11.193  0.2940 -0.1572  1.7299
   73SLPC   C14 6382   3.733   6.407  11.202 -0.1934  0.7555  0.4220
   73SLPC  H14A 6383   3.739   6.384  11.307 -2.4940 -2.5936 -0.0804
   73SLPC  H14B 6384   3.754   6.310  11.159  3.2267  2.3190 -1.6461
   73SLPC  H14C 6385   3.817   6.469  11.177 -0.7019  1.3615  0.1917
   73SLPC   C15 6386   3.571   6.607  11.215  0.0246  0.6458  0.7586
   73SLPC  H15A 6387   3.471   6.625  11.179 -0.0470 -1.6000 -0.2595
   73SLPC  H15B 6388   3.576   6.610  11.323  0.9662  2.4601  0.6849
   73SLPC  H15C 6389   3.649   6.671  11.177  0.9536 -0.5183  0.6695
   73SLPC   C12 6390   3.608   6.466  11.009 -0.0238 -0.7126  0.3710
   73SLPC  H12A 6391   3.505   6.480  10.980  0.3648 -3.3601 -2.6257
   73SLPC  H12B 6392   3.630   6.365  10.976  2.4721  0.3981 -1.5052
   73SLPC   C11 6393   3.691   6.561  10.925 -0.5890  0.5119  0.2726
   73SLPC  H11A 6394   3.654   6.662  10.952 -0.1324  1.3727 -2.1451
   73SLPC  H11B 6395   3.670   6.538  10.818  3.7972  0.3476 -0.6302
   73SLPC     P 6396   3.919   6.684  10.968 -0.2670 -0.1000  0.0400
   73SLPC   O13 6397   3.867   6.769  11.070 -0.2769  0.7233  0.3013
   73SLPC   O14 6398   4.063   6.666  10.961 -0.1479 -0.0992 -0.9124
   73SLPC   O12 6399   3.833   6.550  10.957  0.2487 -0.5037 -0.2563
   73SLPC   O11 6400   3.876   6.749  10.829  0.0343  0.3402  0.0247
   73SLPC    C1 6401   3.972   6.793  10.733 -0.2935 -0.1138  0.3028
   73SLPC    HA 6402   3.939   6.896  10.706  1.6603  0.6071  0.5597
   73SLPC    HB 6403   4.068   6.828  10.778 -0.3570 -1.1673  1.2756
   73SLPC    C2 6404   3.983   6.692  10.615  0.4793 -0.2372  0.8251
   73SLPC    HS 6405   4.048   6.741  10.539  1.5705 -0.9325  1.2849
   73SLPC   O21 6406   3.856   6.647  10.557  0.4247  0.2215  0.0651
   73SLPC   C21 6407   3.788   6.731  10.492 -0.7482  0.4368 -0.4180
   73SLPC   O22 6408   3.825   6.835  10.442 -0.2430  0.3627  0.7276
   73SLPC   C22 6409   3.644   6.678  10.476 -0.3586 -0.2383  0.1142
   73SLPC   H2R 6410   3.603   6.676  10.579  1.7220 -3.0216  0.9683
   73SLPC   H2S 6411   3.592   6.749  10.408 -3.4003 -2.1852  0.2993
   73SLPC    C3 6412   4.060   6.559  10.657  0.0971  0.0010 -0.6423
   73SLPC    HX 6413   4.011   6.509  10.744  0.3947  0.0634 -0.4384
   73SLPC    HY 6414   4.157   6.589  10.700 -1.1790  1.0130  1.6069
   73SLPC   O31 6415   4.086   6.473  10.542  0.2128  0.0183  0.5843
   73SLPC   C31 6416   4.002   6.364  10.545 -0.2746 -0.4196 -0.6178
   73SLPC   O32 6417   3.913   6.348  10.624 -0.1870 -0.1125  0.2223
   73SLPC   C32 6418   4.025   6.280  10.419  0.6595 -0.5365 -0.1116
   73SLPC   H2X 6419   4.112   6.210  10.417  0.5140 -0.7029 -0.7714
   73SLPC   H2Y 6420   4.041   6.349  10.333  2.0806 -0.1655  0.4371
   73SLPC   C23 6421   3.634   6.524  10.424  0.2299  0.2203  0.4317
   73SLPC   H3R 6422   3.538   6.499  10.475 -0.3239 -1.8234 -1.5577
   73SLPC   H3S 6423   3.709   6.452  10.463  0.8563  0.8858  0.4637
   73SLPC   C24 6424   3.609   6.512  10.268  0.1042  0.5002  0.6017
   73SLPC   H4R 6425   3.699   6.538  10.207 -1.2846  3.7936 -0.1528
   73SLPC   H4S 6426   3.528   6.586  10.248  0.9701  1.2637 -0.1215
   73SLPC   C25 6427   3.545   6.379  10.226 -0.0690 -0.1216 -0.7397
   73SLPC   H5R 6428   3.454   6.365  10.288  1.2388  2.0026  1.7815
   73SLPC   H5S 6429   3.615   6.300  10.258 -1.1480 -0.6641  0.3193
   73SLPC   C26 6430   3.511   6.366  10.078 -0.4399  0.1075  0.0288
   73SLPC   H6R 6431   3.599   6.369  10.011 -1.6458 -2.2201 -1.7548
   73SLPC   H6S 6432   3.441   6.450  10.058  0.4260  0.9752  0.6359
   73SLPC   C27 6433   3.435   6.235  10.053 -0.0945  0.6281  0.1384
   73SLPC   H7R 6434   3.452   6.165  10.137  1.3198 -2.1987 -2.3937
   73SLPC   H7S 6435   3.484   6.189   9.964  1.8190  2.3456  0.2585
   73SLPC   C28 6436   3.286   6.255  10.030  0.0080 -0.1323 -0.1312
   73SLPC   H8R 6437   3.272   6.331   9.950  0.1873  0.2977  0.2448
   73SLPC   H8S 6438   3.233   6.303  10.115 -0.7971  1.8350 -1.6947
   73SLPC   C29 6439   3.217   6.130   9.989  0.5192 -0.3810  0.0269
   73SLPC   H9R 6440   3.183   6.068  10.073  2.1781 -0.8121  0.4007
   73SLPC  C210 6441   3.202   6.086   9.862 -0.4018  0.3814  0.0859
   73SLPC  H10R 6442   3.154   5.990   9.841 -0.6528  1.1030 -2.9812
   73SLPC  C211 6443   3.259   6.153   9.734 -0.0084  0.6634 -0.0331
   73SLPC  H11R 6444   3.322   6.241   9.758 -0.9814  1.1230  0.8621
   73SLPC  H11S 6445   3.172   6.189   9.675  1.0947  2.1099 -0.7942
   73SLPC  C212 6446   3.327   6.047   9.655 -0.0771 -0.4714 -0.1823
   73SLPC  H12R 6447   3.419   6.019   9.709  0.3698 -1.7561 -1.5731
   73SLPC  C213 6448   3.299   5.978   9.542  0.3075  0.0976  0.3699
   73SLPC  H13R 6449   3.362   5.896   9.507 -2.2599 -0.4751 -3.1878
   73SLPC  C214 6450   3.173   6.015   9.467 -0.3903 -0.5669  0.3002
   73SLPC  H14R 6451   3.086   6.026   9.535  0.0871  0.4887  0.7542
   73SLPC  H14S 6452   3.145   5.936   9.394 -0.9284  0.5184 -0.6902
   73SLPC  C215 6453   3.173   6.151   9.402  0.0283 -0.0254  0.0304
   73SLPC  H15R 6454   3.272   6.164   9.352  0.7429 -1.2404  1.0726
   73SLPC  H15S 6455   3.178   6.234   9.476 -0.4513  0.9493 -1.0215
   73SLPC  C216 6456   3.048   6.182   9.324  0.1247  0.0132  0.5138
   73SLPC  H16R 6457   2.958   6.194   9.387  0.3871 -1.5691  1.2145
   73SLPC  H16S 6458   3.041   6.109   9.240  0.2974 -0.4284  0.8735
   73SLPC  C217 6459   3.051   6.320   9.257 -0.9139  0.3106  0.1781
   73SLPC  H17R 6460   3.138   6.329   9.189 -0.5151  0.9783  0.7673
   73SLPC  H17S 6461   3.064   6.395   9.338  0.9382  0.2378 -0.0479
   73SLPC  C218 6462   2.917   6.349   9.191  0.1535  0.0494 -0.5409
   73SLPC  H18R 6463   2.838   6.340   9.268  0.7029  0.2878  0.0474
   73SLPC  H18S 6464   2.893   6.284   9.104  0.4839  0.3408 -0.8544
   73SLPC  H18T 6465   2.927   6.450   9.147 -0.6676  1.1006  1.6560
   73SLPC   C33 6466   3.894   6.205  10.384 -0.1137  0.0922  0.1726
   73SLPC   H3X 6467   3.809   6.272  10.358 -1.4054 -1.5465  0.1317
   73SLPC   H3Y 6468   3.852   6.156  10.474 -0.9128  2.1380  0.9620
   73SLPC   C34 6469   3.910   6.104  10.268 -0.2282  0.3116 -0.0334
   73SLPC   H4X 6470   3.818   6.042  10.275 -0.3186  0.1999 -1.9657
   73SLPC   H4Y 6471   3.999   6.038  10.270 -0.6213 -0.3665 -3.0751
   73SLPC   C35 6472   3.901   6.161  10.125  0.3542 -0.4003  0.2968
   73SLPC   H5X 6473   3.982   6.224  10.082 -2.3494  4.5753  2.0790
   73SLPC   H5Y 6474   3.807   6.221  10.121 -0.3743 -1.5507 -0.0115
   73SLPC   C36 6475   3.892   6.041  10.025  0.0875 -0.1430 -0.3348
   73SLPC   H6X 6476   3.834   5.955  10.066  0.7300 -0.2437  0.3796
   73SLPC   H6Y 6477   3.994   6.007   9.997  1.2864  2.3143  0.9271
   73SLPC   C37 6478   3.831   6.079   9.887 -0.4912 -0.3925  0.0088
   73SLPC   H7X 6479   3.892   6.166   9.855  0.0849 -0.7888  0.0333
   73SLPC   H7Y 6480   3.734   6.131   9.906 -1.0835 -0.9325 -1.4933
   73SLPC   C38 6481   3.815   5.958   9.805  0.2059  0.6248  0.1014
   73SLPC   H8X 6482   3.761   5.880   9.862  0.0970 -0.9960 -2.1496
   73SLPC   H8Y 6483   3.917   5.916   9.789 -1.0443 -1.4377 -2.9493
   73SLPC   C39 6484   3.732   5.988   9.672 -0.0189  0.4909  0.8352
   73SLPC   H9X 6485   3.793   6.060   9.614 -1.3494 -0.4801 -1.8064
   73SLPC   H9Y 6486   3.642   6.043   9.705 -0.5204  0.1992 -0.0485
   73SLPC  C310 6487   3.700   5.862   9.595 -0.2419 -0.1384 -0.2987
   73SLPC  H10X 6488   3.642   5.793   9.659 -3.9422  3.0348 -0.0300
   73SLPC  H10Y 6489   3.790   5.802   9.569  0.8990  1.7714 -0.9016
   73SLPC  C311 6490   3.617   5.893   9.471  0.6995  0.0767 -0.4090
   73SLPC  H11X 6491   3.554   5.982   9.496 -0.9797 -1.3916  0.7072
   73SLPC  H11Y 6492   3.551   5.805   9.456  0.8085 -0.1468  0.4408
   73SLPC  C312 6493   3.700   5.914   9.339  0.2973 -0.2980 -1.2410
   73SLPC  H12X 6494   3.750   5.820   9.310  2.6291  0.8993 -1.2275
   73SLPC  H12Y 6495   3.780   5.991   9.349 -0.3822  0.1711  0.7904
   73SLPC  C313 6496   3.613   5.956   9.218 -1.1001  0.1466  0.1718
   73SLPC  H13X 6497   3.677   5.955   9.127  2.5264 -0.9050  2.6306
   73SLPC  H13Y 6498   3.577   6.057   9.246  0.5473  0.9380 -0.4987
   73SLPC  C314 6499   3.492   5.857   9.180 -0.3792  0.7094 -0.1599
   73SLPC  H14X 6500   3.424   5.849   9.267 -0.7810  0.7314 -0.4720
   73SLPC  H14Y 6501   3.540   5.757   9.170 -0.3957  0.1811  4.1483
   73SLPC  C315 6502   3.403   5.904   9.069  0.4451 -0.6411  0.4064
   73SLPC  H15X 6503   3.329   5.824   9.048 -0.3283  0.4977 -1.4254
   73SLPC  H15Y 6504   3.472   5.925   8.984 -0.1562  1.3328  0.3784
   73SLPC  C316 6505   3.323   6.038   9.100 -0.3358  0.1643  0.0454
   73SLPC  H16X 6506   3.396   6.114   9.134 -0.9593  1.0677 -0.6214
   73SLPC  H16Y 6507   3.255   6.017   9.185  1.3688 -2.6656  0.7942
   73SLPC  C317 6508   3.247   6.082   8.980 -0.3848 -0.5604 -0.8094
   73SLPC  H17X 6509   3.193   6.172   9.017  2.8275  0.6467  1.2367
   73SLPC  H17Y 6510   3.167   6.016   8.941  1.5422 -1.0882 -4.0513
   73SLPC  C318 6511   3.331   6.129   8.858  0.0832  0.4001 -0.5835
   73SLPC  H18X 6512   3.271   6.172   8.775  2.5976  1.0338 -2.1283
   73SLPC  H18Y 6513   3.398   6.053   8.811  0.3009  1.4435 -1.9866
   73SLPC  H18Z 6514   3.394   6.215   8.889  2.5447 -0.8194 -2.0191
   74SLPC     N 6515   4.870   2.069  10.567  0.0569 -0.0705  1.0924
   74SLPC   C13 6516   4.798   2.117  10.683 -0.1156 -0.7955  0.5703
   74SLPC  H13A 6517   4.692   2.121  10.665 -0.2776  2.0172  2.0109
   74SLPC  H13B 6518   4.816   2.050  10.766  0.5713 -1.0657  0.2122
   74SLPC  H13C 6519   4.822   2.219  10.709 -0.5687 -0.0683 -1.7463
   74SLPC   C14 6520   5.015   2.076  10.596 -0.5950  0.7955  0.4391
   74SLPC  H14A 6521   5.045   2.002  10.669  1.5613  0.5669 -0.6238
   74SLPC  H14B 6522   5.086   2.058  10.516  2.0261  0.3461  2.7680
   74SLPC  H14C 6523   5.058   2.169  10.633  1.2567 -0.5890  1.8708
   74SLPC   C15 6524   4.836   2.169  10.460  0.7854 -0.6052 -0.5714
   74SLPC  H15A 6525   4.910   2.172  10.381  1.5992  1.0421  0.2379
   74SLPC  H15B 6526   4.741   2.151  10.411 -0.7680 -1.9600  2.8280
   74SLPC  H15C 6527   4.839   2.267  10.506  2.9453 -0.7510 -0.3671
   74SLPC   C12 6528   4.824   1.932  10.519  0.1890 -0.4080  0.3881
   74SLPC  H12A 6529   4.716   1.932  10.512  0.1708  1.3141  0.3599
   74SLPC  H12B 6530   4.847   1.868  10.602 -0.5811 -0.8502  0.2645
   74SLPC   C11 6531   4.892   1.872  10.389 -1.1692  0.6847 -0.0749
   74SLPC  H11A 6532   4.890   1.950  10.310  0.9386  1.2758  0.4320
   74SLPC  H11B 6533   4.826   1.791  10.350  0.7232 -0.4617 -0.9157
   74SLPC     P 6534   5.068   1.700  10.469  0.0699  0.0810 -0.0899
   74SLPC   O13 6535   5.213   1.691  10.483 -0.3897 -0.6548  0.2893
   74SLPC   O14 6536   4.988   1.661  10.588  1.0457  0.3915  0.6096
   74SLPC   O12 6537   5.031   1.838  10.416 -0.2042  0.0088  0.0169
   74SLPC   O11 6538   5.004   1.608  10.354 -0.2950  0.3085 -0.2753
   74SLPC    C1 6539   5.067   1.611  10.225  0.2362 -0.0750  0.3367
   74SLPC    HA 6540   4.995   1.564  10.155 -1.4086 -0.2802  2.1298
   74SLPC    HB 6541   5.082   1.716  10.190  1.3101 -0.5353 -0.6180
   74SLPC    C2 6542   5.188   1.515  10.216 -0.2184 -0.2101  0.7838
   74SLPC    HS 6543   5.271   1.558  10.276 -0.0993  0.1360  0.3693
   74SLPC   O21 6544   5.233   1.505  10.084 -0.7806 -0.5044 -0.2554
   74SLPC   C21 6545   5.292   1.610  10.031 -0.1168 -0.0563 -0.5785
   74SLPC   O22 6546   5.312   1.719  10.083 -0.0492  0.0062  0.3556
   74SLPC   C22 6547   5.322   1.569   9.886  0.0914  0.2396  0.9494
   74SLPC   H2R 6548   5.425   1.529   9.880 -1.1842 -3.1511  0.4204
   74SLPC   H2S 6549   5.254   1.491   9.845  0.5286 -0.1027  0.8788
   74SLPC    C3 6550   5.158   1.377  10.279  0.8277 -0.5772 -0.1347
   74SLPC    HX 6551   5.142   1.394  10.388  1.2839  1.4996 -0.3680
   74SLPC    HY 6552   5.239   1.301  10.279 -0.4901 -2.0333 -1.1614
   74SLPC   O31 6553   5.033   1.320  10.223 -0.8408  0.1704  0.1285
   74SLPC   C31 6554   5.045   1.201  10.170  0.0741 -0.0724  0.8865
   74SLPC   O32 6555   5.143   1.137  10.165  0.3280  0.0164 -0.0055
   74SLPC   C32 6556   4.913   1.148  10.108  0.4878 -0.0235  0.0131
   74SLPC   H2X 6557   4.840   1.156  10.192  1.7260 -0.2357  1.1160
   74SLPC   H2Y 6558   4.936   1.043  10.080  0.7652  0.4454 -1.5391
   74SLPC   C23 6559   5.293   1.695   9.789  0.6349  0.3023 -0.4582
   74SLPC   H3R 6560   5.358   1.781   9.814 -0.2581  0.3659  1.8034
   74SLPC   H3S 6561   5.186   1.723   9.800  0.5700 -0.4753  0.9697
   74SLPC   C24 6562   5.307   1.673   9.639  0.0284 -0.4214  0.2709
   74SLPC   H4R 6563   5.248   1.580   9.622  2.5878 -2.2617  1.1796
   74SLPC   H4S 6564   5.413   1.651   9.616 -0.0684  1.3382 -2.0560
   74SLPC   C25 6565   5.251   1.795   9.558 -0.3936 -0.6107 -0.2578
   74SLPC   H5R 6566   5.300   1.884   9.603  2.2579 -1.4357 -1.4583
   74SLPC   H5S 6567   5.141   1.810   9.573 -0.3333 -0.5282  0.1045
   74SLPC   C26 6568   5.290   1.786   9.412 -0.0954 -0.9262  0.2043
   74SLPC   H6R 6569   5.399   1.799   9.397  0.1034 -0.2320  2.0336
   74SLPC   H6S 6570   5.241   1.867   9.354  2.5422 -0.3024 -1.2188
   74SLPC   C27 6571   5.242   1.655   9.342  0.1794 -0.0797  0.3057
   74SLPC   H7R 6572   5.134   1.637   9.356 -0.3619  1.7715 -1.2214
   74SLPC   H7S 6573   5.284   1.566   9.393 -1.7466 -1.1806  0.0281
   74SLPC   C28 6574   5.272   1.662   9.189  0.7416 -0.4876 -0.0963
   74SLPC   H8R 6575   5.246   1.565   9.142 -1.4415 -0.0821  0.2171
   74SLPC   H8S 6576   5.379   1.689   9.173  1.0521 -2.4893 -1.5786
   74SLPC   C29 6577   5.190   1.773   9.122 -0.5986 -0.4616  0.2325
   74SLPC   H9R 6578   5.088   1.787   9.162 -0.7360 -0.1629 -0.2278
   74SLPC  C210 6579   5.240   1.859   9.022 -0.6205  0.1492 -0.2496
   74SLPC  H10R 6580   5.174   1.932   8.971 -0.3628 -0.7649 -1.9329
   74SLPC  C211 6581   5.373   1.854   8.948  0.3245  0.5431 -0.9127
   74SLPC  H11R 6582   5.353   1.815   8.846  1.2721 -0.7131 -0.6222
   74SLPC  H11S 6583   5.441   1.775   8.985 -1.7540 -0.3520  1.0695
   74SLPC  C212 6584   5.438   1.983   8.943  0.4455  0.0787 -0.3184
   74SLPC  H12R 6585   5.468   2.020   9.042  0.9278  1.1685 -0.8582
   74SLPC  C213 6586   5.471   2.050   8.834 -0.5061 -0.2854 -0.2650
   74SLPC  H13R 6587   5.508   2.153   8.849 -2.4196  0.7885 -2.6099
   74SLPC  C214 6588   5.460   2.008   8.690 -0.7163 -0.3166 -0.1100
   74SLPC  H14R 6589   5.358   2.043   8.666 -0.2896  0.2226 -1.1502
   74SLPC  H14S 6590   5.469   1.898   8.679  0.2623 -0.5235  2.3076
   74SLPC  C215 6591   5.559   2.073   8.588  0.2567  0.6305  0.2099
   74SLPC  H15R 6592   5.666   2.064   8.614  1.3086  0.3311 -4.0358
   74SLPC  H15S 6593   5.530   2.181   8.589  1.5425  0.9914  1.9163
   74SLPC  C216 6594   5.534   2.025   8.443 -0.0866  0.0775  0.7359
   74SLPC  H16R 6595   5.437   2.057   8.400  0.4453  0.3494 -0.2821
   74SLPC  H16S 6596   5.540   1.914   8.441  0.5203  0.0817  2.2777
   74SLPC  C217 6597   5.632   2.092   8.347  0.0245  0.0836  0.6160
   74SLPC  H17R 6598   5.725   2.060   8.398 -0.5775 -0.1658  1.5535
   74SLPC  H17S 6599   5.642   2.203   8.351 -2.2612  0.3463 -0.5953
   74SLPC  C218 6600   5.619   2.044   8.200  0.6375  0.2267  0.2426
   74SLPC  H18R 6601   5.704   2.077   8.137 -0.4664  4.2819  0.6985
   74SLPC  H18S 6602   5.519   2.078   8.165  0.6581  0.0289 -0.0049
   74SLPC  H18T 6603   5.593   1.937   8.193  2.5779 -0.2557  0.2045
   74SLPC   C33 6604   4.869   1.224   9.979 -0.1527 -0.2054 -0.0046
   74SLPC   H3X 6605   4.861   1.332  10.003 -0.5343 -0.3538  0.5373
   74SLPC   H3Y 6606   4.764   1.199   9.953  0.2712 -1.8157 -0.2272
   74SLPC   C34 6607   4.940   1.191   9.848 -0.0777  0.3789 -0.3639
   74SLPC   H4X 6608   5.051   1.194   9.853 -0.0492 -1.4092  0.5496
   74SLPC   H4Y 6609   4.912   1.279   9.787 -1.7230 -0.0297 -0.2423
   74SLPC   C35 6610   4.875   1.067   9.778  0.4052  0.4409  0.0805
   74SLPC   H5X 6611   4.786   1.038   9.839  1.2858 -1.6073  0.4340
   74SLPC   H5Y 6612   4.950   0.985   9.778 -2.8101 -2.6519  1.6507
   74SLPC   C36 6613   4.815   1.089   9.638 -0.2610  0.6557 -0.2144
   74SLPC   H6X 6614   4.727   1.155   9.648 -1.0354 -0.6052  1.8140
   74SLPC   H6Y 6615   4.769   0.993   9.606  1.5064  0.0193 -0.9074
   74SLPC   C37 6616   4.912   1.146   9.543 -0.1032  0.2577 -0.5954
   74SLPC   H7X 6617   5.002   1.081   9.545 -0.9833 -0.9722 -1.1313
   74SLPC   H7Y 6618   4.936   1.249   9.580  0.8312 -0.0825 -0.2386
   74SLPC   C38 6619   4.854   1.172   9.403 -0.1851  0.7637 -0.0391
   74SLPC   H8X 6620   4.756   1.223   9.414 -1.7325 -1.8553 -1.2555
   74SLPC   H8Y 6621   4.826   1.079   9.350  1.9714  1.3586 -2.3075
   74SLPC   C39 6622   4.947   1.257   9.312 -0.3924  0.2400  0.5799
   74SLPC   H9X 6623   5.031   1.186   9.297 -0.9574  0.1332 -2.3907
   74SLPC   H9Y 6624   4.985   1.348   9.364  2.5406 -0.1838 -0.7051
   74SLPC  C310 6625   4.884   1.295   9.175 -0.5346  0.0190 -0.0183
   74SLPC  H10X 6626   4.805   1.371   9.197  0.3636  1.3636 -1.3537
   74SLPC  H10Y 6627   4.836   1.202   9.138  0.4103 -1.0514  1.4349
   74SLPC  C311 6628   4.994   1.349   9.073  0.3129 -0.6022 -0.9660
   74SLPC  H11X 6629   5.076   1.276   9.056 -0.7720 -1.9830 -0.4244
   74SLPC  H11Y 6630   5.046   1.440   9.110  2.5467 -1.7117 -1.3064
   74SLPC  C312 6631   4.917   1.378   8.945 -0.3732  0.3824 -0.4176
   74SLPC  H12X 6632   4.822   1.430   8.971 -0.5153  0.6429 -1.4435
   74SLPC  H12Y 6633   4.907   1.279   8.895  2.5891 -2.8284  4.8491
   74SLPC  C313 6634   4.985   1.487   8.852 -0.0824  0.3071 -0.5893
   74SLPC  H13X 6635   5.018   1.566   8.923 -0.4002 -0.6405  0.6450
   74SLPC  H13Y 6636   4.903   1.530   8.791  0.5046 -0.4054 -1.9102
   74SLPC  C314 6637   5.102   1.437   8.768 -0.5065 -0.4574 -0.3008
   74SLPC  H14X 6638   5.065   1.352   8.707 -1.9307  0.0285 -0.1159
   74SLPC  H14Y 6639   5.177   1.392   8.837 -0.6897  1.9356  1.5263
   74SLPC  C315 6640   5.165   1.555   8.686 -0.0822  0.1208  1.1047
   74SLPC  H15X 6641   5.230   1.618   8.751  2.8094  0.0238 -1.5706
   74SLPC  H15Y 6642   5.089   1.629   8.650  1.5615  0.7484 -1.2208
   74SLPC  C316 6643   5.243   1.499   8.563  0.2536  0.4185  0.4403
   74SLPC  H16X 6644   5.168   1.440   8.506  1.8802 -0.4335 -0.8844
   74SLPC  H16Y 6645   5.318   1.432   8.611  0.1826  1.3908  1.9392
   74SLPC  C317 6646   5.322   1.599   8.479 -0.2074 -0.0071 -0.3531
   74SLPC  H17X 6647   5.367   1.682   8.538  0.5447 -0.5975 -0.0904
   74SLPC  H17Y 6648   5.257   1.641   8.399 -1.2264  1.4159  1.1785
   74SLPC  C318 6649   5.441   1.544   8.413  0.2347 -0.3526 -0.0901
   74SLPC  H18X 6650   5.503   1.617   8.357  2.0651 -3.2329 -1.9223
   74SLPC  H18Y 6651   5.405   1.471   8.338 -1.5508  1.8605 -1.4745
   74SLPC  H18Z 6652   5.504   1.493   8.489 -2.9190 -2.2837  1.3008
   75SLPC     N 6653   2.635   5.391   6.755  0.1708 -0.0000 -0.4718
   75SLPC   C13 6654   2.732   5.462   6.659 -0.1537 -0.5629  0.9427
   75SLPC  H13A 6655   2.834   5.441   6.688  0.0456 -2.4388 -0.9223
   75SLPC  H13B 6656   2.709   5.444   6.555  2.1261 -1.7267  0.6118
   75SLPC  H13C 6657   2.729   5.567   6.683 -0.7716 -0.8762  2.2553
   75SLPC   C14 6658   2.495   5.428   6.723 -0.0050 -0.0518  0.7117
   75SLPC  H14A 6659   2.428   5.380   6.793 -0.6648 -1.1135 -0.6288
   75SLPC  H14B 6660   2.483   5.535   6.731 -1.2464 -0.0051 -1.6345
   75SLPC  H14C 6661   2.470   5.400   6.622  2.7749  1.7320 -0.5434
   75SLPC   C15 6662   2.670   5.448   6.890 -0.5445  0.5033 -0.1035
   75SLPC  H15A 6663   2.601   5.417   6.967 -1.0966  3.1788  0.5215
   75SLPC  H15B 6664   2.765   5.412   6.926 -1.5688 -0.1371  2.0085
   75SLPC  H15C 6665   2.675   5.556   6.898  0.9034  0.3015  2.0785
   75SLPC   C12 6666   2.640   5.239   6.750  0.2861  0.1890 -0.4451
   75SLPC  H12A 6667   2.592   5.189   6.833  1.2405 -1.3405 -0.8105
   75SLPC  H12B 6668   2.746   5.225   6.768 -0.0794 -2.5717 -0.2379
   75SLPC   C11 6669   2.610   5.170   6.618 -0.3497 -0.0326 -0.2727
   75SLPC  H11A 6670   2.652   5.070   6.645 -0.0263  0.6341  1.8123
   75SLPC  H11B 6671   2.667   5.209   6.532 -1.0159 -1.0295 -1.1762
   75SLPC     P 6672   2.425   5.069   6.463  0.6210 -0.2295  0.1014
   75SLPC   O13 6673   2.332   5.145   6.383 -0.5733  0.2431 -0.1089
   75SLPC   O14 6674   2.551   5.016   6.398 -0.0394 -0.8088 -0.5343
   75SLPC   O12 6675   2.467   5.161   6.585  0.0409  0.2186 -0.6624
   75SLPC   O11 6676   2.331   4.958   6.533  0.0795 -0.1420  0.1465
   75SLPC    C1 6677   2.204   4.989   6.597  0.3143  0.1116  0.6434
   75SLPC    HA 6678   2.161   5.077   6.544 -2.5864 -0.5864  1.7530
   75SLPC    HB 6679   2.133   4.905   6.585  1.3969 -0.6942 -0.2258
   75SLPC    C2 6680   2.210   5.016   6.746 -0.3847 -0.9362  0.7231
   75SLPC    HS 6681   2.278   5.103   6.754 -0.9184 -0.7259  3.5011
   75SLPC   O21 6682   2.260   4.897   6.813 -0.7704 -0.1454 -0.2160
   75SLPC   C21 6683   2.347   4.925   6.909 -0.3922  0.1284 -0.9031
   75SLPC   O22 6684   2.404   5.030   6.923 -0.2676  0.1440 -0.4168
   75SLPC   C22 6685   2.358   4.794   6.992 -0.0935 -0.0426  0.0627
   75SLPC   H2R 6686   2.267   4.730   6.992  0.4291 -0.8617  2.2333
   75SLPC   H2S 6687   2.439   4.734   6.947  1.6125  0.9343  1.7767
   75SLPC    C3 6688   2.063   5.046   6.800 -0.2507 -0.8164  0.2172
   75SLPC    HX 6689   1.998   4.961   6.769 -2.0886  0.5787  0.1882
   75SLPC    HY 6690   2.025   5.140   6.754  0.0853 -0.1043  1.3791
   75SLPC   O31 6691   2.055   5.060   6.945 -0.3705 -0.3412  0.5548
   75SLPC   C31 6692   2.075   5.187   6.994 -0.0139 -0.7983  0.0104
   75SLPC   O32 6693   2.098   5.281   6.923 -0.8729 -0.0975  0.0278
   75SLPC   C32 6694   2.050   5.194   7.142 -0.2593  0.3775 -0.0344
   75SLPC   H2X 6695   1.990   5.111   7.185  0.4851  0.8498  1.9444
   75SLPC   H2Y 6696   1.986   5.283   7.158 -0.1908  0.7023 -1.4841
   75SLPC   C23 6697   2.361   4.817   7.143  0.4484  0.5878 -0.0515
   75SLPC   H3R 6698   2.263   4.851   7.181  0.3175 -0.5054  0.6067
   75SLPC   H3S 6699   2.441   4.891   7.163 -0.0917  1.0627  0.3563
   75SLPC   C24 6700   2.389   4.682   7.209 -0.2043  0.8064 -0.5920
   75SLPC   H4R 6701   2.480   4.640   7.163 -0.8306  0.0738 -1.1847
   75SLPC   H4S 6702   2.296   4.620   7.205  1.2551 -1.2897 -3.4620
   75SLPC   C25 6703   2.414   4.704   7.359  0.1800 -0.1889  0.3790
   75SLPC   H5R 6704   2.338   4.772   7.402  0.7745  0.8726 -0.2474
   75SLPC   H5S 6705   2.507   4.762   7.375  1.0467 -1.0317 -1.5024
   75SLPC   C26 6706   2.431   4.570   7.441  0.0654  0.3351  0.6016
   75SLPC   H6R 6707   2.505   4.515   7.379  1.8384  1.1938  1.9252
   75SLPC   H6S 6708   2.338   4.510   7.444  1.1114 -1.5080 -1.6632
   75SLPC   C27 6709   2.493   4.594   7.588  0.3248  0.5136  0.3272
   75SLPC   H7R 6710   2.554   4.686   7.595 -0.4077  0.8838  2.1052
   75SLPC   H7S 6711   2.562   4.507   7.594 -1.9919 -1.4156 -0.0516
   75SLPC   C28 6712   2.384   4.602   7.694  0.5549  0.2986  0.6232
   75SLPC   H8R 6713   2.314   4.521   7.664  0.3262  1.0436 -0.9729
   75SLPC   H8S 6714   2.317   4.690   7.684 -2.7640 -1.9255  2.5184
   75SLPC   C29 6715   2.428   4.605   7.837 -0.5791  0.4848 -0.5349
   75SLPC   H9R 6716   2.491   4.695   7.850  1.3298 -1.0055  0.8056
   75SLPC  C210 6717   2.404   4.513   7.928  0.4021  0.0139 -0.1106
   75SLPC  H10R 6718   2.432   4.532   8.032  0.0464 -0.2625  0.0370
   75SLPC  C211 6719   2.308   4.392   7.907 -0.9503  0.4343  0.5035
   75SLPC  H11R 6720   2.315   4.340   7.809 -0.9692  1.5461 -0.1004
   75SLPC  H11S 6721   2.204   4.430   7.896 -0.7262  0.7122 -0.6785
   75SLPC  C212 6722   2.313   4.297   8.026  0.4376  0.5853 -0.6425
   75SLPC  H12R 6723   2.223   4.280   8.087 -0.5024  0.0304 -2.1724
   75SLPC  C213 6724   2.411   4.208   8.042 -0.3479 -0.0047  0.2730
   75SLPC  H13R 6725   2.408   4.142   8.130  0.1362 -1.0240 -0.4683
   75SLPC  C214 6726   2.533   4.200   7.956  0.1558  0.1413 -0.2108
   75SLPC  H14R 6727   2.527   4.264   7.865  1.0298 -1.5055 -1.4569
   75SLPC  H14S 6728   2.524   4.099   7.911  0.6823  1.1843 -2.7512
   75SLPC  C215 6729   2.667   4.226   8.031  0.1498 -0.0522  0.0944
   75SLPC  H15R 6730   2.665   4.327   8.077 -0.0225  0.3972 -0.8780
   75SLPC  H15S 6731   2.745   4.233   7.952  1.5048  0.5351  1.4585
   75SLPC  C216 6732   2.691   4.110   8.132 -0.1441 -0.0132  0.3571
   75SLPC  H16R 6733   2.710   4.015   8.078  2.9423  1.3118 -1.0146
   75SLPC  H16S 6734   2.594   4.095   8.183  0.3422  1.0847  1.6129
   75SLPC  C217 6735   2.787   4.142   8.251 -0.0172  0.0660  0.5172
   75SLPC  H17R 6736   2.757   4.247   8.271 -2.2129 -0.4795  0.2089
   75SLPC  H17S 6737   2.892   4.142   8.215  0.1311 -0.8425  0.9396
   75SLPC  C218 6738   2.770   4.050   8.374 -0.4067  0.1527  0.5072
   75SLPC  H18R 6739   2.672   4.059   8.426 -0.9150 -1.4929 -0.1420
   75SLPC  H18S 6740   2.855   4.071   8.443 -1.0551 -0.1757  1.4268
   75SLPC  H18T 6741   2.770   3.946   8.335  1.0831 -0.1555  1.2970
   75SLPC   C33 6742   2.175   5.212   7.217  0.5722  0.2128  0.0101
   75SLPC   H3X 6743   2.253   5.141   7.183 -1.0465 -0.7995 -1.6933
   75SLPC   H3Y 6744   2.212   5.317   7.206  0.2794  0.2586 -0.5872
   75SLPC   C34 6745   2.152   5.183   7.364 -0.6591  0.6632 -0.3118
   75SLPC   H4X 6746   2.260   5.173   7.390 -1.3169 -1.9006  1.4948
   75SLPC   H4Y 6747   2.095   5.090   7.383 -1.7446  1.2451 -0.6994
   75SLPC   C35 6748   2.085   5.306   7.429 -0.3702  0.0552  0.4063
   75SLPC   H5X 6749   1.999   5.316   7.360  0.5120 -1.9187 -1.0416
   75SLPC   H5Y 6750   2.151   5.394   7.418 -1.8895  1.2322  0.4779
   75SLPC   C36 6751   2.052   5.286   7.574  0.3255  0.0868  0.3866
   75SLPC   H6X 6752   2.002   5.188   7.592 -2.9637  1.6448  0.0851
   75SLPC   H6Y 6753   1.979   5.365   7.603 -1.1904 -0.2897 -2.1834
   75SLPC   C37 6754   2.171   5.287   7.662 -0.0267  0.0267 -0.4635
   75SLPC   H7X 6755   2.260   5.227   7.635  1.0290  2.2732 -2.2276
   75SLPC   H7Y 6756   2.139   5.237   7.756  0.0042  0.2303 -0.3424
   75SLPC   C38 6757   2.241   5.423   7.683  0.0289  0.1439 -0.6941
   75SLPC   H8X 6758   2.165   5.503   7.693 -2.6131 -2.6241  2.5416
   75SLPC   H8Y 6759   2.296   5.456   7.592  1.2403  0.8654  0.2879
   75SLPC   C39 6760   2.340   5.427   7.800  0.0116 -0.2945  0.0481
   75SLPC   H9X 6761   2.390   5.526   7.788 -0.3390 -0.1972 -0.5982
   75SLPC   H9Y 6762   2.420   5.351   7.788  2.4328  2.1252  0.2910
   75SLPC  C310 6763   2.277   5.418   7.941 -0.3745 -0.4433 -0.3140
   75SLPC  H10X 6764   2.233   5.316   7.945  2.3855 -1.6303  1.2053
   75SLPC  H10Y 6765   2.196   5.495   7.944  2.1891  2.4285 -1.9297
   75SLPC  C311 6766   2.384   5.435   8.049 -0.2849  0.4126 -0.3576
   75SLPC  H11X 6767   2.432   5.535   8.040  0.6341  0.0477  0.3005
   75SLPC  H11Y 6768   2.466   5.361   8.036  0.4540  0.9471  1.1255
   75SLPC  C312 6769   2.335   5.429   8.204 -0.9862 -0.3823 -0.4861
   75SLPC  H12X 6770   2.302   5.325   8.226  0.8769 -0.8754  0.0120
   75SLPC  H12Y 6771   2.240   5.488   8.206  1.0443  2.9611  1.9455
   75SLPC  C313 6772   2.431   5.491   8.304 -0.8720 -0.2237 -0.2208
   75SLPC  H13X 6773   2.471   5.587   8.266  0.0515 -0.1747  0.8490
   75SLPC  H13Y 6774   2.519   5.423   8.299 -0.2240  0.0583  4.6023
   75SLPC  C314 6775   2.372   5.497   8.448 -0.3729  0.2003  0.4734
   75SLPC  H14X 6776   2.462   5.477   8.510 -0.0967 -2.8801 -0.8527
   75SLPC  H14Y 6777   2.301   5.413   8.462  1.4794 -1.2541  1.3264
   75SLPC  C315 6778   2.296   5.625   8.478  0.2111  0.0597 -0.4044
   75SLPC  H15X 6779   2.196   5.620   8.430 -0.0039 -0.8748  0.1500
   75SLPC  H15Y 6780   2.347   5.717   8.443 -0.9249  0.6917 -0.4408
   75SLPC  C316 6781   2.279   5.628   8.634 -0.1816  0.5049 -0.1191
   75SLPC  H16X 6782   2.380   5.643   8.677  0.3178  0.4456 -1.2667
   75SLPC  H16Y 6783   2.250   5.525   8.665  0.9018  0.5006  0.9157
   75SLPC  C317 6784   2.183   5.731   8.690  0.3003 -0.3837 -0.0663
   75SLPC  H17X 6785   2.157   5.696   8.793  0.8509  1.0324  0.5586
   75SLPC  H17Y 6786   2.086   5.721   8.637 -0.1681 -1.0117  0.8943
   75SLPC  C318 6787   2.235   5.877   8.686  1.1627  0.2365  0.3201
   75SLPC  H18X 6788   2.279   5.905   8.588 -0.9813  1.0003 -0.4621
   75SLPC  H18Y 6789   2.306   5.900   8.768  2.2382  0.6254 -0.6984
   75SLPC  H18Z 6790   2.147   5.940   8.709 -0.3790 -0.7915 -2.4995
   76SLPC     N 6791   3.750   3.102   6.142  0.2652 -0.2015  0.4419
   76SLPC   C13 6792   3.673   3.225   6.150 -0.2375 -0.6174  0.1809
   76SLPC  H13A 6793   3.650   3.271   6.055  4.0413 -0.0623 -0.7043
   76SLPC  H13B 6794   3.589   3.208   6.216 -0.1050 -0.4978  0.3807
   76SLPC  H13C 6795   3.737   3.301   6.193 -0.1876 -0.1604 -0.6938
   76SLPC   C14 6796   3.853   3.124   6.041 -0.1949 -0.0371  0.6804
   76SLPC  H14A 6797   3.900   3.220   6.054 -2.3419  0.6782  3.4084
   76SLPC  H14B 6798   3.922   3.041   6.036 -0.4122 -0.1740 -0.0546
   76SLPC  H14C 6799   3.799   3.126   5.947 -0.2716 -0.2082  0.7209
   76SLPC   C15 6800   3.650   2.996   6.098  0.7780 -1.0330  0.1244
   76SLPC  H15A 6801   3.698   2.900   6.087  0.6141 -0.9513 -1.4073
   76SLPC  H15B 6802   3.570   2.987   6.170  0.1142 -1.6551 -0.6822
   76SLPC  H15C 6803   3.600   3.037   6.011  0.0658  0.6684  1.2925
   76SLPC   C12 6804   3.809   3.073   6.283  0.7281 -0.6143  0.6851
   76SLPC  H12A 6805   3.727   3.052   6.350 -0.1598  2.2563  0.5720
   76SLPC  H12B 6806   3.879   3.153   6.307  0.4677 -0.2867  0.3559
   76SLPC   C11 6807   3.877   2.936   6.291  0.2406 -0.0496  0.0598
   76SLPC  H11A 6808   3.807   2.851   6.280 -0.7019  0.5965  0.9544
   76SLPC  H11B 6809   3.894   2.923   6.400  2.1795  0.4740 -0.1706
   76SLPC     P 6810   4.127   2.988   6.284 -0.1370  0.3447 -0.0132
   76SLPC   O13 6811   4.174   2.888   6.377 -0.2944 -0.4785 -0.3425
   76SLPC   O14 6812   4.230   3.022   6.177 -0.3657 -0.3931 -0.3107
   76SLPC   O12 6813   3.995   2.925   6.220 -0.7602  0.5711 -0.6593
   76SLPC   O11 6814   4.082   3.124   6.347  0.0316  0.3569  0.0399
   76SLPC    C1 6815   4.123   3.164   6.475  0.5506  0.5970  0.0538
   76SLPC    HA 6816   4.056   3.242   6.516  0.0835 -0.4157  1.2743
   76SLPC    HB 6817   4.127   3.079   6.547 -0.8566  2.1919  2.0839
   76SLPC    C2 6818   4.265   3.233   6.467  0.3132  0.4737  0.4403
   76SLPC    HS 6819   4.269   3.271   6.363 -0.7293 -2.8563 -0.8668
   76SLPC   O21 6820   4.366   3.128   6.487 -0.0725  0.1392  0.0890
   76SLPC   C21 6821   4.492   3.175   6.471  0.6991 -0.1517  0.9484
   76SLPC   O22 6822   4.519   3.281   6.416  0.3336 -0.2768  0.2867
   76SLPC   C22 6823   4.593   3.082   6.534  0.6592  0.6370 -0.9600
   76SLPC   H2R 6824   4.624   3.007   6.459 -2.0429 -0.9147 -0.5875
   76SLPC   H2S 6825   4.683   3.141   6.562  0.2428  0.6083  0.4870
   76SLPC    C3 6826   4.275   3.364   6.564  0.2207  0.6745 -0.6014
   76SLPC    HX 6827   4.195   3.433   6.530 -2.4316 -1.3963  1.3170
   76SLPC    HY 6828   4.373   3.411   6.541  1.0320 -1.7633 -2.3166
   76SLPC   O31 6829   4.265   3.326   6.698  0.6078 -0.4003 -0.1961
   76SLPC   C31 6830   4.373   3.320   6.777 -0.7104  0.1981  0.1990
   76SLPC   O32 6831   4.483   3.355   6.740  0.2977 -0.2615  0.2268
   76SLPC   C32 6832   4.335   3.282   6.921 -0.3521 -0.0802 -0.2011
   76SLPC   H2X 6833   4.345   3.173   6.939  0.6771  0.0974  0.3300
   76SLPC   H2Y 6834   4.236   3.330   6.935  0.0324  1.3247 -1.9902
   76SLPC   C23 6835   4.542   2.999   6.655 -0.5047 -0.0454 -0.6382
   76SLPC   H3R 6836   4.448   2.950   6.620 -0.8526 -0.1265  0.3882
   76SLPC   H3S 6837   4.521   3.066   6.740 -0.0353 -1.9998  1.0664
   76SLPC   C24 6838   4.649   2.892   6.691 -0.0042 -0.1329  0.7421
   76SLPC   H4R 6839   4.677   2.849   6.592 -1.2016 -0.3042  0.4637
   76SLPC   H4S 6840   4.594   2.812   6.745  0.3237 -1.6718 -1.1592
   76SLPC   C25 6841   4.770   2.956   6.763  0.6321 -0.0236 -0.4404
   76SLPC   H5R 6842   4.809   3.031   6.691 -1.9435  2.9545  1.1503
   76SLPC   H5S 6843   4.850   2.879   6.763  0.6645 -0.0476  2.3708
   76SLPC   C26 6844   4.737   3.025   6.894  0.2042  0.3711  0.1331
   76SLPC   H6R 6845   4.679   2.957   6.959  0.0569 -0.3764 -0.7772
   76SLPC   H6S 6846   4.665   3.110   6.887 -0.7047 -0.3901  0.2057
   76SLPC   C27 6847   4.858   3.075   6.976 -0.6518 -0.2833  0.5944
   76SLPC   H7R 6848   4.892   3.158   6.910 -0.7203  0.2012  1.1597
   76SLPC   H7S 6849   4.933   2.993   6.975  1.5239  1.6334 -2.7433
   76SLPC   C28 6850   4.827   3.118   7.118 -0.4569  0.2716 -0.4664
   76SLPC   H8R 6851   4.762   3.207   7.101 -1.1210 -0.1803 -0.3297
   76SLPC   H8S 6852   4.768   3.043   7.175 -0.6275  1.9839  1.6347
   76SLPC   C29 6853   4.958   3.157   7.184 -0.2519  1.0043  0.5403
   76SLPC   H9R 6854   5.031   3.212   7.123 -1.6068  1.9760 -0.2246
   76SLPC  C210 6855   4.995   3.125   7.308  0.2781 -0.7126  0.0551
   76SLPC  H10R 6856   5.083   3.181   7.342  0.7661  1.1222 -3.9506
   76SLPC  C211 6857   4.910   3.056   7.412  0.3193  0.4876 -0.6456
   76SLPC  H11R 6858   4.845   2.982   7.362 -1.2367  2.2253 -1.2620
   76SLPC  H11S 6859   4.839   3.137   7.442  0.8489  0.3148  1.1449
   76SLPC  C212 6860   4.989   2.979   7.519 -0.2750 -0.4122  0.6743
   76SLPC  H12R 6861   5.027   2.879   7.495 -2.0733 -1.2726  1.2764
   76SLPC  C213 6862   5.026   3.033   7.635 -0.3622  0.3295 -0.5425
   76SLPC  H13R 6863   5.092   2.969   7.697 -0.6754 -0.4588 -1.0168
   76SLPC  C214 6864   4.997   3.167   7.684 -0.1135  0.1499  0.9490
   76SLPC  H14R 6865   4.904   3.206   7.637  1.1271 -1.1158 -2.6335
   76SLPC  H14S 6866   5.074   3.242   7.654 -1.4540  0.9075 -0.7076
   76SLPC  C215 6867   4.981   3.174   7.838 -0.0490 -0.6199  0.6720
   76SLPC  H15R 6868   4.912   3.093   7.870 -1.5028  0.8395  1.3389
   76SLPC  H15S 6869   4.927   3.268   7.864  1.8643  0.7485 -0.2741
   76SLPC  C216 6870   5.112   3.171   7.919 -0.5010  0.3849  0.4124
   76SLPC  H16R 6871   5.194   3.214   7.857 -0.7974 -1.2164 -1.1539
   76SLPC  H16S 6872   5.136   3.066   7.947  2.5971  0.6021 -1.1922
   76SLPC  C217 6873   5.102   3.258   8.048  0.3283  0.5013 -0.6006
   76SLPC  H17R 6874   5.093   3.362   8.011  3.5785 -0.2360 -3.7926
   76SLPC  H17S 6875   5.201   3.245   8.097 -1.5984 -0.6442  3.2269
   76SLPC  C218 6876   4.991   3.218   8.150  0.3397 -0.2691  0.0435
   76SLPC  H18R 6877   4.967   3.297   8.224 -1.1253  0.3842 -1.1065
   76SLPC  H18S 6878   5.004   3.125   8.209 -0.6641 -0.5102 -0.1145
   76SLPC  H18T 6879   4.903   3.207   8.084 -0.1206 -3.0367  1.0569
   76SLPC   C33 6880   4.428   3.355   7.024 -0.2550  0.5789  0.0012
   76SLPC   H3X 6881   4.427   3.466   7.010  0.8359  0.4027 -1.6988
   76SLPC   H3Y 6882   4.525   3.312   6.991 -1.2821 -1.1651 -0.8282
   76SLPC   C34 6883   4.409   3.305   7.164  0.2531 -0.4595  0.3721
   76SLPC   H4X 6884   4.398   3.195   7.161  0.2074 -0.5175  2.4588
   76SLPC   H4Y 6885   4.308   3.345   7.188  0.4139  0.8459 -0.9914
   76SLPC   C35 6886   4.508   3.346   7.270 -0.5285  0.1937 -0.2454
   76SLPC   H5X 6887   4.538   3.451   7.250 -1.9137  0.6642  0.0651
   76SLPC   H5Y 6888   4.606   3.296   7.257 -0.4397  0.5025 -0.7890
   76SLPC   C36 6889   4.460   3.340   7.418  0.3320  0.1931 -0.5752
   76SLPC   H6X 6890   4.430   3.240   7.456 -2.1221  0.3345 -2.0241
   76SLPC   H6Y 6891   4.371   3.406   7.426 -1.9349 -3.0133  2.5455
   76SLPC   C37 6892   4.561   3.419   7.507  0.5069 -0.5273  0.3004
   76SLPC   H7X 6893   4.583   3.524   7.476 -0.3042  0.2842  2.3803
   76SLPC   H7Y 6894   4.656   3.365   7.490  1.6887  1.3295  0.8447
   76SLPC   C38 6895   4.519   3.399   7.651 -0.4043  0.2680 -0.5519
   76SLPC   H8X 6896   4.497   3.290   7.657  0.2100  0.2195  1.0517
   76SLPC   H8Y 6897   4.425   3.447   7.685  0.1450  0.6654  0.4168
   76SLPC   C39 6898   4.638   3.429   7.751  0.2150  0.2001  0.0534
   76SLPC   H9X 6899   4.674   3.529   7.720 -0.8928  0.2690 -1.0256
   76SLPC   H9Y 6900   4.725   3.364   7.728  0.0838  0.0026  0.1122
   76SLPC  C310 6901   4.600   3.427   7.896 -0.6414 -0.5173  0.2998
   76SLPC  H10X 6902   4.559   3.330   7.932 -0.1996 -1.2146 -1.0455
   76SLPC  H10Y 6903   4.512   3.492   7.911  0.0277  0.7438 -1.0835
   76SLPC  C311 6904   4.710   3.474   7.989  0.0885 -0.0373 -0.1880
   76SLPC  H11X 6905   4.747   3.569   7.946  1.0575  0.8305  2.4503
   76SLPC  H11Y 6906   4.794   3.403   8.005 -1.3159 -1.7264 -0.1762
   76SLPC  C312 6907   4.650   3.501   8.127  0.0104  0.2584  0.2108
   76SLPC  H12X 6908   4.611   3.406   8.170  2.4273 -0.8182  0.0839
   76SLPC  H12Y 6909   4.571   3.579   8.129 -0.7374 -0.4238 -1.8017
   76SLPC  C313 6910   4.768   3.560   8.219  0.6796 -0.3038  0.3837
   76SLPC  H13X 6911   4.812   3.634   8.149 -0.5909  0.2710  0.1906
   76SLPC  H13Y 6912   4.848   3.483   8.231  0.3816 -0.9566 -1.6107
   76SLPC  C314 6913   4.724   3.635   8.346  0.0366 -0.0034 -0.3098
   76SLPC  H14X 6914   4.686   3.566   8.425  0.2463  0.7727  0.4717
   76SLPC  H14Y 6915   4.632   3.689   8.317 -1.4053 -1.7349  0.8788
   76SLPC  C315 6916   4.833   3.724   8.404 -0.0321  0.4378  0.1183
   76SLPC  H15X 6917   4.797   3.830   8.402  0.4264  0.6083  0.6755
   76SLPC  H15Y 6918   4.914   3.728   8.328 -1.8923  0.7376 -1.9237
   76SLPC  C316 6919   4.903   3.691   8.538 -0.3447 -0.3028 -0.2380
   76SLPC  H16X 6920   4.957   3.595   8.521  0.6524  0.3907 -1.0455
   76SLPC  H16Y 6921   4.826   3.677   8.617 -0.1569 -2.0208 -0.3365
   76SLPC  C317 6922   5.001   3.807   8.564 -0.2675 -0.3600  0.2267
   76SLPC  H17X 6923   4.961   3.902   8.603 -0.4793 -0.5830  0.5601
   76SLPC  H17Y 6924   5.043   3.835   8.465 -1.0132 -3.8309 -1.1752
   76SLPC  C318 6925   5.111   3.769   8.660 -0.4628  0.7826 -0.1918
   76SLPC  H18X 6926   5.185   3.850   8.677 -0.3775  0.7812 -0.5646
   76SLPC  H18Y 6927   5.165   3.673   8.641 -0.0388  0.6516  1.5594
   76SLPC  H18Z 6928   5.060   3.747   8.757 -0.0330 -0.3350 -0.2106
   77SLPC     N 6929   1.090   3.572   6.210 -0.3166  0.1920 -1.3938
   77SLPC   C13 6930   0.996   3.487   6.141 -0.4092  0.1795  0.6344
   77SLPC  H13A 6931   0.923   3.540   6.083  0.2189  0.7185  0.3358
   77SLPC  H13B 6932   1.037   3.417   6.070  0.2887  0.5726  0.6491
   77SLPC  H13C 6933   0.939   3.428   6.212  0.3061  1.5756  2.4115
   77SLPC   C14 6934   1.125   3.692   6.123 -0.2908  0.2118 -0.2116
   77SLPC  H14A 6935   1.161   3.776   6.180  0.4049 -0.9951  1.1823
   77SLPC  H14B 6936   1.201   3.665   6.051 -1.1282 -0.0332 -1.0067
   77SLPC  H14C 6937   1.037   3.724   6.070  0.8282  0.4543 -1.9445
   77SLPC   C15 6938   1.211   3.492   6.240 -0.2626  0.6198 -0.4550
   77SLPC  H15A 6939   1.261   3.538   6.325 -1.0602 -0.3352  0.5430
   77SLPC  H15B 6940   1.184   3.389   6.259 -0.1688  0.8979  1.2771
   77SLPC  H15C 6941   1.283   3.498   6.160  0.4303 -1.0694  0.0427
   77SLPC   C12 6942   1.026   3.632   6.340 -0.0204  0.0339  0.5035
   77SLPC  H12A 6943   0.940   3.687   6.306 -0.2832 -0.4022  0.4667
   77SLPC  H12B 6944   1.093   3.702   6.388 -1.4362  1.2571  0.7186
   77SLPC   C11 6945   0.975   3.536   6.453  0.4109 -0.0796  0.2061
   77SLPC  H11A 6946   0.929   3.606   6.526  1.1180 -1.0881  1.6483
   77SLPC  H11B 6947   1.060   3.483   6.501  0.2878  1.2756  1.9472
   77SLPC     P 6948   0.896   3.293   6.430 -0.5023  0.0976 -0.1150
   77SLPC   O13 6949   0.770   3.216   6.409 -0.1653  0.2199  0.2622
   77SLPC   O14 6950   1.018   3.240   6.366  0.2093 -0.4134  0.2540
   77SLPC   O12 6951   0.870   3.450   6.407  0.7676  0.4165  0.5321
   77SLPC   O11 6952   0.927   3.295   6.585 -0.0919 -0.2956  0.8413
   77SLPC    C1 6953   0.816   3.321   6.674  0.3282 -0.5099  0.7998
   77SLPC    HA 6954   0.836   3.421   6.719  0.3823 -0.1606 -0.0056
   77SLPC    HB 6955   0.720   3.334   6.621  1.1565 -1.8435 -1.0817
   77SLPC    C2 6956   0.794   3.214   6.781 -0.5563  0.9814 -0.6737
   77SLPC    HS 6957   0.708   3.248   6.843 -1.1470 -0.7559 -0.4980
   77SLPC   O21 6958   0.921   3.205   6.850  0.2691 -0.5655  0.2931
   77SLPC   C21 6959   0.910   3.190   6.979 -0.5146 -0.5773  0.4563
   77SLPC   O22 6960   0.809   3.152   7.038  0.2256  0.8958  0.4292
   77SLPC   C22 6961   1.052   3.214   7.042 -0.0875 -0.2099  0.2335
   77SLPC   H2R 6962   1.125   3.151   6.987  0.9497 -0.0556  1.4151
   77SLPC   H2S 6963   1.077   3.322   7.038  1.7473 -0.6298  0.1552
   77SLPC    C3 6964   0.755   3.068   6.724 -0.7593 -0.4195  0.1067
   77SLPC    HX 6965   0.851   3.014   6.711 -1.1392 -0.9944 -0.3518
   77SLPC    HY 6966   0.708   3.080   6.624  0.1713 -2.6869 -0.6478
   77SLPC   O31 6967   0.682   2.981   6.815  0.6289  0.7645 -0.4279
   77SLPC   C31 6968   0.563   3.019   6.847 -0.0044 -0.5476  0.4138
   77SLPC   O32 6969   0.499   3.110   6.800 -0.4157 -0.3804 -0.7475
   77SLPC   C32 6970   0.509   2.926   6.959 -0.0252 -0.5963  0.2203
   77SLPC   H2X 6971   0.580   2.952   7.041  1.1986  1.6771 -1.5013
   77SLPC   H2Y 6972   0.512   2.820   6.926 -1.3950  0.1128 -2.3282
   77SLPC   C23 6973   1.067   3.158   7.187  0.2094  0.5847  0.2163
   77SLPC   H3R 6974   1.171   3.177   7.223 -0.0967  0.0482  1.4371
   77SLPC   H3S 6975   1.045   3.050   7.202  0.1035  0.5870  0.0682
   77SLPC   C24 6976   0.990   3.231   7.294  0.3695 -0.8923 -0.0856
   77SLPC   H4R 6977   0.887   3.257   7.260  1.1663 -0.2434 -2.1246
   77SLPC   H4S 6978   1.044   3.325   7.319 -0.2727 -0.9504  1.5317
   77SLPC   C25 6979   0.979   3.163   7.434 -0.1250 -0.1124 -0.5688
   77SLPC   H5R 6980   1.081   3.133   7.468 -0.7286 -1.0287  0.4477
   77SLPC   H5S 6981   0.917   3.073   7.415 -1.1308  0.6636 -0.9924
   77SLPC   C26 6982   0.905   3.244   7.540  0.3913 -0.0784 -0.0838
   77SLPC   H6R 6983   0.801   3.260   7.507  1.1413  4.6680 -0.4695
   77SLPC   H6S 6984   0.935   3.351   7.542 -0.1710  0.0656  0.7740
   77SLPC   C27 6985   0.891   3.181   7.676  0.5798 -0.2093 -0.6651
   77SLPC   H7R 6986   0.990   3.202   7.723  0.9576  1.0616 -2.0046
   77SLPC   H7S 6987   0.894   3.071   7.662 -0.1156 -0.3738  0.3918
   77SLPC   C28 6988   0.775   3.228   7.769 -0.0806 -0.1496 -0.0303
   77SLPC   H8R 6989   0.796   3.200   7.875  4.5873  0.4128 -0.7262
   77SLPC   H8S 6990   0.680   3.180   7.737  0.0483 -0.4764  0.0769
   77SLPC   C29 6991   0.752   3.377   7.761  0.6557  0.2895  0.2377
   77SLPC   H9R 6992   0.703   3.405   7.667 -3.1944 -0.8022  1.8293
   77SLPC  C210 6993   0.772   3.468   7.860  0.1167  0.1198 -0.8388
   77SLPC  H10R 6994   0.750   3.574   7.843  2.4231  0.4420 -2.0224
   77SLPC  C211 6995   0.825   3.444   7.999 -0.8573  0.7784  0.5720
   77SLPC  H11R 6996   0.933   3.419   7.998 -0.5262  2.2075  0.0490
   77SLPC  H11S 6997   0.782   3.348   8.035  1.4262 -0.9854 -1.2613
   77SLPC  C212 6998   0.796   3.569   8.085  0.5113  0.2195  0.2881
   77SLPC  H12R 6999   0.699   3.580   8.134  0.8023 -0.5370  1.0620
   77SLPC  C213 7000   0.871   3.675   8.115  0.1952  0.1611  0.0996
   77SLPC  H13R 7001   0.833   3.755   8.180  2.0412  1.8441 -0.8517
   77SLPC  C214 7002   1.013   3.694   8.070 -0.1108 -0.0399  0.3361
   77SLPC  H14R 7003   1.029   3.784   8.006  0.4237  1.0190  1.9261
   77SLPC  H14S 7004   1.051   3.614   8.004  0.5024  0.4697  0.0644
   77SLPC  C215 7005   1.109   3.713   8.190  0.3912 -0.1817 -0.6037
   77SLPC  H15R 7006   1.060   3.791   8.251 -1.8379  1.8334 -4.7269
   77SLPC  H15S 7007   1.203   3.762   8.156  1.4642 -1.0503  1.0462
   77SLPC  C216 7008   1.132   3.582   8.270  0.6062 -0.4841  0.6715
   77SLPC  H16R 7009   1.164   3.515   8.187 -0.2062  1.3765 -1.2060
   77SLPC  H16S 7010   1.037   3.542   8.311 -0.0137  0.4107  0.1338
   77SLPC  C217 7011   1.239   3.606   8.376 -0.4409  0.1382  1.2878
   77SLPC  H17R 7012   1.239   3.508   8.430 -0.1309  0.0047  1.0456
   77SLPC  H17S 7013   1.209   3.683   8.450 -1.3558  0.9908  0.0560
   77SLPC  C218 7014   1.380   3.640   8.323  0.5421 -0.0509  0.1366
   77SLPC  H18R 7015   1.395   3.563   8.245 -0.8939  0.2543 -0.4554
   77SLPC  H18S 7016   1.459   3.639   8.401  1.0761  0.3954 -0.3910
   77SLPC  H18T 7017   1.382   3.739   8.271 -1.4644  0.1523  0.3881
   77SLPC   C33 7018   0.365   2.964   6.996  0.2227 -0.4033  0.1233
   77SLPC   H3X 7019   0.300   2.931   6.912 -0.7823 -1.3339  1.2623
   77SLPC   H3Y 7020   0.346   3.074   6.996 -1.5910 -0.6943  1.0145
   77SLPC   C34 7021   0.319   2.916   7.130 -0.5960  0.5622  0.2113
   77SLPC   H4X 7022   0.220   2.959   7.154 -1.9262 -2.1168 -0.2902
   77SLPC   H4Y 7023   0.378   2.946   7.219 -0.2128  0.8276 -0.1324
   77SLPC   C35 7024   0.323   2.760   7.130 -0.6479 -1.1428  1.0199
   77SLPC   H5X 7025   0.422   2.714   7.108  0.5399  1.3758  0.9427
   77SLPC   H5Y 7026   0.248   2.729   7.053 -0.2422 -0.1400  0.2089
   77SLPC   C36 7027   0.287   2.698   7.265  0.5487  0.3891  0.4529
   77SLPC   H6X 7028   0.348   2.747   7.344  0.6374 -1.0656  1.3170
   77SLPC   H6Y 7029   0.314   2.590   7.273  0.6968  0.3948  0.0388
   77SLPC   C37 7030   0.139   2.725   7.305  0.1928  0.1873  0.2732
   77SLPC   H7X 7031   0.077   2.688   7.220  0.5955  2.0160 -0.8375
   77SLPC   H7Y 7032   0.116   2.833   7.311  2.2367  0.6986 -0.7022
   77SLPC   C38 7033   0.080   2.656   7.426 -0.4465  0.4189 -0.0819
   77SLPC   H8X 7034   0.120   2.554   7.441  0.4554  0.7088 -0.4474
   77SLPC   H8Y 7035  -0.030   2.640   7.425 -0.2269 -1.0695 -0.4249
   77SLPC   C39 7036   0.109   2.734   7.559  0.8294  0.7329 -0.4610
   77SLPC   H9X 7037   0.093   2.842   7.539 -0.3039  0.7238  0.4246
   77SLPC   H9Y 7038   0.218   2.723   7.580  1.1049  0.6885 -1.8133
   77SLPC  C310 7039   0.023   2.689   7.678  0.7579  0.1357  0.3144
   77SLPC  H10X 7040   0.046   2.584   7.704 -0.7550  0.3654  2.7845
   77SLPC  H10Y 7041  -0.084   2.692   7.647  1.4100  1.9304 -1.9826
   77SLPC  C311 7042   0.037   2.784   7.800 -0.1985 -0.4326 -0.3805
   77SLPC  H11X 7043   0.007   2.886   7.766 -0.2402 -0.4687 -0.4545
   77SLPC  H11Y 7044   0.140   2.778   7.839 -1.5132 -1.5332  3.1723
   77SLPC  C312 7045  -0.055   2.752   7.921  0.0532 -0.2320 -0.7754
   77SLPC  H12X 7046  -0.034   2.648   7.953 -1.1449 -0.3279 -0.2545
   77SLPC  H12Y 7047  -0.162   2.746   7.890  0.3628 -0.4475 -1.8219
   77SLPC  C313 7048  -0.028   2.854   8.036 -0.2831 -0.2710 -0.1360
   77SLPC  H13X 7049  -0.045   2.958   8.003  2.1752  0.8451  1.9563
   77SLPC  H13Y 7050   0.078   2.855   8.069 -1.1274 -0.0481  2.6720
   77SLPC  C314 7051  -0.111   2.835   8.170  0.2328  0.2721  0.6870
   77SLPC  H14X 7052  -0.081   2.735   8.207 -1.5982 -0.3730  0.4726
   77SLPC  H14Y 7053  -0.220   2.814   8.161  0.4114 -1.1280  1.7344
   77SLPC  C315 7054  -0.095   2.940   8.283  0.1905  0.8937  0.8003
   77SLPC  H15X 7055  -0.186   3.004   8.279 -1.6435 -1.6685 -1.2902
   77SLPC  H15Y 7056  -0.009   3.003   8.253  0.5094 -0.2692 -0.8329
   77SLPC  C316 7057  -0.064   2.900   8.424 -0.1221  0.7485 -0.9800
   77SLPC  H16X 7058   0.032   2.844   8.424 -0.9616 -0.7572  1.2637
   77SLPC  H16Y 7059  -0.138   2.828   8.464  0.7278 -0.2388 -1.1586
   77SLPC  C317 7060  -0.046   3.023   8.520  1.0983  0.0796 -0.8252
   77SLPC  H17X 7061  -0.102   2.995   8.611  1.4254  2.2336  0.0777
   77SLPC  H17Y 7062  -0.105   3.103   8.470  0.1061 -0.6697 -0.8617
   77SLPC  C318 7063   0.091   3.083   8.556  0.2058  1.1005  0.1413
   77SLPC  H18X 7064   0.070   3.170   8.622 -1.9375  0.7018  0.0233
   77SLPC  H18Y 7065   0.145   3.111   8.463  1.4857  0.0008  0.5473
   77SLPC  H18Z 7066   0.147   3.010   8.618 -1.5206 -1.3196 -1.0765
   78SLPC     N 7067   3.176   4.156   6.093 -0.8458  0.0991  1.1595
   78SLPC   C13 7068   3.043   4.216   6.076 -0.3975 -0.2374 -0.3905
   78SLPC  H13A 7069   3.029   4.267   5.982 -2.0516 -2.8619 -1.6137
   78SLPC  H13B 7070   2.967   4.142   6.095 -1.5503  1.2217  0.8174
   78SLPC  H13C 7071   3.019   4.291   6.149 -0.8390 -0.8736  0.1279
   78SLPC   C14 7072   3.276   4.262   6.064  0.7800  0.4881 -0.4808
   78SLPC  H14A 7073   3.368   4.244   6.118  1.6845  2.2531 -1.3967
   78SLPC  H14B 7074   3.298   4.257   5.958 -0.2063 -0.9922 -0.6309
   78SLPC  H14C 7075   3.245   4.356   6.106 -0.7676 -0.5527  0.7428
   78SLPC   C15 7076   3.193   4.048   5.996  0.3368  0.0369  1.2576
   78SLPC  H15A 7077   3.165   4.076   5.896  0.1478 -2.8576  0.4491
   78SLPC  H15B 7078   3.293   4.008   5.991  0.1618 -0.3043  0.2599
   78SLPC  H15C 7079   3.130   3.965   6.023  1.2940 -1.0825  0.1246
   78SLPC   C12 7080   3.204   4.102   6.233  0.1696 -0.1822  0.0788
   78SLPC  H12A 7081   3.198   4.184   6.303 -1.9307 -0.3857  0.1915
   78SLPC  H12B 7082   3.306   4.068   6.235  0.7407  1.5162  0.2762
   78SLPC   C11 7083   3.105   3.996   6.276  0.2329  0.7374  0.1270
   78SLPC  H11A 7084   2.999   4.022   6.260 -0.0148 -0.4980 -0.2816
   78SLPC  H11B 7085   3.111   3.989   6.386  1.3250 -2.4946 -0.0703
   78SLPC     P 7086   3.241   3.778   6.247  0.0429  0.2467 -0.3175
   78SLPC   O13 7087   3.225   3.646   6.173 -0.8621 -0.3405 -0.5459
   78SLPC   O14 7088   3.368   3.856   6.232  0.8224  0.4436 -0.2466
   78SLPC   O12 7089   3.118   3.873   6.208  0.3033 -0.4022  0.2649
   78SLPC   O11 7090   3.220   3.755   6.403  0.2702  0.0624 -0.5582
   78SLPC    C1 7091   3.318   3.686   6.477 -0.0096  0.0839  0.0579
   78SLPC    HA 7092   3.326   3.582   6.439  1.1774 -0.7752  2.5510
   78SLPC    HB 7093   3.414   3.740   6.464 -0.0296 -0.1183 -0.9443
   78SLPC    C2 7094   3.266   3.690   6.617 -0.3025 -0.0115 -0.3331
   78SLPC    HS 7095   3.218   3.788   6.637 -0.6930 -0.4811  1.0307
   78SLPC   O21 7096   3.368   3.652   6.711  0.0374  0.0593 -0.1766
   78SLPC   C21 7097   3.366   3.721   6.822 -0.3508 -0.9257  0.0995
   78SLPC   O22 7098   3.290   3.813   6.853  0.5141  0.7657  0.3963
   78SLPC   C22 7099   3.477   3.670   6.908 -0.3959 -0.3708 -0.1164
   78SLPC   H2R 7100   3.476   3.560   6.926 -0.3160 -0.5847 -1.4342
   78SLPC   H2S 7101   3.567   3.688   6.845 -0.7337 -0.3356 -0.5896
   78SLPC    C3 7102   3.141   3.594   6.631 -0.4107 -1.1701  0.5712
   78SLPC    HX 7103   3.171   3.492   6.598 -0.3960 -0.9825 -0.0111
   78SLPC    HY 7104   3.058   3.633   6.568  0.0429  2.5279  2.1627
   78SLPC   O31 7105   3.088   3.589   6.770 -0.7764  0.3067  0.0519
   78SLPC   C31 7106   2.978   3.662   6.801  0.1544  0.2203  0.0943
   78SLPC   O32 7107   2.907   3.723   6.720 -0.5139 -0.5013 -0.3630
   78SLPC   C32 7108   2.930   3.654   6.939  0.0982  0.2717 -0.1858
   78SLPC   H2X 7109   3.006   3.697   7.008  0.3136  0.6753 -0.6681
   78SLPC   H2Y 7110   2.924   3.544   6.952  0.8097  0.3928  1.3106
   78SLPC   C23 7111   3.497   3.752   7.044 -0.6292  0.1907 -0.0166
   78SLPC   H3R 7112   3.512   3.860   7.024 -2.0957 -0.0121 -2.5785
   78SLPC   H3S 7113   3.587   3.712   7.094 -0.4165 -0.1124 -0.6335
   78SLPC   C24 7114   3.390   3.723   7.147  0.6444  0.7805  0.3158
   78SLPC   H4R 7115   3.396   3.614   7.169 -2.0715  0.6633  0.6720
   78SLPC   H4S 7116   3.290   3.749   7.105  0.1525 -2.5437 -0.7432
   78SLPC   C25 7117   3.413   3.802   7.280 -0.2755 -0.2802  0.0837
   78SLPC   H5R 7118   3.322   3.778   7.340 -0.6386 -0.9145 -0.7069
   78SLPC   H5S 7119   3.431   3.910   7.263 -1.5904 -0.3470 -1.8522
   78SLPC   C26 7120   3.521   3.752   7.381 -0.2039 -0.1096  0.0729
   78SLPC   H6R 7121   3.623   3.776   7.347 -0.7278  0.5236 -1.0889
   78SLPC   H6S 7122   3.516   3.642   7.391 -1.9405  0.1057  1.9914
   78SLPC   C27 7123   3.507   3.810   7.521  0.0460  0.2037 -0.2000
   78SLPC   H7R 7124   3.427   3.753   7.573  0.4693  1.3568  1.7638
   78SLPC   H7S 7125   3.488   3.919   7.529 -0.5189  0.1544 -0.8063
   78SLPC   C28 7126   3.642   3.794   7.600  0.1281 -0.2304 -0.5858
   78SLPC   H8R 7127   3.642   3.870   7.681  1.9732 -1.7237  0.8531
   78SLPC   H8S 7128   3.732   3.815   7.539 -0.7730 -1.4611 -2.3700
   78SLPC   C29 7129   3.653   3.657   7.664  0.3998  0.0915 -0.4386
   78SLPC   H9R 7130   3.614   3.576   7.601 -2.9274  2.3202 -1.3586
   78SLPC  C210 7131   3.719   3.627   7.776 -0.5378 -0.5478 -0.0520
   78SLPC  H10R 7132   3.706   3.530   7.827 -1.3992 -0.4837 -0.1332
   78SLPC  C211 7133   3.800   3.726   7.856 -0.0078 -0.2426 -0.5126
   78SLPC  H11R 7134   3.773   3.721   7.964  2.7770  1.6870  0.3247
   78SLPC  H11S 7135   3.771   3.832   7.843 -2.5138 -0.6189  1.5671
   78SLPC  C212 7136   3.948   3.719   7.831 -0.0270 -0.4485 -0.3142
   78SLPC  H12R 7137   3.979   3.715   7.725 -2.2503  1.7496 -1.0724
   78SLPC  C213 7138   4.043   3.721   7.931  0.4093  0.8929 -0.2292
   78SLPC  H13R 7139   4.144   3.716   7.888  1.9625  2.3122  3.0860
   78SLPC  C214 7140   4.027   3.718   8.078 -0.2744  0.3999  0.1162
   78SLPC  H14R 7141   4.107   3.658   8.127 -0.2047 -1.4958 -2.2029
   78SLPC  H14S 7142   3.941   3.654   8.105 -0.7937  1.2671  0.5131
   78SLPC  C215 7143   4.021   3.856   8.149  0.2645  0.7387  0.2268
   78SLPC  H15R 7144   3.940   3.920   8.108 -0.3361  0.6250  1.2122
   78SLPC  H15S 7145   4.117   3.910   8.135  1.8216 -2.1658 -0.7889
   78SLPC  C216 7146   3.971   3.838   8.291 -0.5588  0.3296 -0.1549
   78SLPC  H16R 7147   3.872   3.789   8.291  0.5193 -1.9334 -1.1098
   78SLPC  H16S 7148   3.944   3.934   8.338 -0.4826 -0.8927  2.4486
   78SLPC  C217 7149   4.064   3.752   8.374  0.1368 -0.1291  0.2798
   78SLPC  H17R 7150   4.167   3.786   8.354  0.0373 -2.0385 -4.0326
   78SLPC  H17S 7151   4.065   3.643   8.353 -0.0077  0.2678 -1.8370
   78SLPC  C218 7152   4.042   3.766   8.529 -0.2369 -0.8229 -0.0529
   78SLPC  H18R 7153   4.138   3.734   8.575  0.4960 -0.2843 -1.1838
   78SLPC  H18S 7154   3.955   3.711   8.570  1.0610  0.2700  4.4992
   78SLPC  H18T 7155   4.034   3.875   8.548 -0.5882 -0.6256 -1.3260
   78SLPC   C33 7156   2.782   3.700   6.971 -0.7525 -0.2280 -0.4511
   78SLPC   H3X 7157   2.715   3.687   6.883  0.8209  0.4091 -1.7674
   78SLPC   H3Y 7158   2.774   3.808   6.997 -1.1401 -0.9109  2.4434
   78SLPC   C34 7159   2.710   3.622   7.085  0.6812  0.3892 -0.5268
   78SLPC   H4X 7160   2.697   3.514   7.059 -0.1826  0.0315  1.3249
   78SLPC   H4Y 7161   2.607   3.663   7.082  0.2066 -0.8153 -1.2064
   78SLPC   C35 7162   2.782   3.631   7.217 -0.5142 -0.7445  0.5526
   78SLPC   H5X 7163   2.754   3.730   7.257  0.3216 -0.1734 -0.2344
   78SLPC   H5Y 7164   2.892   3.613   7.213 -0.4595 -0.3462  0.2214
   78SLPC   C36 7165   2.733   3.524   7.316  0.7034  0.8646 -0.1019
   78SLPC   H6X 7166   2.736   3.417   7.285  0.2036  0.8217  0.0011
   78SLPC   H6Y 7167   2.627   3.551   7.332  0.1993 -0.4285 -1.1903
   78SLPC   C37 7168   2.806   3.541   7.452  0.4914 -0.0084 -0.4474
   78SLPC   H7X 7169   2.810   3.649   7.477 -0.1886  0.7447 -3.3416
   78SLPC   H7Y 7170   2.911   3.510   7.434  0.3989 -0.3146 -0.4649
   78SLPC   C38 7171   2.740   3.477   7.574 -0.0451 -0.1792  1.2884
   78SLPC   H8X 7172   2.734   3.368   7.552  0.9844  0.3725 -1.9559
   78SLPC   H8Y 7173   2.631   3.498   7.581 -0.5753 -2.2696 -0.0642
   78SLPC   C39 7174   2.822   3.500   7.705 -0.3939 -0.8075 -1.0099
   78SLPC   H9X 7175   2.795   3.600   7.745  0.8418 -1.0149  0.3957
   78SLPC   H9Y 7176   2.928   3.508   7.674 -0.1699 -0.8846 -0.2678
   78SLPC  C310 7177   2.795   3.399   7.817 -0.3159  0.2389 -0.5309
   78SLPC  H10X 7178   2.893   3.379   7.865 -0.9700  1.4838  1.3644
   78SLPC  H10Y 7179   2.767   3.302   7.770  0.9048 -0.0928 -0.5931
   78SLPC  C311 7180   2.695   3.444   7.918  0.1829 -0.5218  0.3621
   78SLPC  H11X 7181   2.593   3.453   7.876  0.4924 -2.7045 -0.9421
   78SLPC  H11Y 7182   2.732   3.539   7.963  1.3009 -0.8193  0.0838
   78SLPC  C312 7183   2.690   3.344   8.036  0.1419 -0.9503  0.1987
   78SLPC  H12X 7184   2.787   3.353   8.089 -0.6443  0.0864  1.4670
   78SLPC  H12Y 7185   2.692   3.243   7.989  1.1581  0.2722 -2.5072
   78SLPC  C313 7186   2.566   3.367   8.130 -0.3884 -0.0808  0.5838
   78SLPC  H13X 7187   2.472   3.349   8.073  0.4578 -0.1573 -0.8239
   78SLPC  H13Y 7188   2.560   3.474   8.158  0.4327 -0.2049  1.2550
   78SLPC  C314 7189   2.568   3.278   8.252  0.0284  0.3877  0.0318
   78SLPC  H14X 7190   2.661   3.304   8.306 -0.7651  1.6881  0.8177
   78SLPC  H14Y 7191   2.575   3.171   8.222 -0.6035  0.5804 -0.8438
   78SLPC  C315 7192   2.446   3.292   8.339 -0.6157  0.2813  0.0274
   78SLPC  H15X 7193   2.360   3.245   8.287  0.5830  1.3337 -2.9907
   78SLPC  H15Y 7194   2.429   3.400   8.359  2.8754  0.5247  2.1326
   78SLPC  C316 7195   2.468   3.231   8.484  0.5708  0.2637 -0.0416
   78SLPC  H16X 7196   2.373   3.244   8.539  0.1943 -0.9841 -0.3804
   78SLPC  H16Y 7197   2.560   3.269   8.533  1.4390 -0.3915 -1.1469
   78SLPC  C317 7198   2.479   3.076   8.473  0.2778  0.5804  0.3375
   78SLPC  H17X 7199   2.429   3.036   8.382  1.8729  0.6866 -0.6005
   78SLPC  H17Y 7200   2.426   3.026   8.557 -0.2947  2.4827  1.1196
   78SLPC  C318 7201   2.627   3.037   8.474 -0.4928  0.3892  0.4133
   78SLPC  H18X 7202   2.642   2.929   8.451  0.3773  0.3640  1.0688
   78SLPC  H18Y 7203   2.662   3.062   8.576 -0.8987 -0.7162  0.8312
   78SLPC  H18Z 7204   2.681   3.092   8.393  0.1730 -1.6680 -0.5992
   79SLPC     N 7205   6.175   5.705   6.154  0.1232 -0.0292 -0.3126
   79SLPC   C13 7206   6.033   5.694   6.190  0.1128  0.0811  0.4489
   79SLPC  H13A 7207   5.980   5.701   6.096  0.4740  0.8235  0.2968
   79SLPC  H13B 7208   6.006   5.599   6.235  2.2726 -0.4969  0.6007
   79SLPC  H13C 7209   6.010   5.777   6.255  0.1361 -0.6291  1.3793
   79SLPC   C14 7210   6.201   5.815   6.064 -0.3011 -0.0723 -0.0037
   79SLPC  H14A 7211   6.294   5.807   6.010  0.9398  0.6657  1.9906
   79SLPC  H14B 7212   6.129   5.808   5.984  0.3674 -0.0425 -0.6168
   79SLPC  H14C 7213   6.192   5.913   6.109  2.4742 -0.3359  1.2192
   79SLPC   C15 7214   6.215   5.582   6.072 -0.5986 -0.2280 -0.0602
   79SLPC  H15A 7215   6.136   5.567   5.999 -3.0233  0.2389  2.3855
   79SLPC  H15B 7216   6.313   5.594   6.028 -0.4731  1.7432  0.7404
   79SLPC  H15C 7217   6.229   5.496   6.136 -0.1158 -0.1025  0.0017
   79SLPC   C12 7218   6.257   5.701   6.281 -0.0829 -0.5598  0.4156
   79SLPC  H12A 7219   6.359   5.691   6.249 -0.2030  0.0838 -0.1767
   79SLPC  H12B 7220   6.234   5.612   6.338 -3.0001  0.9257  1.6841
   79SLPC   C11 7221   6.245   5.831   6.364 -0.0487 -0.2939  0.0068
   79SLPC  H11A 7222   6.282   5.814   6.468 -0.1476 -0.4727  0.0126
   79SLPC  H11B 7223   6.139   5.852   6.389  0.7125  0.3613  2.9216
   79SLPC     P 7224   6.466   5.939   6.305 -0.5984 -0.1517 -0.3292
   79SLPC   O13 7225   6.514   5.802   6.275  0.1519  0.2174  0.4079
   79SLPC   O14 7226   6.511   6.046   6.207 -0.8965  0.1830  0.1076
   79SLPC   O12 7227   6.312   5.941   6.294  0.4609 -0.4669  0.0930
   79SLPC   O11 7228   6.487   5.989   6.452  0.4675  0.2475 -0.3779
   79SLPC    C1 7229   6.435   6.121   6.487 -0.7082  0.4148  0.5834
   79SLPC    HA 7230   6.496   6.202   6.441  0.1301 -1.7014 -2.2476
   79SLPC    HB 7231   6.328   6.135   6.461 -0.6586  0.2978  0.3152
   79SLPC    C2 7232   6.424   6.132   6.637  0.0081 -0.0294 -0.8439
   79SLPC    HS 7233   6.386   6.232   6.665 -1.5310 -1.3319  1.9200
   79SLPC   O21 7234   6.549   6.104   6.693 -0.9351  0.1521 -0.0058
   79SLPC   C21 7235   6.649   6.189   6.685 -0.0429  0.0604 -0.1751
   79SLPC   O22 7236   6.645   6.301   6.640  0.3031 -0.3320 -0.5410
   79SLPC   C22 7237   6.776   6.124   6.741  0.1018 -0.1419  0.0231
   79SLPC   H2R 7238   6.800   6.042   6.671 -1.4003 -0.7005  0.1312
   79SLPC   H2S 7239   6.856   6.200   6.754  1.2463 -1.5613  1.6299
   79SLPC    C3 7240   6.306   6.047   6.685 -0.2792  0.0160  0.4911
   79SLPC    HX 7241   6.299   5.958   6.618 -3.6719  0.4255  0.2289
   79SLPC    HY 7242   6.211   6.097   6.659  0.0443  0.2037 -0.3483
   79SLPC   O31 7243   6.310   6.017   6.823 -0.1881 -0.7311 -0.5651
   79SLPC   C31 7244   6.359   5.895   6.859  0.4126  0.0417 -1.2218
   79SLPC   O32 7245   6.384   5.804   6.783 -0.2842  1.0163  0.0100
   79SLPC   C32 7246   6.380   5.902   7.011 -0.1854 -0.0319 -0.4473
   79SLPC   H2X 7247   6.281   5.910   7.061 -0.0067 -1.3161  0.1491
   79SLPC   H2Y 7248   6.446   5.989   7.028 -1.2159  0.6809 -0.0637
   79SLPC   C23 7249   6.774   6.045   6.878 -0.2947  0.3100  0.2747
   79SLPC   H3R 7250   6.708   5.957   6.862  2.1983 -0.9757 -3.9193
   79SLPC   H3S 7251   6.710   6.110   6.941 -0.7533 -0.2565  0.4005
   79SLPC   C24 7252   6.909   6.007   6.932  0.0288  0.2529 -0.2583
   79SLPC   H4R 7253   6.969   6.098   6.955  0.3875 -0.1723  0.5133
   79SLPC   H4S 7254   6.963   5.942   6.859  1.5701  1.1394  0.0600
   79SLPC   C25 7255   6.908   5.924   7.067 -0.3145  0.4386  0.8401
   79SLPC   H5R 7256   6.827   5.958   7.135 -0.7703 -1.8611  1.5038
   79SLPC   H5S 7257   7.004   5.929   7.121 -0.5350 -0.0890  1.2852
   79SLPC   C26 7258   6.893   5.773   7.047 -0.2363  0.2154  0.3824
   79SLPC   H6R 7259   6.978   5.736   6.986 -1.6879  1.2663 -2.3668
   79SLPC   H6S 7260   6.794   5.742   7.007  0.0156 -2.2830  1.5751
   79SLPC   C27 7261   6.908   5.704   7.186 -0.3755 -0.1099 -0.2390
   79SLPC   H7R 7262   6.838   5.765   7.247  1.5668  2.6935 -0.6939
   79SLPC   H7S 7263   7.009   5.720   7.229 -1.6598  0.6412  2.6027
   79SLPC   C28 7264   6.876   5.555   7.182  0.0576  0.1650 -0.7651
   79SLPC   H8R 7265   6.946   5.490   7.126  0.8326  1.3299 -1.1867
   79SLPC   H8S 7266   6.773   5.550   7.142 -1.3623  1.6663  2.5305
   79SLPC   C29 7267   6.868   5.503   7.327  0.5496 -0.0990 -0.9326
   79SLPC   H9R 7268   6.878   5.581   7.404  0.8309  0.2024 -1.2689
   79SLPC  C210 7269   6.843   5.383   7.366 -0.3984  0.1013 -0.0249
   79SLPC  H10R 7270   6.833   5.363   7.474 -0.4268 -1.8923 -0.3783
   79SLPC  C211 7271   6.823   5.258   7.283 -0.2013  0.5195 -0.3089
   79SLPC  H11R 7272   6.821   5.289   7.176 -1.6012 -0.7786 -0.6730
   79SLPC  H11S 7273   6.720   5.217   7.293  0.1456 -0.0502  1.0209
   79SLPC  C212 7274   6.920   5.144   7.304  0.0547 -1.1006 -0.4602
   79SLPC  H12R 7275   7.018   5.155   7.257  0.6713 -0.4845  0.9369
   79SLPC  C213 7276   6.907   5.025   7.370 -0.6297  0.4769 -0.0514
   79SLPC  H13R 7277   6.982   4.944   7.366  0.3168  1.3062  0.6434
   79SLPC  C214 7278   6.785   4.978   7.447 -0.7812 -0.2593 -0.5403
   79SLPC  H14R 7279   6.768   4.872   7.418 -2.7154  0.1588 -0.9971
   79SLPC  H14S 7280   6.691   5.031   7.422 -1.3046 -0.8651  0.0979
   79SLPC  C215 7281   6.794   4.984   7.601  0.0485  0.9011  0.1113
   79SLPC  H15R 7282   6.860   4.905   7.642 -0.7016  0.5479  0.6406
   79SLPC  H15S 7283   6.696   4.963   7.648  0.3934  0.0535  0.4743
   79SLPC  C216 7284   6.848   5.116   7.666  0.7210  0.6821  0.4649
   79SLPC  H16R 7285   6.777   5.195   7.637  0.5303 -0.4813 -2.3418
   79SLPC  H16S 7286   6.944   5.151   7.623  0.4191  0.1687 -0.6307
   79SLPC  C217 7287   6.878   5.098   7.819  0.1980 -0.9351  0.4226
   79SLPC  H17R 7288   6.936   5.006   7.839  0.5872 -0.2906  2.4055
   79SLPC  H17S 7289   6.783   5.096   7.878 -0.0660  0.9002  0.1046
   79SLPC  C218 7290   6.957   5.215   7.889  0.2929 -0.5326 -0.3543
   79SLPC  H18R 7291   7.002   5.181   7.985  0.0042 -0.8327 -0.3243
   79SLPC  H18S 7292   6.883   5.296   7.905  0.4087 -0.7038  1.1711
   79SLPC  H18T 7293   7.042   5.246   7.825  1.1000  1.3142  1.5452
   79SLPC   C33 7294   6.452   5.775   7.048 -1.4369  1.6523  0.0301
   79SLPC   H3X 7295   6.540   5.769   6.980 -0.9538 -0.3651  0.7700
   79SLPC   H3Y 7296   6.379   5.692   7.040 -0.4388  0.7960 -0.3986
   79SLPC   C34 7297   6.510   5.773   7.194 -0.5528 -0.1698 -0.2413
   79SLPC   H4X 7298   6.579   5.854   7.225 -0.2289 -0.7264  0.4940
   79SLPC   H4Y 7299   6.581   5.688   7.184 -1.6609 -1.0941 -0.4142
   79SLPC   C35 7300   6.413   5.735   7.310  0.0102  0.4357  0.0189
   79SLPC   H5X 7301   6.377   5.630   7.301 -0.9005  0.7433  0.0625
   79SLPC   H5Y 7302   6.326   5.801   7.290  0.6207  0.5076 -2.5685
   79SLPC   C36 7303   6.476   5.755   7.449  0.1454  0.2607  0.8719
   79SLPC   H6X 7304   6.395   5.792   7.514 -0.8380 -1.3007  0.5538
   79SLPC   H6Y 7305   6.557   5.832   7.445  3.1791 -2.8674 -0.9824
   79SLPC   C37 7306   6.538   5.633   7.512  0.1289  0.1501 -0.1693
   79SLPC   H7X 7307   6.617   5.589   7.447  1.0669  2.1579 -0.4331
   79SLPC   H7Y 7308   6.460   5.556   7.530 -0.1099  1.1369  3.3120
   79SLPC   C38 7309   6.616   5.670   7.633 -0.7818  0.0555 -1.2829
   79SLPC   H8X 7310   6.553   5.747   7.684  0.1275 -1.5637  2.4782
   79SLPC   H8Y 7311   6.716   5.707   7.602 -0.6194  0.2533 -0.5449
   79SLPC   C39 7312   6.634   5.554   7.729 -0.0182 -0.7180  0.6935
   79SLPC   H9X 7313   6.692   5.470   7.686  0.7317 -0.0117  0.3185
   79SLPC   H9Y 7314   6.530   5.518   7.744 -0.8612  0.8321 -1.1886
   79SLPC  C310 7315   6.683   5.605   7.866  0.0780  0.0084 -0.0182
   79SLPC  H10X 7316   6.666   5.529   7.946  3.4599  0.1394  0.8804
   79SLPC  H10Y 7317   6.615   5.690   7.891 -1.1258 -0.0561 -2.8961
   79SLPC  C311 7318   6.835   5.648   7.867  0.1762 -0.2264  0.6411
   79SLPC  H11X 7319   6.856   5.709   7.777 -0.2467 -0.0716  0.6427
   79SLPC  H11Y 7320   6.901   5.561   7.851 -0.4315 -0.9086  1.7461
   79SLPC  C312 7321   6.876   5.715   7.996  0.0644  0.3415  0.3049
   79SLPC  H12X 7322   6.861   5.642   8.078  0.1427 -1.0274 -0.8755
   79SLPC  H12Y 7323   6.814   5.806   8.011 -0.3692  0.3678 -1.5337
   79SLPC  C313 7324   7.019   5.772   7.993 -0.1057 -0.2524  0.1530
   79SLPC  H13X 7325   7.031   5.829   7.899 -1.2616 -1.2159 -0.5931
   79SLPC  H13Y 7326   7.097   5.693   7.983  0.2305 -0.1604  1.9426
   79SLPC  C314 7327   7.054   5.854   8.120 -0.1633 -0.5014  0.7304
   79SLPC  H14X 7328   7.038   5.793   8.212 -0.3434  1.4618  2.0173
   79SLPC  H14Y 7329   6.991   5.943   8.137  0.2171 -0.2677  0.9245
   79SLPC  C315 7330   7.190   5.919   8.123  0.6659 -0.5051  0.3431
   79SLPC  H15X 7331   7.203   5.974   8.219 -1.0995 -0.7394  0.7351
   79SLPC  H15Y 7332   7.199   5.998   8.045  0.1643 -0.8817 -0.0948
   79SLPC  C316 7333   7.316   5.825   8.128 -0.7069  0.1860  0.0089
   79SLPC  H16X 7334   7.311   5.766   8.034  3.2826  0.6593 -0.6217
   79SLPC  H16Y 7335   7.308   5.757   8.215  0.4629  0.3071  0.2287
   79SLPC  C317 7336   7.448   5.908   8.128 -0.0739 -0.2939 -1.2932
   79SLPC  H17X 7337   7.490   5.940   8.226  3.6713  0.9533 -3.2108
   79SLPC  H17Y 7338   7.430   5.999   8.067  0.7944 -0.1298 -1.3212
   79SLPC  C318 7339   7.556   5.822   8.060  0.0093  0.0757 -0.0956
   79SLPC  H18X 7340   7.600   5.746   8.129 -2.1493  0.4551  1.7565
   79SLPC  H18Y 7341   7.638   5.889   8.028  0.8369 -0.6375  0.4921
   79SLPC  H18Z 7342   7.523   5.775   7.965 -0.2875  1.8715 -0.8923
   80SLPC     N 7343   1.838   2.868   6.192  0.4188 -0.5983 -0.3688
   80SLPC   C13 7344   1.856   2.754   6.285  0.2053 -0.1836  0.3018
   80SLPC  H13A 7345   1.943   2.769   6.348  0.4874  0.3941 -0.2225
   80SLPC  H13B 7346   1.772   2.729   6.349  0.6057  2.3793  1.8692
   80SLPC  H13C 7347   1.883   2.666   6.228  1.6291  0.8929 -0.7081
   80SLPC   C14 7348   1.738   2.838   6.090  0.4456  0.0987  0.3449
   80SLPC  H14A 7349   1.770   2.751   6.034  0.5794  0.6787 -0.4936
   80SLPC  H14B 7350   1.647   2.807   6.138 -1.5044  3.4694 -1.0314
   80SLPC  H14C 7351   1.732   2.918   6.018 -0.8859  1.1500  1.6129
   80SLPC   C15 7352   1.971   2.875   6.121 -0.5179  0.2414 -0.5072
   80SLPC  H15A 7353   2.046   2.885   6.199 -1.2056 -1.1151  0.3452
   80SLPC  H15B 7354   1.991   2.781   6.071 -0.3105 -0.9685  1.7576
   80SLPC  H15C 7355   1.966   2.958   6.053 -1.4936  1.6871  1.3006
   80SLPC   C12 7356   1.811   2.993   6.267 -1.1587  0.2520 -0.4430
   80SLPC  H12A 7357   1.890   3.014   6.337 -2.1464  3.6871 -0.2569
   80SLPC  H12B 7358   1.722   2.977   6.326 -2.3968  1.9324 -1.7692
   80SLPC   C11 7359   1.777   3.126   6.187  0.1614  0.6249  0.2188
   80SLPC  H11A 7360   1.711   3.096   6.103 -0.8428 -1.5850  1.7446
   80SLPC  H11B 7361   1.868   3.173   6.144  0.0787  1.4427  0.9255
   80SLPC     P 7362   1.773   3.325   6.357 -0.4805  0.0589  0.2006
   80SLPC   O13 7363   1.919   3.291   6.350  0.1455 -0.1892 -0.3136
   80SLPC   O14 7364   1.732   3.460   6.304  0.0819 -0.6097 -0.5435
   80SLPC   O12 7365   1.695   3.214   6.273 -0.1354 -0.3485  0.6183
   80SLPC   O11 7366   1.721   3.311   6.507  0.7305  0.1265  0.5120
   80SLPC    C1 7367   1.635   3.220   6.562 -0.4540 -0.6314 -0.3176
   80SLPC    HA 7368   1.565   3.180   6.486 -0.3231 -0.5690 -0.4688
   80SLPC    HB 7369   1.694   3.138   6.609  0.9043  0.8913  0.6817
   80SLPC    C2 7370   1.557   3.283   6.681 -0.5945  0.4043  0.6315
   80SLPC    HS 7371   1.508   3.372   6.636 -0.2976  0.8979  1.2670
   80SLPC   O21 7372   1.655   3.322   6.781  0.3896 -0.4368  0.7290
   80SLPC   C21 7373   1.611   3.411   6.866  0.1644  0.1073 -0.4514
   80SLPC   O22 7374   1.507   3.475   6.850 -0.2185  0.1266  0.3981
   80SLPC   C22 7375   1.703   3.424   6.988 -1.1463 -0.1695 -0.0094
   80SLPC   H2R 7376   1.802   3.393   6.950 -0.8213 -0.3553  0.9584
   80SLPC   H2S 7377   1.696   3.533   7.012 -0.3353 -0.1334  0.0660
   80SLPC    C3 7378   1.466   3.184   6.748 -0.2094 -0.3945  0.1318
   80SLPC    HX 7379   1.388   3.161   6.673 -1.4172  1.5867  0.7469
   80SLPC    HY 7380   1.410   3.237   6.828 -0.0860  1.0567 -0.7346
   80SLPC   O31 7381   1.539   3.071   6.800  0.7216 -0.0426  0.2213
   80SLPC   C31 7382   1.466   2.984   6.867  0.3922  0.0589  0.2807
   80SLPC   O32 7383   1.343   2.964   6.850  0.7486 -0.6218 -0.1127
   80SLPC   C32 7384   1.562   2.913   6.955 -1.0066 -0.0398  0.0592
   80SLPC   H2X 7385   1.630   2.992   6.992  0.6142 -1.0664 -0.6358
   80SLPC   H2Y 7386   1.631   2.858   6.887 -0.9765  2.8794 -2.3702
   80SLPC   C23 7387   1.666   3.334   7.112  0.7036 -0.6797  0.8652
   80SLPC   H3R 7388   1.750   3.338   7.184  0.8658 -0.6329  0.6736
   80SLPC   H3S 7389   1.655   3.229   7.077  0.4400 -0.1835 -0.5656
   80SLPC   C24 7390   1.538   3.378   7.183  0.2133  0.1023 -0.2010
   80SLPC   H4R 7391   1.444   3.368   7.123  0.5267 -0.2509 -0.6378
   80SLPC   H4S 7392   1.558   3.486   7.201  0.3276  0.3550 -1.7608
   80SLPC   C25 7393   1.521   3.310   7.313  0.3691 -0.1802  0.3238
   80SLPC   H5R 7394   1.618   3.335   7.361  2.0690 -1.4532 -2.4141
   80SLPC   H5S 7395   1.513   3.200   7.305  0.4659 -0.1655  0.0506
   80SLPC   C26 7396   1.402   3.371   7.386  0.2052  0.6438  0.1098
   80SLPC   H6R 7397   1.311   3.326   7.340  2.1258 -1.7411 -1.4892
   80SLPC   H6S 7398   1.393   3.481   7.376  1.3199  0.6452 -1.0364
   80SLPC   C27 7399   1.407   3.341   7.537  0.0671 -0.0192 -0.0966
   80SLPC   H7R 7400   1.499   3.368   7.592 -0.8928  0.0247  1.5135
   80SLPC   H7S 7401   1.392   3.231   7.539 -0.4870 -0.0510 -3.2473
   80SLPC   C28 7402   1.288   3.401   7.614  0.2223 -0.4077 -0.1917
   80SLPC   H8R 7403   1.201   3.376   7.550  1.2592  0.1165 -1.8674
   80SLPC   H8S 7404   1.294   3.512   7.614 -0.3623 -0.3724 -0.6612
   80SLPC   C29 7405   1.283   3.355   7.760  0.3581  0.0244 -0.2465
   80SLPC   H9R 7406   1.251   3.253   7.784 -0.6933  0.4098  0.0262
   80SLPC  C210 7407   1.315   3.429   7.868  0.3792 -0.3326 -0.2083
   80SLPC  H10R 7408   1.303   3.389   7.970 -0.4928  0.6998  0.1067
   80SLPC  C211 7409   1.359   3.567   7.868 -0.2151 -0.5146  0.5350
   80SLPC  H11R 7410   1.297   3.625   7.939  2.5149  1.8452  1.0694
   80SLPC  H11S 7411   1.329   3.611   7.771  0.1814 -0.2256  0.5400
   80SLPC  C212 7412   1.507   3.583   7.910  0.2198 -0.3747 -0.3197
   80SLPC  H12R 7413   1.527   3.540   8.009  0.2104 -1.6386 -0.8508
   80SLPC  C213 7414   1.616   3.617   7.834 -0.0738 -0.3833  0.6473
   80SLPC  H13R 7415   1.713   3.610   7.885  0.5132 -0.3156 -0.4499
   80SLPC  C214 7416   1.626   3.668   7.691  0.1294  0.0391 -0.0625
   80SLPC  H14R 7417   1.677   3.767   7.696 -0.1116  0.1917 -0.5566
   80SLPC  H14S 7418   1.529   3.674   7.637 -0.4568  0.8200  1.0467
   80SLPC  C215 7419   1.720   3.588   7.604  0.3175 -0.3463 -0.1690
   80SLPC  H15R 7420   1.686   3.483   7.603 -2.0251  0.3769 -0.2527
   80SLPC  H15S 7421   1.816   3.591   7.660 -0.1818  0.3983  0.6630
   80SLPC  C216 7422   1.740   3.638   7.462  0.5457  0.6243 -0.2439
   80SLPC  H16R 7423   1.740   3.749   7.451  1.4196  0.6054 -0.4792
   80SLPC  H16S 7424   1.648   3.605   7.409  0.1971  2.0467 -0.5572
   80SLPC  C217 7425   1.868   3.575   7.406 -0.0884  0.0653 -0.5429
   80SLPC  H17R 7426   1.866   3.464   7.410  0.1333  0.0911  0.5016
   80SLPC  H17S 7427   1.961   3.604   7.459 -0.5251  1.7556 -0.6767
   80SLPC  C218 7428   1.880   3.614   7.265  0.2341 -0.5224  0.6893
   80SLPC  H18R 7429   1.987   3.625   7.235 -0.5236 -1.5247 -2.5396
   80SLPC  H18S 7430   1.833   3.712   7.243  0.2822 -1.2329 -2.8953
   80SLPC  H18T 7431   1.840   3.542   7.192  1.8326  1.6202 -2.4280
   80SLPC   C33 7432   1.495   2.830   7.071  0.3113  0.2621  0.0328
   80SLPC   H3X 7433   1.569   2.770   7.127  0.7607  1.7638  1.0951
   80SLPC   H3Y 7434   1.414   2.764   7.035 -0.1783  0.8335  0.0658
   80SLPC   C34 7435   1.444   2.925   7.181  0.7062 -0.6335 -0.9179
   80SLPC   H4X 7436   1.365   2.989   7.134  0.7827 -0.8260 -1.3124
   80SLPC   H4Y 7437   1.529   2.985   7.219 -0.6021  0.7325 -0.0703
   80SLPC   C35 7438   1.380   2.846   7.295  0.3140  0.9455  0.2765
   80SLPC   H5X 7439   1.467   2.798   7.345 -1.4030 -3.8584 -1.0610
   80SLPC   H5Y 7440   1.308   2.765   7.273  1.3174  0.5690 -1.6667
   80SLPC   C36 7441   1.309   2.941   7.394 -0.0936 -0.5404  0.5950
   80SLPC   H6X 7442   1.208   2.965   7.354  0.4845  0.1170 -0.5162
   80SLPC   H6Y 7443   1.381   3.025   7.402 -1.1965  0.4795  0.0232
   80SLPC   C37 7444   1.298   2.881   7.535 -0.3688  0.9187 -0.0151
   80SLPC   H7X 7445   1.398   2.861   7.579 -1.4558  2.1060  3.1256
   80SLPC   H7Y 7446   1.238   2.788   7.528  0.4634  0.3860 -0.2430
   80SLPC   C38 7447   1.216   2.967   7.640  0.0454  0.0536 -0.2401
   80SLPC   H8X 7448   1.116   2.970   7.592 -0.5329 -1.2719  0.8371
   80SLPC   H8Y 7449   1.271   3.062   7.623  1.4252 -0.7847 -0.5138
   80SLPC   C39 7450   1.206   2.910   7.782 -0.1959  0.5717  0.4956
   80SLPC   H9X 7451   1.308   2.920   7.827 -0.2614 -1.1550  1.0627
   80SLPC   H9Y 7452   1.199   2.800   7.770  0.2129  0.6681 -0.6989
   80SLPC  C310 7453   1.098   2.968   7.877  0.1514 -0.2265  0.0554
   80SLPC  H10X 7454   1.084   2.882   7.947 -0.0928  1.2721  1.8841
   80SLPC  H10Y 7455   1.010   2.982   7.811  0.9755  1.3364 -0.7247
   80SLPC  C311 7456   1.124   3.087   7.963  0.1679  0.6060  0.5725
   80SLPC  H11X 7457   1.091   3.186   7.925  2.5469  0.6956 -1.3969
   80SLPC  H11Y 7458   1.235   3.100   7.967  0.5881 -1.8025 -1.8720
   80SLPC  C312 7459   1.063   3.076   8.104  0.5012  0.1654 -0.7291
   80SLPC  H12X 7460   1.107   2.979   8.138 -0.1252  0.1526  0.0458
   80SLPC  H12Y 7461   0.952   3.072   8.108  0.4658  1.6136  0.1482
   80SLPC  C313 7462   1.105   3.187   8.202  0.1128  0.0922 -0.0415
   80SLPC  H13X 7463   1.041   3.275   8.178 -1.3985 -1.3909 -1.6948
   80SLPC  H13Y 7464   1.211   3.212   8.182 -0.0027  0.0416 -0.7451
   80SLPC  C314 7465   1.084   3.139   8.348 -0.2157 -0.4873  0.3070
   80SLPC  H14X 7466   1.146   3.050   8.372  0.1390  0.3502  2.5951
   80SLPC  H14Y 7467   0.980   3.100   8.359  0.0990 -1.9881 -1.6667
   80SLPC  C315 7468   1.099   3.263   8.439  0.4646 -0.7246  0.7183
   80SLPC  H15X 7469   1.031   3.342   8.399 -0.1587 -0.4966  2.1885
   80SLPC  H15Y 7470   1.207   3.289   8.435  0.2145  0.3964  1.0773
   80SLPC  C316 7471   1.064   3.228   8.584 -0.1073 -0.4203  0.3396
   80SLPC  H16X 7472   1.095   3.127   8.619 -0.1541 -1.1616 -1.6816
   80SLPC  H16Y 7473   0.953   3.230   8.589 -0.1899 -1.7701 -0.6090
   80SLPC  C317 7474   1.121   3.337   8.674 -0.0446  0.4514  0.4602
   80SLPC  H17X 7475   1.098   3.438   8.634  1.1330  0.7230  0.4738
   80SLPC  H17Y 7476   1.231   3.330   8.670 -0.0129  1.3829 -0.6706
   80SLPC  C318 7477   1.082   3.309   8.818 -0.5203  0.0643 -0.0605
   80SLPC  H18X 7478   1.098   3.398   8.882 -0.0382  0.7333 -1.0826
   80SLPC  H18Y 7479   1.158   3.241   8.862 -0.9724  1.0731  2.3048
   80SLPC  H18Z 7480   0.979   3.268   8.825  0.4038 -2.5613 -1.0256
   81SAPS     N 7481   2.254   4.963  11.074  0.1187  0.2249 -0.3911
   81SAPS   HN1 7482   2.268   4.983  11.175  0.3771  0.3348 -0.4475
   81SAPS   HN2 7483   2.157   4.983  11.042  0.3377  0.0262 -1.1952
   81SAPS   HN3 7484   2.273   4.866  11.043 -3.0853 -0.7638  0.6165
   81SAPS   C12 7485   2.356   5.051  11.018 -0.0003 -0.4750  0.4239
   81SAPS  H12A 7486   2.346   5.145  11.070 -1.9268 -0.8204  0.7084
   81SAPS   C13 7487   2.496   4.986  11.033 -0.3991 -0.2629  0.6311
   81SAPS  O13A 7488   2.506   4.894  11.124  0.4343 -0.5804 -0.0782
   81SAPS  O13B 7489   2.597   5.050  11.000 -0.3423 -0.4958  0.4043
   81SAPS   C11 7490   2.318   5.072  10.866 -0.0439 -0.4317  0.3867
   81SAPS  H11A 7491   2.308   4.971  10.821  2.8416 -0.2153 -0.8914
   81SAPS  H11B 7492   2.409   5.118  10.822 -1.9141  1.4633 -1.6271
   81SAPS     P 7493   2.212   5.316  10.832  0.0086  0.2767 -0.0345
   81SAPS   O13 7494   2.114   5.370  10.927 -0.7618  0.1074 -0.5725
   81SAPS   O14 7495   2.355   5.361  10.847 -0.0016 -0.0389 -0.3485
   81SAPS   O12 7496   2.206   5.158  10.852  0.5603  0.2181 -0.2301
   81SAPS   O11 7497   2.168   5.328  10.680  0.1041 -0.0904  0.1157
   81SAPS    C1 7498   2.038   5.278  10.639 -0.5865 -0.2689 -0.3412
   81SAPS    HA 7499   1.964   5.299  10.719  0.0788  0.9413 -0.0308
   81SAPS    HB 7500   2.005   5.336  10.550  0.5454  1.7891  0.5496
   81SAPS    C2 7501   2.042   5.130  10.595 -0.1612 -0.2604 -0.0755
   81SAPS    HS 7502   2.052   5.075  10.691 -2.3501  0.4787  0.5945
   81SAPS   O21 7503   2.159   5.107  10.515  0.1342  0.4129  0.0311
   81SAPS   C21 7504   2.198   4.987  10.501  0.1723  0.2687  0.2591
   81SAPS   O22 7505   2.149   4.890  10.549 -0.3996  0.2054  0.3883
   81SAPS   C22 7506   2.316   4.970  10.400  0.1816  0.0126  0.2836
   81SAPS   H2R 7507   2.268   4.931  10.308  0.5644 -0.5602  0.3228
   81SAPS   H2S 7508   2.354   5.073  10.390 -2.9446  1.1381 -0.4803
   81SAPS    C3 7509   1.905   5.090  10.529 -0.5798  0.2136 -0.2008
   81SAPS    HX 7510   1.823   5.112  10.601  1.0297  0.2063  1.6766
   81SAPS    HY 7511   1.906   4.980  10.517 -0.0546  0.3763 -1.6977
   81SAPS   O31 7512   1.867   5.160  10.407 -0.9078  0.7326  0.8160
   81SAPS   C31 7513   1.942   5.134  10.296 -0.5670 -0.0295 -0.3881
   81SAPS   O32 7514   2.035   5.057  10.292  0.1608 -0.1654 -0.3059
   81SAPS   C32 7515   1.892   5.240  10.190 -0.2867 -0.0680  0.1288
   81SAPS   H2X 7516   1.875   5.339  10.239  3.1862  1.2629 -1.1719
   81SAPS   H2Y 7517   1.788   5.206  10.176  0.3381 -1.5563 -1.0197
   81SAPS   C23 7518   2.434   4.885  10.443  0.7926 -0.8582  0.0393
   81SAPS   H3R 7519   2.394   4.808  10.512  1.1906  0.6229  1.9743
   81SAPS   H3S 7520   2.501   4.929  10.520 -1.6283 -0.5875  2.0573
   81SAPS   C24 7521   2.503   4.815  10.322 -0.2585 -0.9676 -0.3785
   81SAPS   H4R 7522   2.607   4.786  10.345 -0.9850 -2.3599  1.2760
   81SAPS   H4S 7523   2.489   4.886  10.238  0.1473  1.2776  1.4288
   81SAPS   C25 7524   2.433   4.681  10.290 -0.2486 -0.2293  0.6227
   81SAPS   H5R 7525   2.413   4.615  10.376  2.0454 -0.5488  0.9445
   81SAPS   C26 7526   2.377   4.640  10.168  0.1531 -0.0752 -0.5830
   81SAPS   H6R 7527   2.331   4.541  10.154 -1.6092  0.7268 -0.5029
   81SAPS   C27 7528   2.382   4.717  10.036 -0.6278  0.5401 -0.6140
   81SAPS   H7R 7529   2.433   4.652   9.962 -0.4002 -1.6060  1.3538
   81SAPS   H7S 7530   2.441   4.811  10.037 -0.6218  0.5498 -1.4076
   81SAPS   C28 7531   2.247   4.753   9.987 -0.9087  0.0960 -0.1641
   81SAPS   H8R 7532   2.169   4.722  10.059 -0.2980 -1.2260 -0.0657
   81SAPS   C29 7533   2.220   4.804   9.866 -0.1608 -0.2824  0.3171
   81SAPS   H9R 7534   2.115   4.831   9.846 -0.2668 -2.1134 -1.7791
   81SAPS  C210 7535   2.317   4.845   9.756  0.4323 -0.0397 -0.1906
   81SAPS  H10R 7536   2.423   4.837   9.788 -0.3103 -0.0535  2.4123
   81SAPS  H10S 7537   2.302   4.955   9.744  0.8531 -0.1387 -1.6936
   81SAPS  C211 7538   2.288   4.760   9.637  0.5985 -0.2550 -0.1460
   81SAPS  H11R 7539   2.332   4.659   9.636 -1.6689 -1.2734 -0.7405
   81SAPS  C212 7540   2.217   4.807   9.527  0.0868  0.0762 -0.4708
   81SAPS  H12R 7541   2.208   4.737   9.443 -2.0011 -1.6086  1.0627
   81SAPS  C213 7542   2.161   4.943   9.515 -0.0869 -0.5918  0.4434
   81SAPS  H13R 7543   2.131   4.979   9.616 -1.7341  0.8508 -0.5376
   81SAPS  H13S 7544   2.073   4.941   9.447  1.0771  2.3427 -1.2430
   81SAPS  C214 7545   2.263   5.039   9.461  0.7353 -0.2084 -0.5683
   81SAPS  H14R 7546   2.317   5.079   9.548  0.8310  0.2610 -0.8412
   81SAPS  C215 7547   2.266   5.101   9.345  0.5017  0.6531  0.4234
   81SAPS  H15R 7548   2.345   5.167   9.308 -1.6544  2.3765 -1.2064
   81SAPS  C216 7549   2.170   5.067   9.235 -0.1928  0.0935  0.1802
   81SAPS  H16R 7550   2.066   5.071   9.274  0.0870 -3.0136  1.4141
   81SAPS  H16S 7551   2.183   4.962   9.199  0.6200  0.5806 -0.9730
   81SAPS  C217 7552   2.183   5.175   9.127  0.2381 -0.0955  0.1918
   81SAPS  H17R 7553   2.179   5.278   9.170  2.5247 -0.4392  1.3103
   81SAPS  H17S 7554   2.092   5.162   9.065  0.9118  3.3437 -1.6267
   81SAPS  C218 7555   2.306   5.166   9.036 -0.0218 -0.0688  0.7332
   81SAPS  H18R 7556   2.345   5.064   9.053 -1.6627 -0.5369  1.7423
   81SAPS  H18S 7557   2.384   5.232   9.081  0.2899 -0.2656  0.4812
   81SAPS  C219 7558   2.276   5.202   8.888 -0.2199  0.1249  0.0593
   81SAPS  H19R 7559   2.222   5.112   8.851 -0.2322 -0.3479  1.1967
   81SAPS  H19S 7560   2.376   5.217   8.843 -0.2421 -0.3366 -0.1534
   81SAPS  C220 7561   2.203   5.333   8.857 -0.5651 -0.2540  0.5081
   81SAPS  H20R 7562   2.119   5.351   8.928 -1.3516  0.3188 -0.5613
   81SAPS  H20S 7563   2.167   5.331   8.752  1.3521 -0.1422 -0.1591
   81SAPS  H20T 7564   2.270   5.418   8.880 -1.1128  0.0937  0.8528
   81SAPS   C33 7565   1.981   5.252  10.067  0.1027  0.6806  0.1452
   81SAPS   H3X 7566   2.006   5.147  10.042  1.4493  1.6007 -2.6093
   81SAPS   H3Y 7567   2.075   5.305  10.091  1.0804 -1.7553  1.8321
   81SAPS   C34 7568   1.921   5.331   9.945  0.2797 -0.2281 -0.0366
   81SAPS   H4X 7569   1.919   5.440   9.966 -1.2799 -0.6560  2.2403
   81SAPS   H4Y 7570   1.817   5.294   9.951  0.3978 -0.3475  1.8266
   81SAPS   C35 7571   1.977   5.292   9.811 -0.1138  0.4856 -0.7530
   81SAPS   H5X 7572   1.994   5.182   9.817 -0.5557  0.4358 -0.3313
   81SAPS   H5Y 7573   2.078   5.333   9.794 -1.0113  3.3316  0.5042
   81SAPS   C36 7574   1.892   5.329   9.696 -0.0930 -0.8996 -0.7704
   81SAPS   H6X 7575   1.894   5.437   9.671 -2.3930 -0.0379  2.4692
   81SAPS   H6Y 7576   1.788   5.301   9.722 -0.3423  0.3060 -0.4360
   81SAPS   C37 7577   1.925   5.248   9.565  0.5633 -0.1842 -0.7824
   81SAPS   H7X 7578   1.923   5.139   9.590 -1.8274 -0.5622 -2.4392
   81SAPS   H7Y 7579   2.019   5.281   9.518  0.2701  1.7723 -0.0170
   81SAPS   C38 7580   1.815   5.242   9.449 -0.3277  0.1480 -0.0208
   81SAPS   H8X 7581   1.713   5.235   9.493 -0.6904 -2.3990 -1.1724
   81SAPS   H8Y 7582   1.834   5.150   9.389 -1.1931 -0.2441  0.3018
   81SAPS   C39 7583   1.815   5.362   9.356  0.0223  0.0789  0.2724
   81SAPS   H9X 7584   1.921   5.395   9.357 -0.2775  1.0779  2.5419
   81SAPS   H9Y 7585   1.760   5.449   9.399 -0.8856 -0.3879  0.0653
   81SAPS  C310 7586   1.758   5.326   9.226  0.4945 -0.2559 -0.5400
   81SAPS  H10X 7587   1.655   5.285   9.229  1.2344 -1.9897  3.4177
   81SAPS  H10Y 7588   1.820   5.254   9.168  1.8676  0.3850  0.1058
   81SAPS  C311 7589   1.754   5.444   9.125  0.4080  0.0885 -0.2192
   81SAPS  H11X 7590   1.862   5.470   9.120  0.5402 -0.8961 -3.4523
   81SAPS  H11Y 7591   1.692   5.527   9.166 -1.0140 -0.4043 -1.3273
   81SAPS  C312 7592   1.697   5.396   8.995  0.0365 -0.0769  0.6415
   81SAPS  H12X 7593   1.621   5.463   8.949 -1.0416 -2.0994 -0.6056
   81SAPS  H12Y 7594   1.646   5.299   9.012  0.5259 -0.1998  1.4320
   81SAPS  C313 7595   1.797   5.372   8.881  0.6349 -0.7224 -0.2030
   81SAPS  H13X 7596   1.876   5.301   8.914  1.0968  0.4003  1.1775
   81SAPS  H13Y 7597   1.854   5.464   8.857  0.9994 -1.4662 -2.2133
   81SAPS  C314 7598   1.734   5.321   8.755 -0.3484  0.4439  0.1006
   81SAPS  H14X 7599   1.677   5.229   8.780 -0.1907  0.4304  0.4163
   81SAPS  H14Y 7600   1.815   5.289   8.687 -1.7681  0.9738 -1.8960
   81SAPS  C315 7601   1.661   5.419   8.659  0.2775  0.2089  0.4403
   81SAPS  H15X 7602   1.711   5.518   8.654  0.5148  0.0908  0.4421
   81SAPS  H15Y 7603   1.553   5.432   8.683 -1.1093 -3.1395 -3.2919
   81SAPS  C316 7604   1.666   5.380   8.508 -0.3433  0.8956 -1.0480
   81SAPS  H16X 7605   1.630   5.275   8.505  1.6887  0.0974  1.3579
   81SAPS  H16Y 7606   1.773   5.382   8.478  0.1384 -3.7554  0.0631
   81SAPS  C317 7607   1.572   5.470   8.430 -0.0402  0.3094 -0.0067
   81SAPS  H17X 7608   1.608   5.575   8.439  0.5501  0.2232 -1.1457
   81SAPS  H17Y 7609   1.472   5.455   8.476  0.4504  2.3829  1.7984
   81SAPS  C318 7610   1.577   5.431   8.284 -0.0337  0.6645 -0.3580
   81SAPS  H18X 7611   1.534   5.329   8.272 -0.4240  0.5426  1.8432
   81SAPS  H18Y 7612   1.683   5.433   8.253 -0.0683  0.1236 -0.5171
   81SAPS  H18Z 7613   1.529   5.501   8.212 -0.4389  0.2592 -0.4866
   82SAPS     N 7614   1.318   4.450  11.221  0.2239  0.3275 -0.0853
   82SAPS   HN1 7615   1.409   4.416  11.257 -0.9384 -1.0320  1.6082
   82SAPS   HN2 7616   1.323   4.527  11.150 -1.7356 -0.3528 -1.0028
   82SAPS   HN3 7617   1.251   4.484  11.293 -0.3407 -0.1474 -0.3804
   82SAPS   C12 7618   1.247   4.338  11.141 -0.1889  0.5685 -0.5879
   82SAPS  H12A 7619   1.314   4.276  11.084  0.5552 -0.5843  1.4562
   82SAPS   C13 7620   1.169   4.241  11.233 -0.1095  0.5730 -0.1068
   82SAPS  O13A 7621   1.151   4.279  11.352 -0.0763 -0.2095 -0.4758
   82SAPS  O13B 7622   1.110   4.143  11.180 -0.0798 -0.2156  0.0343
   82SAPS   C11 7623   1.146   4.397  11.047  0.1761 -0.5068 -0.1032
   82SAPS  H11A 7624   1.073   4.451  11.111  0.4537  1.2367 -1.2120
   82SAPS  H11B 7625   1.091   4.316  10.994  0.6908 -0.8138 -0.1655
   82SAPS     P 7626   1.112   4.594  10.868  0.3616  0.0972 -0.1866
   82SAPS   O13 7627   0.999   4.640  10.950 -0.0019  0.3528 -0.3276
   82SAPS   O14 7628   1.190   4.701  10.806 -0.0151 -0.4139  0.4735
   82SAPS   O12 7629   1.207   4.497  10.960 -0.1601 -0.1577  0.0296
   82SAPS   O11 7630   1.058   4.496  10.757  0.4172  0.5088  0.4106
   82SAPS    C1 7631   1.144   4.396  10.700 -0.3562  0.0276 -0.0608
   82SAPS    HA 7632   1.252   4.406  10.724 -0.2098 -0.2790 -0.5881
   82SAPS    HB 7633   1.125   4.295  10.744  0.1465  0.4298  1.1045
   82SAPS    C2 7634   1.127   4.399  10.547 -0.3892 -0.3820  0.2733
   82SAPS    HS 7635   1.149   4.502  10.512 -0.8207 -0.4073 -0.0697
   82SAPS   O21 7636   0.990   4.357  10.520  0.1792  0.1204  0.0259
   82SAPS   C21 7637   0.918   4.436  10.445 -0.3149 -0.4467 -0.3392
   82SAPS   O22 7638   0.954   4.544  10.400 -0.2489  0.3085  0.8374
   82SAPS   C22 7639   0.793   4.357  10.402  0.2339  0.2777 -0.5041
   82SAPS   H2R 7640   0.830   4.288  10.323 -0.3949 -1.6563  0.8569
   82SAPS   H2S 7641   0.773   4.291  10.489  3.0111 -0.3485 -0.2968
   82SAPS    C3 7642   1.229   4.300  10.482  0.6261  0.5263  0.0483
   82SAPS    HX 7643   1.197   4.200  10.519 -0.4422  0.7894 -0.1358
   82SAPS    HY 7644   1.330   4.328  10.517  0.9587  0.3001 -0.7285
   82SAPS   O31 7645   1.227   4.305  10.340  0.4324 -1.1439 -0.4913
   82SAPS   C31 7646   1.323   4.231  10.285  0.3234  0.4978  0.2838
   82SAPS   O32 7647   1.414   4.182  10.348  0.5698  0.2666 -0.6288
   82SAPS   C32 7648   1.288   4.193  10.139 -0.4732 -0.1874 -0.6944
   82SAPS   H2X 7649   1.233   4.097  10.149  1.7379 -1.3521  0.7393
   82SAPS   H2Y 7650   1.387   4.166  10.095  2.0231  0.9978  3.8537
   82SAPS   C23 7651   0.682   4.444  10.352 -0.5835 -0.0098  0.0587
   82SAPS   H3R 7652   0.672   4.534  10.417 -1.0026 -0.4075  0.5421
   82SAPS   H3S 7653   0.590   4.382  10.352  0.4677 -1.6105 -1.0533
   82SAPS   C24 7654   0.705   4.489  10.203  0.4897 -0.3526 -0.4956
   82SAPS   H4R 7655   0.808   4.528  10.189  0.0083  0.4754 -1.9474
   82SAPS   H4S 7656   0.630   4.570  10.187  0.5464 -0.4734 -1.3942
   82SAPS   C25 7657   0.662   4.388  10.099 -0.1143 -0.4313  0.2922
   82SAPS   H5R 7658   0.658   4.283  10.132 -1.7794 -0.0299  1.4836
   82SAPS   C26 7659   0.654   4.420   9.967 -0.0925  0.1793 -1.0211
   82SAPS   H6R 7660   0.596   4.352   9.903 -0.5714  0.4950 -0.9234
   82SAPS   C27 7661   0.691   4.551   9.909 -0.0442 -0.1794 -0.0124
   82SAPS   H7R 7662   0.779   4.595   9.960  0.8195 -1.5716 -0.2922
   82SAPS   H7S 7663   0.614   4.630   9.927  2.3769  2.5204 -1.2546
   82SAPS   C28 7664   0.714   4.550   9.761 -0.0165  0.1544 -0.3989
   82SAPS   H8R 7665   0.650   4.495   9.691  0.4982  1.0273 -1.5655
   82SAPS   C29 7666   0.825   4.603   9.698  0.1027  0.2535  0.1509
   82SAPS   H9R 7667   0.826   4.596   9.588 -1.1953  0.4629  0.1213
   82SAPS  C210 7668   0.933   4.685   9.763 -0.1956  0.2180 -0.5864
   82SAPS  H10R 7669   0.954   4.636   9.860  0.5516  0.8861 -0.4118
   82SAPS  H10S 7670   0.880   4.781   9.778  1.2552  1.2919 -2.1414
   82SAPS  C211 7671   1.056   4.713   9.677  0.2047  0.3748 -0.3111
   82SAPS  H11R 7672   1.105   4.618   9.650  1.1084  0.7762 -0.1120
   82SAPS  C212 7673   1.097   4.840   9.642 -0.3991  0.0516  0.1456
   82SAPS  H12R 7674   1.186   4.851   9.580  0.2572 -0.6611  0.9550
   82SAPS  C213 7675   1.032   4.970   9.684 -0.0278  0.5408 -0.8906
   82SAPS  H13R 7676   1.106   5.050   9.666 -0.6618  1.1165 -0.9449
   82SAPS  H13S 7677   1.027   4.973   9.795 -1.9687 -0.6202 -0.9099
   82SAPS  C214 7678   0.903   5.014   9.620 -0.3284 -0.2757 -0.3242
   82SAPS  H14R 7679   0.817   5.025   9.689 -2.1187 -3.6474 -1.8985
   82SAPS  C215 7680   0.878   5.036   9.491  0.2156  0.0225 -0.5038
   82SAPS  H15R 7681   0.776   5.067   9.465 -0.4735  0.1238  2.1586
   82SAPS  C216 7682   0.981   5.015   9.383 -0.6185 -0.2069  0.5449
   82SAPS  H16R 7683   0.948   4.922   9.332 -2.1798  1.4086 -1.4837
   82SAPS  H16S 7684   1.085   4.982   9.404 -1.7996 -4.0476  0.7749
   82SAPS  C217 7685   0.971   5.135   9.285 -0.5118  0.0180  0.2353
   82SAPS  H17R 7686   1.068   5.154   9.235  0.1556 -1.3083  1.0152
   82SAPS  H17S 7687   0.957   5.228   9.344 -0.1881 -1.6329  2.9563
   82SAPS  C218 7688   0.859   5.124   9.175 -0.0113 -0.2406 -0.9631
   82SAPS  H18R 7689   0.766   5.149   9.231  1.7625  1.6943  1.2635
   82SAPS  H18S 7690   0.853   5.018   9.145  0.1694 -0.1005 -1.5104
   82SAPS  C219 7691   0.893   5.234   9.072 -0.0638 -0.2908  0.5311
   82SAPS  H19R 7692   0.996   5.222   9.033 -0.2735  2.3220 -0.9884
   82SAPS  H19S 7693   0.902   5.335   9.117  1.6518 -0.8002  1.3522
   82SAPS  C220 7694   0.785   5.235   8.959  0.5105 -0.0223 -0.5129
   82SAPS  H20R 7695   0.750   5.134   8.932  0.0721  0.2881 -1.1314
   82SAPS  H20S 7696   0.811   5.286   8.863  0.5442  3.2126  1.1549
   82SAPS  H20T 7697   0.702   5.299   8.996  1.8062  0.1653  2.1605
   82SAPS   C33 7698   1.199   4.296  10.067 -0.1817 -0.4208  0.1325
   82SAPS   H3X 7699   1.248   4.396  10.073 -1.1481  0.0727 -0.1794
   82SAPS   H3Y 7700   1.101   4.302  10.118 -0.0131 -1.6202  0.6088
   82SAPS   C34 7701   1.167   4.261   9.922  0.4546 -0.0290  0.5067
   82SAPS   H4X 7702   1.105   4.169   9.919  0.4915 -0.0537  0.5007
   82SAPS   H4Y 7703   1.266   4.250   9.871 -0.0376  1.0168 -0.6790
   82SAPS   C35 7704   1.089   4.369   9.839 -0.5706  0.2545  0.6519
   82SAPS   H5X 7705   1.144   4.465   9.840 -1.3191  0.7013 -0.3663
   82SAPS   H5Y 7706   0.995   4.400   9.888 -0.4040 -0.2312  1.3012
   82SAPS   C36 7707   1.050   4.327   9.699 -0.4061 -0.4757  0.1443
   82SAPS   H6X 7708   0.985   4.407   9.658  0.1927  0.1242  0.3606
   82SAPS   H6Y 7709   1.003   4.227   9.692  1.9468 -1.5539 -0.9622
   82SAPS   C37 7710   1.168   4.325   9.609 -0.1192  0.0901  0.3969
   82SAPS   H7X 7711   1.253   4.284   9.669 -0.4285 -1.1402  0.0089
   82SAPS   H7Y 7712   1.193   4.427   9.573 -1.5886 -0.0474 -1.0932
   82SAPS   C38 7713   1.141   4.229   9.491  0.8443  0.2847 -0.1492
   82SAPS   H8X 7714   1.110   4.127   9.520 -2.3949  1.7247  1.7026
   82SAPS   H8Y 7715   1.232   4.232   9.427  1.4709  0.5995  0.7458
   82SAPS   C39 7716   1.037   4.292   9.398  0.1144  0.2427  0.1956
   82SAPS   H9X 7717   1.073   4.395   9.373 -0.3087  0.1056 -1.0394
   82SAPS   H9Y 7718   0.938   4.292   9.448 -0.0781  0.7978 -0.1771
   82SAPS  C310 7719   1.032   4.219   9.267  0.4458 -0.4003  0.8355
   82SAPS  H10X 7720   1.004   4.112   9.279  2.4335 -0.7980  2.0863
   82SAPS  H10Y 7721   1.138   4.214   9.234 -0.1557 -0.0961 -1.2280
   82SAPS  C311 7722   0.951   4.287   9.160  0.1677  0.6463 -0.5310
   82SAPS  H11X 7723   0.981   4.393   9.148 -1.0626  1.1794  0.9140
   82SAPS  H11Y 7724   0.848   4.286   9.201  0.4389  0.0680  0.1388
   82SAPS  C312 7725   0.944   4.223   9.014  0.5304 -0.0514 -0.8962
   82SAPS  H12X 7726   0.916   4.117   9.028  0.9107 -0.1059 -0.5323
   82SAPS  H12Y 7727   1.049   4.229   8.979  0.0619  2.0194 -2.0593
   82SAPS  C313 7728   0.861   4.299   8.913  0.1177  0.4433 -0.0281
   82SAPS  H13X 7729   0.908   4.310   8.812  0.1139 -1.0372 -0.2074
   82SAPS  H13Y 7730   0.854   4.402   8.952 -0.2169  0.6687 -0.6747
   82SAPS  C314 7731   0.728   4.235   8.891  0.1874  0.3869 -0.3409
   82SAPS  H14X 7732   0.691   4.212   8.993 -2.3621 -2.1745 -1.7681
   82SAPS  H14Y 7733   0.753   4.132   8.859 -0.7713 -0.1634  0.6262
   82SAPS  C315 7734   0.642   4.317   8.797 -0.1157  0.6613 -0.1152
   82SAPS  H15X 7735   0.704   4.339   8.708  0.1217 -2.4871 -0.8031
   82SAPS  H15Y 7736   0.628   4.413   8.851 -2.8992  1.0271 -1.3824
   82SAPS  C316 7737   0.509   4.258   8.759 -0.2033 -0.3054  0.4732
   82SAPS  H16X 7738   0.446   4.265   8.850 -2.8162 -0.6783 -1.2318
   82SAPS  H16Y 7739   0.506   4.151   8.728  0.9040 -0.2937  0.3204
   82SAPS  C317 7740   0.438   4.346   8.655  0.3218  0.4229  0.0569
   82SAPS  H17X 7741   0.476   4.336   8.551  0.3335  1.9446 -0.1019
   82SAPS  H17Y 7742   0.458   4.452   8.680  2.9921 -0.4681  1.9078
   82SAPS  C318 7743   0.293   4.309   8.650 -0.3406 -0.0553  0.2142
   82SAPS  H18X 7744   0.234   4.378   8.586  1.1233  1.3005  0.3017
   82SAPS  H18Y 7745   0.239   4.313   8.747  0.2778 -0.3657  0.5748
   82SAPS  H18Z 7746   0.271   4.210   8.605  0.5310  0.6154 -1.7177
   83SAPS     N 7747   2.352   5.907  11.406  0.0216  0.5924 -0.2944
   83SAPS   HN1 7748   2.344   5.917  11.509 -2.2139  0.9888 -0.4957
   83SAPS   HN2 7749   2.327   5.817  11.359 -0.1122  0.4306  0.0791
   83SAPS   HN3 7750   2.453   5.920  11.382  1.0998 -1.8546  2.5871
   83SAPS   C12 7751   2.260   6.013  11.349  0.3067 -0.4445 -0.2088
   83SAPS  H12A 7752   2.158   5.977  11.353 -0.5651  1.5618 -2.4631
   83SAPS   C13 7753   2.272   6.152  11.419 -0.0428 -0.0287  0.2624
   83SAPS  O13A 7754   2.352   6.159  11.513  0.0637  0.9821 -0.6391
   83SAPS  O13B 7755   2.197   6.249  11.387  0.5147 -0.9774  0.2240
   83SAPS   C11 7756   2.284   6.018  11.196 -0.1013  0.5878  0.2896
   83SAPS  H11A 7757   2.215   6.098  11.162 -0.6749 -0.3743 -0.8635
   83SAPS  H11B 7758   2.243   5.924  11.152 -0.8859 -0.1139  2.4899
   83SAPS     P 7759   2.460   5.998  11.017 -0.4557 -0.5083 -0.5771
   83SAPS   O13 7760   2.562   6.085  10.970 -0.1832 -0.2709  0.6904
   83SAPS   O14 7761   2.491   5.853  11.014  0.4046 -0.3519  0.5462
   83SAPS   O12 7762   2.416   6.037  11.162  0.5254 -0.7602  0.1536
   83SAPS   O11 7763   2.324   6.031  10.934  0.5746  0.5477 -0.9874
   83SAPS    C1 7764   2.282   6.165  10.914  0.7379  0.0079  0.0720
   83SAPS    HA 7765   2.184   6.167  10.967  0.4055 -3.1941 -0.2998
   83SAPS    HB 7766   2.348   6.242  10.960  0.5321 -0.3082  0.9026
   83SAPS    C2 7767   2.257   6.195  10.762 -0.2918  0.4918 -0.3816
   83SAPS    HS 7768   2.226   6.302  10.767 -2.1295 -0.0312 -0.1046
   83SAPS   O21 7769   2.149   6.113  10.712 -0.4579  0.0097  0.7252
   83SAPS   C21 7770   2.069   6.176  10.627  0.1765 -0.1483  0.3208
   83SAPS   O22 7771   2.067   6.294  10.600 -0.0487 -0.0550  0.3647
   83SAPS   C22 7772   1.961   6.076  10.569 -0.4162 -0.2396  0.6609
   83SAPS   H2R 7773   2.003   5.973  10.568  2.8171  1.0321 -0.9092
   83SAPS   H2S 7774   1.875   6.080  10.639 -0.7157  0.6510  0.2410
   83SAPS    C3 7775   2.387   6.175  10.686  0.2678  0.2858 -0.4776
   83SAPS    HX 7776   2.403   6.066  10.671  1.7305  0.2784  0.9781
   83SAPS    HY 7777   2.472   6.211  10.747 -0.5790 -0.0409  0.9182
   83SAPS   O31 7778   2.388   6.258  10.567 -0.1373  0.4344  0.0027
   83SAPS   C31 7779   2.355   6.193  10.460 -0.3869 -0.7320 -0.0641
   83SAPS   O32 7780   2.329   6.077  10.452 -0.1669 -0.3942 -0.1785
   83SAPS   C32 7781   2.357   6.302  10.346  0.1805 -0.0389 -0.1657
   83SAPS   H2X 7782   2.455   6.351  10.333 -1.2591  2.1270 -3.3861
   83SAPS   H2Y 7783   2.278   6.374  10.374 -0.1594 -0.6632  0.5123
   83SAPS   C23 7784   1.909   6.106  10.425  0.4029  0.1726 -0.1448
   83SAPS   H3R 7785   1.984   6.084  10.347  0.7895  0.1974  0.2177
   83SAPS   H3S 7786   1.881   6.212  10.409  0.6541 -0.0195 -1.9611
   83SAPS   C24 7787   1.787   6.024  10.394 -0.2237  0.2759  0.1396
   83SAPS   H4R 7788   1.713   6.045  10.474 -0.5559 -0.7003  0.1051
   83SAPS   H4S 7789   1.820   5.918  10.405  0.8897  0.9075  3.2638
   83SAPS   C25 7790   1.713   6.081  10.272  0.3595 -0.4626  0.5151
   83SAPS   H5R 7791   1.705   6.190  10.277  0.5046 -0.4910  1.4132
   83SAPS   C26 7792   1.681   6.014  10.157  0.0454  0.1415  0.2728
   83SAPS   H6R 7793   1.643   6.080  10.077  1.6359 -0.7082 -1.2132
   83SAPS   C27 7794   1.694   5.866  10.130  0.1868 -0.1188 -0.4845
   83SAPS   H7R 7795   1.709   5.815  10.228 -0.4641  0.7379  0.0706
   83SAPS   H7S 7796   1.793   5.852  10.081  0.4998 -2.5103  0.7472
   83SAPS   C28 7797   1.573   5.813  10.055  0.8159  0.0900 -0.2869
   83SAPS   H8R 7798   1.495   5.769  10.118  1.4611  0.9518  1.1365
   83SAPS   C29 7799   1.549   5.800   9.920 -0.3571  0.5240 -0.5258
   83SAPS   H9R 7800   1.456   5.749   9.890 -0.4917  0.2628  0.3200
   83SAPS  C210 7801   1.637   5.842   9.813 -0.1714  0.7712 -0.3374
   83SAPS  H10R 7802   1.719   5.910   9.846  1.8066 -2.3803  1.4170
   83SAPS  H10S 7803   1.572   5.886   9.733  0.7278  0.5862 -1.1807
   83SAPS  C211 7804   1.715   5.734   9.743  0.0410 -0.0460  0.0658
   83SAPS  H11R 7805   1.798   5.685   9.796  2.1459 -0.8610 -3.7771
   83SAPS  C212 7806   1.710   5.697   9.610 -0.2265 -0.5093  0.4378
   83SAPS  H12R 7807   1.777   5.619   9.569  0.5509  0.7761 -0.7741
   83SAPS  C213 7808   1.628   5.755   9.507  0.6395 -0.4549 -0.1569
   83SAPS  H13R 7809   1.540   5.797   9.560 -0.3252 -1.8620 -0.6319
   83SAPS  H13S 7810   1.592   5.681   9.432  1.4576 -0.4975 -0.5185
   83SAPS  C214 7811   1.690   5.862   9.428 -0.3995  0.1011  0.2589
   83SAPS  H14R 7812   1.765   5.917   9.487  0.5838  0.4412 -1.2761
   83SAPS  C215 7813   1.683   5.896   9.298 -0.2302 -0.2647 -0.8702
   83SAPS  H15R 7814   1.729   5.989   9.261 -2.4931  1.5008  0.6075
   83SAPS  C216 7815   1.612   5.828   9.185 -0.1316  0.1252 -1.0897
   83SAPS  H16R 7816   1.537   5.894   9.136  1.4047  1.2483 -2.0036
   83SAPS  H16S 7817   1.566   5.744   9.240 -0.4678  0.9139 -0.1505
   83SAPS  C217 7818   1.685   5.780   9.063  0.1986 -0.4930 -0.2991
   83SAPS  H17R 7819   1.624   5.710   9.002  1.2616  0.0860 -2.0382
   83SAPS  H17S 7820   1.774   5.725   9.098  1.5417  2.7567  1.6660
   83SAPS  C218 7821   1.730   5.903   8.977  0.0864 -0.2181  0.3072
   83SAPS  H18R 7822   1.773   5.981   9.044 -2.4846 -0.5502  2.4350
   83SAPS  H18S 7823   1.638   5.949   8.934 -0.3288  2.0917  3.4865
   83SAPS  C219 7824   1.822   5.869   8.859  0.4732 -0.0347  0.4245
   83SAPS  H19R 7825   1.925   5.836   8.884  1.1573  2.0548  0.4791
   83SAPS  H19S 7826   1.827   5.955   8.788 -0.0460 -0.7244 -0.4674
   83SAPS  C220 7827   1.764   5.753   8.769 -0.3117 -1.1951  0.0120
   83SAPS  H20R 7828   1.834   5.720   8.689 -0.9440 -2.8095  0.0975
   83SAPS  H20S 7829   1.674   5.792   8.719 -0.9756 -1.0092  1.3201
   83SAPS  H20T 7830   1.747   5.663   8.832 -1.5348 -0.7904  0.2628
   83SAPS   C33 7831   2.321   6.239  10.209  0.0421 -0.5592 -0.6538
   83SAPS   H3X 7832   2.221   6.192  10.209  0.8266 -2.2809  0.8627
   83SAPS   H3Y 7833   2.394   6.159  10.186 -0.7763 -1.8773  1.2768
   83SAPS   C34 7834   2.342   6.336  10.098 -0.0652  0.4460  0.1204
   83SAPS   H4X 7835   2.449   6.352  10.075 -0.3183  1.7836 -0.1701
   83SAPS   H4Y 7836   2.295   6.435  10.119  0.8472  0.0822  4.1859
   83SAPS   C35 7837   2.291   6.276   9.957  0.3377 -0.1825 -0.4715
   83SAPS   H5X 7838   2.185   6.245   9.960  0.2221  0.3489  1.6601
   83SAPS   H5Y 7839   2.354   6.184   9.958 -2.2330 -1.9926 -0.0425
   83SAPS   C36 7840   2.320   6.359   9.834  0.3054  0.5828  0.8953
   83SAPS   H6X 7841   2.423   6.402   9.838  0.1279  1.1148 -0.1041
   83SAPS   H6Y 7842   2.254   6.448   9.841  0.4213  0.6605  1.0142
   83SAPS   C37 7843   2.310   6.283   9.698 -0.8189  0.5148 -0.0574
   83SAPS   H7X 7844   2.211   6.233   9.690 -0.6975  0.5849 -2.4551
   83SAPS   H7Y 7845   2.389   6.205   9.691 -0.1433  1.1495  0.4445
   83SAPS   C38 7846   2.315   6.388   9.591 -0.1984  0.2388  0.2826
   83SAPS   H8X 7847   2.420   6.424   9.600  0.2104 -1.1523  1.1653
   83SAPS   H8Y 7848   2.249   6.473   9.619 -0.2730  0.6434 -1.1109
   83SAPS   C39 7849   2.280   6.338   9.454 -0.6063  0.3679 -0.0036
   83SAPS   H9X 7850   2.170   6.335   9.437 -0.5990  0.3164 -0.0418
   83SAPS   H9Y 7851   2.304   6.231   9.433 -1.5455  0.1460  0.0389
   83SAPS  C310 7852   2.337   6.435   9.343  0.3071  0.3804 -0.4034
   83SAPS  H10X 7853   2.297   6.534   9.374 -0.7255  0.4046 -1.7715
   83SAPS  H10Y 7854   2.288   6.430   9.243 -1.4709  0.7855  0.4412
   83SAPS  C311 7855   2.487   6.445   9.328  0.8510 -0.3307 -0.5688
   83SAPS  H11X 7856   2.540   6.360   9.279 -1.7345 -1.1934 -1.9652
   83SAPS  H11Y 7857   2.535   6.444   9.428  0.8947  2.1360 -0.5506
   83SAPS  C312 7858   2.537   6.569   9.250  0.6170  1.4461 -1.0929
   83SAPS  H12X 7859   2.645   6.589   9.264  0.2675  1.2554  2.3930
   83SAPS  H12Y 7860   2.486   6.655   9.299  1.8084  1.5718 -0.0404
   83SAPS  C313 7861   2.501   6.558   9.103 -0.4159 -0.3010 -0.2778
   83SAPS  H13X 7862   2.395   6.524   9.098  0.2581 -2.5284  0.3103
   83SAPS  H13Y 7863   2.564   6.478   9.059  0.6993 -0.3302  1.3277
   83SAPS  C314 7864   2.531   6.693   9.037 -0.4065 -0.2782 -0.2019
   83SAPS  H14X 7865   2.641   6.702   9.042 -0.2993 -1.6427  0.1395
   83SAPS  H14Y 7866   2.486   6.767   9.106 -0.0214 -0.4110  0.1950
   83SAPS  C315 7867   2.514   6.706   8.885  0.3648 -0.3209  0.7162
   83SAPS  H15X 7868   2.551   6.808   8.861  2.4664 -1.5699 -1.5090
   83SAPS  H15Y 7869   2.407   6.697   8.854  0.0960  2.3277  0.8088
   83SAPS  C316 7870   2.587   6.603   8.802  0.0864  0.2338  0.7983
   83SAPS  H16X 7871   2.558   6.504   8.842  0.5573  0.6090  2.0942
   83SAPS  H16Y 7872   2.696   6.612   8.820  0.0655  1.9781  0.1156
   83SAPS  C317 7873   2.549   6.609   8.652 -0.4989 -0.0742  0.1765
   83SAPS  H17X 7874   2.441   6.586   8.663 -1.3204  3.7210  0.4655
   83SAPS  H17Y 7875   2.607   6.527   8.604 -0.6146  0.1695 -0.3787
   83SAPS  C318 7876   2.583   6.737   8.578 -0.1036  0.2842  0.2033
   83SAPS  H18X 7877   2.527   6.825   8.615 -3.2982 -1.3199 -0.6472
   83SAPS  H18Y 7878   2.546   6.729   8.474  0.8598  0.4923 -0.1613
   83SAPS  H18Z 7879   2.692   6.761   8.582 -0.3287  1.4802 -0.7825
   84SAPS     N 7880   4.580   4.768  11.142 -0.3284 -0.1608 -0.0665
   84SAPS   HN1 7881   4.655   4.765  11.071  2.7971  0.5952  3.0768
   84SAPS   HN2 7882   4.558   4.669  11.167  2.7557 -0.2750  2.4279
   84SAPS   HN3 7883   4.499   4.808  11.090  0.2913  2.2971  0.7901
   84SAPS   C12 7884   4.622   4.852  11.258 -0.1320  0.4970 -0.6460
   84SAPS  H12A 7885   4.543   4.883  11.324  0.0102 -2.2390  0.8731
   84SAPS   C13 7886   4.733   4.789  11.347 -0.4556 -0.1684  0.0611
   84SAPS  O13A 7887   4.755   4.664  11.331  0.2054  0.4464  0.3199
   84SAPS  O13B 7888   4.751   4.842  11.463 -0.2056  0.0614  0.3062
   84SAPS   C11 7889   4.688   4.991  11.210  0.4836 -0.7495  0.0625
   84SAPS  H11A 7890   4.721   5.057  11.293  0.1822 -0.3984 -0.0967
   84SAPS  H11B 7891   4.616   5.054  11.155  0.3175  0.6334  1.8393
   84SAPS     P 7892   4.889   5.074  11.079 -0.0003 -0.3912 -0.3679
   84SAPS   O13 7893   4.960   5.121  11.201 -0.2823 -0.2236 -0.3776
   84SAPS   O14 7894   4.968   5.019  10.967  0.0078 -0.3916 -0.3077
   84SAPS   O12 7895   4.798   4.961  11.125  0.1233 -0.0187  0.1032
   84SAPS   O11 7896   4.785   5.179  11.028 -0.3717  0.7889 -0.1673
   84SAPS    C1 7897   4.722   5.155  10.902 -0.3341 -0.4942  0.4596
   84SAPS    HA 7898   4.689   5.050  10.886 -1.2831  0.2379 -2.7797
   84SAPS    HB 7899   4.625   5.209  10.897  0.3131  0.6095 -0.2443
   84SAPS    C2 7900   4.808   5.195  10.777  0.0593  0.1092  0.6071
   84SAPS    HS 7901   4.915   5.188  10.804  0.2285  0.5880  0.0685
   84SAPS   O21 7902   4.783   5.333  10.749  0.1466 -0.0916  0.5610
   84SAPS   C21 7903   4.868   5.398  10.667 -0.3471 -0.0133  0.2720
   84SAPS   O22 7904   4.974   5.355  10.630 -0.3174 -0.6376  0.0301
   84SAPS   C22 7905   4.817   5.545  10.648  0.9002  0.4473 -0.2278
   84SAPS   H2R 7906   4.784   5.589  10.745  0.9239  0.9807 -0.4548
   84SAPS   H2S 7907   4.896   5.613  10.609 -0.1929  1.4901 -0.6761
   84SAPS    C3 7908   4.784   5.101  10.654 -0.1925 -0.0753  0.1835
   84SAPS    HX 7909   4.809   5.000  10.694 -0.1761 -0.1540 -0.0276
   84SAPS    HY 7910   4.861   5.121  10.577  0.4641 -1.6086  0.4062
   84SAPS   O31 7911   4.647   5.101  10.617 -0.2997  0.2234 -0.1118
   84SAPS   C31 7912   4.622   5.169  10.506 -0.0331 -0.4018 -0.5602
   84SAPS   O32 7913   4.703   5.229  10.440 -0.2364 -0.6730  0.0853
   84SAPS   C32 7914   4.469   5.172  10.483  0.2380  0.6671 -0.5246
   84SAPS   H2X 7915   4.415   5.181  10.579  2.0088 -0.7864  0.6279
   84SAPS   H2Y 7916   4.443   5.073  10.439 -2.0407  1.1483 -0.3242
   84SAPS   C23 7917   4.702   5.543  10.545 -0.1836  0.1566 -0.1116
   84SAPS   H3R 7918   4.634   5.459  10.572  0.5253  0.3166  2.3315
   84SAPS   H3S 7919   4.743   5.520  10.444 -3.9737  0.2453 -1.7638
   84SAPS   C24 7920   4.609   5.670  10.565  0.4334  0.0069 -0.7904
   84SAPS   H4R 7921   4.591   5.688  10.673 -0.9339  1.9010 -1.3165
   84SAPS   H4S 7922   4.515   5.629  10.522 -0.4363  0.6407  0.4885
   84SAPS   C25 7923   4.665   5.790  10.496  0.1815  0.0440 -0.4063
   84SAPS   H5R 7924   4.747   5.833  10.555  0.5277  1.0317 -1.5860
   84SAPS   C26 7925   4.637   5.846  10.371 -0.8208  0.3187 -0.0526
   84SAPS   H6R 7926   4.686   5.937  10.331  1.5996 -1.8503 -2.1730
   84SAPS   C27 7927   4.533   5.816  10.266 -0.1695  0.6618  0.2092
   84SAPS   H7R 7928   4.554   5.880  10.177  0.2842  0.0347 -0.1393
   84SAPS   H7S 7929   4.439   5.851  10.313 -1.0158 -0.0665 -0.9280
   84SAPS   C28 7930   4.532   5.670  10.217  0.5016 -0.4249 -0.7030
   84SAPS   H8R 7931   4.565   5.596  10.292 -1.3180  0.7144  1.2726
   84SAPS   C29 7932   4.498   5.627  10.094  0.1946  0.3196 -0.5527
   84SAPS   H9R 7933   4.492   5.520  10.071 -1.6619  1.0647 -3.9108
   84SAPS  C210 7934   4.453   5.712   9.973 -0.3890 -0.5618 -0.3444
   84SAPS  H10R 7935   4.501   5.665   9.884 -0.4244 -1.9443  0.3563
   84SAPS  H10S 7936   4.499   5.812   9.987 -3.2955  1.0859 -2.1200
   84SAPS  C211 7937   4.309   5.759   9.968 -0.6602  0.0028  0.3960
   84SAPS  H11R 7938   4.284   5.800  10.067  1.3495  1.3307  0.3680
   84SAPS  C212 7939   4.221   5.741   9.870  0.0951 -0.0643  0.0326
   84SAPS  H12R 7940   4.120   5.785   9.879  0.7077  2.1790 -3.1465
   84SAPS  C213 7941   4.257   5.689   9.735  0.0945 -0.6420  0.6474
   84SAPS  H13R 7942   4.273   5.579   9.739 -0.5212 -0.7733 -0.3150
   84SAPS  H13S 7943   4.357   5.732   9.716 -0.9564  1.3244 -0.5015
   84SAPS  C214 7944   4.154   5.724   9.631 -0.5375  0.3735 -0.1811
   84SAPS  H14R 7945   4.091   5.809   9.663 -0.4595 -0.3974  2.1664
   84SAPS  C215 7946   4.114   5.651   9.527 -0.2850 -0.5810 -0.4954
   84SAPS  H15R 7947   4.052   5.704   9.453  1.3558  0.8470 -0.8687
   84SAPS  C216 7948   4.172   5.519   9.489 -0.2829 -0.1870  0.4167
   84SAPS  H16R 7949   4.098   5.441   9.517  1.5921 -1.0407  3.1658
   84SAPS  H16S 7950   4.267   5.504   9.544 -0.1636  1.4284  0.6790
   84SAPS  C217 7951   4.200   5.511   9.332 -0.0027  0.1175  0.7737
   84SAPS  H17R 7952   4.098   5.520   9.289  0.2724 -3.3082 -0.7873
   84SAPS  H17S 7953   4.253   5.415   9.309  1.6906  0.8027  1.6988
   84SAPS  C218 7954   4.281   5.634   9.280 -0.9136  0.2263 -0.4137
   84SAPS  H18R 7955   4.373   5.635   9.342 -2.6368 -0.9715  2.2701
   84SAPS  H18S 7956   4.217   5.724   9.296 -1.8447 -0.7415  1.5124
   84SAPS  C219 7957   4.328   5.629   9.128 -0.7145  0.4494  0.6151
   84SAPS  H19R 7958   4.354   5.524   9.102  1.9755  0.9782  1.0323
   84SAPS  H19S 7959   4.419   5.688   9.108 -1.7990  1.6711 -0.8423
   84SAPS  C220 7960   4.216   5.692   9.034  0.0607 -0.3288  0.1037
   84SAPS  H20R 7961   4.110   5.684   9.063  0.3619 -1.1455  0.9830
   84SAPS  H20S 7962   4.227   5.637   8.938  2.0345 -1.3587  0.8989
   84SAPS  H20T 7963   4.244   5.800   9.026  0.1409 -0.3483  0.1236
   84SAPS   C33 7964   4.430   5.283  10.384 -0.7789  0.2983  0.3064
   84SAPS   H3X 7965   4.499   5.278  10.297 -1.5159 -1.2722 -0.1936
   84SAPS   H3Y 7966   4.440   5.383  10.433  1.0243  0.7142 -0.8427
   84SAPS   C34 7967   4.292   5.268  10.333  0.6170  0.0351  0.5964
   84SAPS   H4X 7968   4.228   5.272  10.424  0.8535 -0.6196  0.7915
   84SAPS   H4Y 7969   4.281   5.169  10.285  0.1594  0.9525 -1.2285
   84SAPS   C35 7970   4.235   5.375  10.239 -0.7291  0.6264  0.0662
   84SAPS   H5X 7971   4.268   5.476  10.269 -0.3642  0.1583  1.2647
   84SAPS   H5Y 7972   4.125   5.380  10.256 -0.9045 -0.8637 -0.5339
   84SAPS   C36 7973   4.264   5.343  10.090  0.6308  0.1059  0.2271
   84SAPS   H6X 7974   4.373   5.327  10.077  0.8272 -1.5921  3.4449
   84SAPS   H6Y 7975   4.235   5.436  10.038 -2.5336  0.1313  1.9233
   84SAPS   C37 7976   4.182   5.227  10.028 -0.6233  0.2565  1.2881
   84SAPS   H7X 7977   4.079   5.268  10.018  0.7934  3.2833 -2.4497
   84SAPS   H7Y 7978   4.182   5.145  10.102 -0.6391 -0.7310  0.2103
   84SAPS   C38 7979   4.242   5.180   9.895  0.9613  0.3854  0.5595
   84SAPS   H8X 7980   4.323   5.106   9.909 -0.3890 -1.4700 -1.1897
   84SAPS   H8Y 7981   4.294   5.259   9.838  0.0740  0.7864  0.3071
   84SAPS   C39 7982   4.134   5.120   9.797 -0.1462  0.6982 -0.6673
   84SAPS   H9X 7983   4.028   5.151   9.807  0.1135  1.0350  1.3067
   84SAPS   H9Y 7984   4.136   5.012   9.823 -1.4216  0.8770  0.1748
   84SAPS  C310 7985   4.183   5.125   9.654  0.3387  1.2689 -0.2673
   84SAPS  H10X 7986   4.184   5.228   9.613 -1.7074  1.1563 -0.6663
   84SAPS  H10Y 7987   4.105   5.067   9.599  1.7402 -1.7822  0.8518
   84SAPS  C311 7988   4.313   5.037   9.631  0.3796  0.5957  0.1251
   84SAPS  H11X 7989   4.288   4.930   9.644  0.9357  0.4622  0.1097
   84SAPS  H11Y 7990   4.389   5.070   9.706  1.4128 -0.0803 -0.6119
   84SAPS  C312 7991   4.365   5.062   9.489  0.2843 -0.3060  0.0056
   84SAPS  H12X 7992   4.457   5.002   9.477  0.7501  0.1854  1.0776
   84SAPS  H12Y 7993   4.393   5.169   9.494  0.6515 -0.4107  0.2596
   84SAPS  C313 7994   4.266   5.031   9.381  0.2610  0.8069 -0.3879
   84SAPS  H13X 7995   4.177   5.095   9.393 -2.0392 -2.0787 -1.4661
   84SAPS  H13Y 7996   4.237   4.924   9.381 -0.8510  1.1028 -0.9292
   84SAPS  C314 7997   4.312   5.065   9.239  0.2314  0.3656  0.2550
   84SAPS  H14X 7998   4.373   4.984   9.194 -0.6029 -0.0755 -0.0900
   84SAPS  H14Y 7999   4.378   5.152   9.256 -0.1651  0.5024  1.1165
   84SAPS  C315 8000   4.194   5.110   9.146 -0.7227 -0.3229  0.4220
   84SAPS  H15X 8001   4.154   5.203   9.192  1.1755  1.4267 -1.3003
   84SAPS  H15Y 8002   4.116   5.032   9.153 -0.6723 -0.5059 -0.9795
   84SAPS  C316 8003   4.240   5.141   8.999  0.1213  0.1849 -0.3782
   84SAPS  H16X 8004   4.150   5.153   8.935  1.1711 -0.9984 -2.0933
   84SAPS  H16Y 8005   4.301   5.056   8.962 -1.3125 -0.1996 -1.9206
   84SAPS  C317 8006   4.320   5.272   8.984  0.6177  0.5043  0.0890
   84SAPS  H17X 8007   4.420   5.256   9.031 -0.1245 -0.2572  1.4362
   84SAPS  H17Y 8008   4.278   5.348   9.053 -0.3070 -0.0521  0.1445
   84SAPS  C318 8009   4.341   5.316   8.841  0.3680 -1.0266  0.2306
   84SAPS  H18X 8010   4.237   5.324   8.802 -0.4104 -0.2929  2.4226
   84SAPS  H18Y 8011   4.401   5.240   8.787  2.0505  0.7815 -0.5456
   84SAPS  H18Z 8012   4.389   5.416   8.829 -0.1493 -0.9361 -1.2455
   85SAPS     N 8013   0.472   1.341  10.946 -0.4050  0.1328  0.6405
   85SAPS   HN1 8014   0.547   1.411  10.926 -1.1691  0.6628 -0.4325
   85SAPS   HN2 8015   0.499   1.263  10.883  0.1817  1.4891 -0.8322
   85SAPS   HN3 8016   0.381   1.386  10.925  1.5704  4.3010  0.2950
   85SAPS   C12 8017   0.469   1.288  11.087 -0.5145  0.6409 -0.0801
   85SAPS  H12A 8018   0.558   1.230  11.107 -0.5765  0.6062  0.0959
   85SAPS   C13 8019   0.481   1.399  11.197 -0.1966  0.2426 -0.6029
   85SAPS  O13A 8020   0.506   1.518  11.163 -0.4284 -0.0719 -0.3844
   85SAPS  O13B 8021   0.487   1.363  11.318 -0.8572 -0.5535  0.3696
   85SAPS   C11 8022   0.345   1.199  11.107 -0.3734 -0.1870  0.3493
   85SAPS  H11A 8023   0.254   1.257  11.079  0.6597  1.0078 -0.6214
   85SAPS  H11B 8024   0.320   1.163  11.209 -1.3787  0.9146  0.5146
   85SAPS     P 8025   0.434   0.956  11.065 -0.0971 -0.1042  0.0587
   85SAPS   O13 8026   0.546   0.998  11.147  0.0024  0.5853 -0.0282
   85SAPS   O14 8027   0.336   0.861  11.120  0.3627 -0.1747  0.1086
   85SAPS   O12 8028   0.355   1.089  11.020  0.9150  0.2649  0.1349
   85SAPS   O11 8029   0.481   0.882  10.936 -0.8022  0.0433  0.0487
   85SAPS    C1 8030   0.387   0.881  10.828 -0.0183 -0.5397 -0.1127
   85SAPS    HA 8031   0.321   0.793  10.841 -0.7075 -0.0142 -0.0086
   85SAPS    HB 8032   0.321   0.970  10.816  1.4920  0.6422  0.1131
   85SAPS    C2 8033   0.469   0.865  10.695 -0.2955  0.3756 -0.7689
   85SAPS    HS 8034   0.549   0.795  10.726  0.7619  2.0360  0.3186
   85SAPS   O21 8035   0.523   0.986  10.645  0.4019  0.1847  0.4273
   85SAPS   C21 8036   0.635   0.974  10.575  0.4987  0.0828 -0.8568
   85SAPS   O22 8037   0.709   0.876  10.572  0.0336  0.1141  0.0672
   85SAPS   C22 8038   0.654   1.094  10.483  0.2083  0.0536  0.3389
   85SAPS   H2R 8039   0.567   1.163  10.490 -0.6365 -0.9111 -0.5763
   85SAPS   H2S 8040   0.746   1.143  10.522  0.4756 -0.2347  0.0719
   85SAPS    C3 8041   0.380   0.798  10.588  1.0644 -0.1451  0.6102
   85SAPS    HX 8042   0.295   0.862  10.559 -0.9993 -1.9520  2.4888
   85SAPS    HY 8043   0.324   0.717  10.639 -0.6041  2.3057  2.7903
   85SAPS   O31 8044   0.454   0.763  10.470  0.8366  0.1084 -0.0629
   85SAPS   C31 8045   0.522   0.647  10.475 -0.7231 -0.4396  0.2150
   85SAPS   O32 8046   0.531   0.570  10.569  0.1569  0.1339 -0.3790
   85SAPS   C32 8047   0.587   0.628  10.335  0.3834 -0.6728  0.3043
   85SAPS   H2X 8048   0.618   0.723  10.287 -0.2865  0.6206  2.3825
   85SAPS   H2Y 8049   0.515   0.591  10.259  1.0389 -3.1762  0.8434
   85SAPS   C23 8050   0.696   1.052  10.339  1.0550  0.1837  0.4310
   85SAPS   H3R 8051   0.610   1.020  10.277 -0.0758 -1.4225  2.7388
   85SAPS   H3S 8052   0.755   0.959  10.354  0.3788 -0.4212 -0.5936
   85SAPS   C24 8053   0.762   1.167  10.259  0.7691 -0.5822 -0.1723
   85SAPS   H4R 8054   0.780   1.141  10.152 -1.0609  3.0313 -1.4225
   85SAPS   H4S 8055   0.862   1.181  10.304  1.3407 -1.6014 -1.0887
   85SAPS   C25 8056   0.677   1.293  10.263  0.6103  0.4621 -0.5055
   85SAPS   H5R 8057   0.696   1.366  10.343 -0.7258  1.6783 -1.2857
   85SAPS   C26 8058   0.576   1.312  10.172 -0.7951 -0.1296  0.5240
   85SAPS   H6R 8059   0.510   1.399  10.183 -0.0918  0.4316  0.3465
   85SAPS   C27 8060   0.537   1.217  10.062  0.4844 -0.5542  0.1491
   85SAPS   H7R 8061   0.430   1.226  10.033 -0.0947 -2.8831  1.4006
   85SAPS   H7S 8062   0.535   1.112  10.099  0.0405  0.1226  2.1151
   85SAPS   C28 8063   0.633   1.224   9.940 -0.2649 -0.5270  0.1825
   85SAPS   H8R 8064   0.679   1.323   9.931 -0.9603 -0.2711 -0.5530
   85SAPS   C29 8065   0.674   1.121   9.871  0.4258 -0.6355  1.0071
   85SAPS   H9R 8066   0.734   1.132   9.779 -1.4991 -2.7862 -0.5426
   85SAPS  C210 8067   0.637   0.972   9.888 -0.5940 -0.3194 -0.2295
   85SAPS  H10R 8068   0.528   0.964   9.906 -0.9096  1.5702 -1.1800
   85SAPS  H10S 8069   0.691   0.940   9.980 -0.8010  0.2392  0.0859
   85SAPS  C211 8070   0.687   0.883   9.778  0.0555  1.1918 -0.5754
   85SAPS  H11R 8071   0.747   0.798   9.812 -2.7567 -0.5086  0.2677
   85SAPS  C212 8072   0.663   0.893   9.645 -0.1992 -0.0847 -0.4553
   85SAPS  H12R 8073   0.705   0.820   9.574  0.4063  1.2436 -1.4743
   85SAPS  C213 8074   0.590   1.002   9.574  0.1099 -0.2435 -0.3424
   85SAPS  H13R 8075   0.541   1.065   9.651 -0.6688 -0.8195 -0.3622
   85SAPS  H13S 8076   0.510   0.951   9.516 -1.2720  1.0804  0.3878
   85SAPS  C214 8077   0.681   1.088   9.496 -1.0517  0.2469 -0.5610
   85SAPS  H14R 8078   0.749   1.144   9.562  1.0996  0.0716 -2.5645
   85SAPS  C215 8079   0.710   1.083   9.364 -0.0995  0.3273  0.7381
   85SAPS  H15R 8080   0.789   1.150   9.326 -0.9418  0.6269 -0.5530
   85SAPS  C216 8081   0.630   0.998   9.267 -0.9682 -0.0200  0.0156
   85SAPS  H16R 8082   0.556   1.058   9.212 -0.0948  0.4281 -0.6886
   85SAPS  H16S 8083   0.575   0.924   9.329  0.6973 -0.7803  0.6295
   85SAPS  C217 8084   0.734   0.933   9.172 -0.3540  0.1598  0.9145
   85SAPS  H17R 8085   0.807   0.868   9.223  0.4504  0.3147 -0.0212
   85SAPS  H17S 8086   0.791   1.015   9.123  1.8302 -0.7437  1.9172
   85SAPS  C218 8087   0.663   0.846   9.068  0.6995  0.5392 -0.3897
   85SAPS  H18R 8088   0.588   0.908   9.013  0.5392 -2.4054 -3.6363
   85SAPS  H18S 8089   0.593   0.776   9.119  2.1187 -1.0679 -0.6267
   85SAPS  C219 8090   0.762   0.758   8.982  0.0971  0.0218 -0.4022
   85SAPS  H19R 8091   0.819   0.689   9.048  2.6463  2.4485  0.0526
   85SAPS  H19S 8092   0.834   0.835   8.946 -1.0432 -0.0232 -2.9217
   85SAPS  C220 8093   0.697   0.682   8.871  0.0584  0.5610  0.2092
   85SAPS  H20R 8094   0.768   0.607   8.832 -0.3369 -1.7182  3.6498
   85SAPS  H20S 8095   0.655   0.742   8.788  1.5387  1.1659 -0.1185
   85SAPS  H20T 8096   0.610   0.627   8.912  1.3184 -1.8674 -0.3128
   85SAPS   C33 8097   0.712   0.537  10.323  0.4425  0.1435 -0.0017
   85SAPS   H3X 8098   0.676   0.433  10.340 -0.2279 -0.1058 -2.8217
   85SAPS   H3Y 8099   0.784   0.564  10.403 -1.2232  2.6491  0.7107
   85SAPS   C34 8100   0.782   0.544  10.186 -0.7441 -0.7162  0.1597
   85SAPS   H4X 8101   0.878   0.488  10.195  1.5775  2.9535 -0.4254
   85SAPS   H4Y 8102   0.812   0.651  10.177 -0.9413 -0.3588  3.2499
   85SAPS   C35 8103   0.697   0.522  10.056 -0.7140 -0.2812  0.3617
   85SAPS   H5X 8104   0.635   0.614  10.058  2.2354  1.7893  0.8773
   85SAPS   H5Y 8105   0.635   0.432  10.076  0.5860 -1.1521  0.5192
   85SAPS   C36 8106   0.790   0.501   9.936  0.4697 -0.1024 -0.3377
   85SAPS   H6X 8107   0.831   0.397   9.943 -0.1267 -0.4017 -1.2624
   85SAPS   H6Y 8108   0.867   0.580   9.945  2.0491 -1.8059  1.6473
   85SAPS   C37 8109   0.729   0.508   9.800 -0.1939 -0.0633  0.3305
   85SAPS   H7X 8110   0.654   0.589   9.794 -1.0589 -0.8041  1.0530
   85SAPS   H7Y 8111   0.674   0.414   9.778 -0.4811 -0.3307  2.1114
   85SAPS   C38 8112   0.841   0.546   9.700 -0.3267 -0.3653 -0.1853
   85SAPS   H8X 8113   0.919   0.467   9.710  1.8134  1.2252 -3.3322
   85SAPS   H8Y 8114   0.877   0.650   9.717  0.8056 -0.8832  0.6909
   85SAPS   C39 8115   0.795   0.531   9.556 -0.1723  0.0153 -0.9105
   85SAPS   H9X 8116   0.697   0.576   9.529  0.1982  1.4240  0.0212
   85SAPS   H9Y 8117   0.771   0.423   9.559 -1.4006  0.3146  0.7122
   85SAPS  C310 8118   0.894   0.566   9.441  0.0240 -0.5062 -0.0454
   85SAPS  H10X 8119   0.986   0.519   9.481 -0.0467  0.7929  1.6666
   85SAPS  H10Y 8120   0.900   0.676   9.438  2.9217 -0.6545 -1.1244
   85SAPS  C311 8121   0.850   0.507   9.307 -0.5941  0.4241 -0.0946
   85SAPS  H11X 8122   0.761   0.551   9.258 -0.0965  2.8405  1.1198
   85SAPS  H11Y 8123   0.833   0.397   9.315 -0.9538  0.2636 -2.6843
   85SAPS  C312 8124   0.962   0.514   9.192 -0.0371 -0.0620  0.2367
   85SAPS  H12X 8125   1.019   0.608   9.200  0.1852 -0.3074  1.5958
   85SAPS  H12Y 8126   0.908   0.504   9.095 -0.7703 -1.7320  0.7946
   85SAPS  C313 8127   1.050   0.396   9.180  0.9444  0.2099  0.4171
   85SAPS  H13X 8128   0.990   0.303   9.167  2.2423 -0.5732 -0.0485
   85SAPS  H13Y 8129   1.111   0.389   9.272 -0.0454 -1.4260  0.9662
   85SAPS  C314 8130   1.152   0.392   9.062 -0.7542 -0.0602 -0.5559
   85SAPS  H14X 8131   1.218   0.306   9.084  1.3929  1.8518  0.6980
   85SAPS  H14Y 8132   1.215   0.483   9.055  0.2648 -0.6765  0.5399
   85SAPS  C315 8133   1.087   0.367   8.921  0.2473  0.3688 -0.1721
   85SAPS  H15X 8134   1.003   0.299   8.948  0.6739 -0.0368  0.1377
   85SAPS  H15Y 8135   1.167   0.307   8.874  0.4110 -0.8091  1.5694
   85SAPS  C316 8136   1.042   0.490   8.845  0.0940  0.4139  0.1832
   85SAPS  H16X 8137   0.961   0.545   8.897  0.0582 -0.6376  1.2642
   85SAPS  H16Y 8138   1.004   0.459   8.745  2.4213 -0.0260 -0.6062
   85SAPS  C317 8139   1.152   0.588   8.819 -0.3944 -0.0215  0.2785
   85SAPS  H17X 8140   1.239   0.518   8.820 -0.0226  0.4386  0.5027
   85SAPS  H17Y 8141   1.153   0.658   8.905 -0.4944 -0.7382  0.8637
   85SAPS  C318 8142   1.139   0.661   8.691  1.1398 -0.8694 -0.2913
   85SAPS  H18X 8143   1.102   0.589   8.615  3.3259 -0.1335 -2.0970
   85SAPS  H18Y 8144   1.237   0.693   8.651  1.1481  1.5504  1.5665
   85SAPS  H18Z 8145   1.068   0.746   8.704 -1.5269 -3.3738  2.7080
   86SAPS     N 8146   4.050   0.841  10.754 -0.3544 -0.3036  0.3859
   86SAPS   HN1 8147   4.017   0.933  10.716 -0.4528 -1.4879 -2.5271
   86SAPS   HN2 8148   4.152   0.829  10.736  0.2523  1.2245  2.5412
   86SAPS   HN3 8149   4.006   0.757  10.712 -0.0843  0.4891 -1.5377
   86SAPS   C12 8150   4.020   0.835  10.904  1.0416  0.4360 -0.2710
   86SAPS  H12A 8151   4.069   0.747  10.943  1.7008  1.7375  1.9693
   86SAPS   C13 8152   4.091   0.961  10.975 -0.0498 -0.1892 -0.3372
   86SAPS  O13A 8153   4.155   1.057  10.932 -0.4745  0.3265 -0.4860
   86SAPS  O13B 8154   4.110   0.931  11.095 -0.5325 -0.0969  0.3217
   86SAPS   C11 8155   3.864   0.846  10.934  0.6555 -0.3400  0.4715
   86SAPS  H11A 8156   3.825   0.933  10.878 -3.4641 -1.4509  1.4353
   86SAPS  H11B 8157   3.845   0.870  11.041  1.8769 -3.7222  1.5159
   86SAPS     P 8158   3.646   0.709  10.882  0.2568 -0.6002 -0.6832
   86SAPS   O13 8159   3.604   0.583  10.828 -0.5609 -0.3917 -0.1512
   86SAPS   O14 8160   3.585   0.746  11.017 -0.3756  0.3622  0.0014
   86SAPS   O12 8161   3.802   0.725  10.897  0.4105 -0.1260  0.4965
   86SAPS   O11 8162   3.599   0.825  10.787  0.7901 -0.0638 -0.1563
   86SAPS    C1 8163   3.652   0.836  10.656 -0.0173  0.0096  0.5892
   86SAPS    HA 8164   3.721   0.921  10.640  0.9791 -0.7775  0.5982
   86SAPS    HB 8165   3.704   0.741  10.628  0.9531  0.1536  1.8224
   86SAPS    C2 8166   3.545   0.852  10.540 -0.5924 -0.2368 -0.2125
   86SAPS    HS 8167   3.464   0.917  10.582  0.7289  1.3180 -0.0172
   86SAPS   O21 8168   3.501   0.723  10.490 -0.0972 -0.0214  0.5430
   86SAPS   C21 8169   3.380   0.690  10.522  0.1985 -0.6197 -0.5381
   86SAPS   O22 8170   3.295   0.745  10.587 -0.7162  0.2819  0.3477
   86SAPS   C22 8171   3.354   0.547  10.473  1.1267  0.7971  0.4834
   86SAPS   H2R 8172   3.385   0.484  10.559  0.0353 -1.3525 -0.6524
   86SAPS   H2S 8173   3.248   0.527  10.447  1.4673 -1.4930  0.7621
   86SAPS    C3 8174   3.600   0.935  10.419 -0.3234  0.3790 -0.5143
   86SAPS    HX 8175   3.691   0.884  10.380 -0.2513  1.1545 -1.3732
   86SAPS    HY 8176   3.631   1.032  10.464  1.2924 -0.4726  0.2687
   86SAPS   O31 8177   3.500   0.963  10.321 -0.4890  0.0540 -0.5044
   86SAPS   C31 8178   3.538   1.021  10.207 -0.6634 -0.5886 -0.0407
   86SAPS   O32 8179   3.654   1.041  10.175 -0.7450 -0.4933 -0.3730
   86SAPS   C32 8180   3.422   1.045  10.117  0.1248 -0.6100 -0.3784
   86SAPS   H2X 8181   3.391   1.151  10.112  0.5639 -0.5360 -1.8568
   86SAPS   H2Y 8182   3.336   0.989  10.158 -0.0221 -2.3490 -2.9336
   86SAPS   C23 8183   3.445   0.529  10.350  0.2018  0.3826  0.1612
   86SAPS   H3R 8184   3.550   0.515  10.385  0.1736  2.9028  1.3184
   86SAPS   H3S 8185   3.441   0.620  10.287  1.0990  0.2680 -0.0635
   86SAPS   C24 8186   3.413   0.412  10.254 -0.4018  0.5176  0.3829
   86SAPS   H4R 8187   3.486   0.425  10.172 -0.7030  2.8859  0.4376
   86SAPS   H4S 8188   3.318   0.426  10.198  0.3145  0.1690 -0.9294
   86SAPS   C25 8189   3.419   0.278  10.317 -0.5236 -0.0159  0.4722
   86SAPS   H5R 8190   3.375   0.255  10.415 -1.1419  0.7000  0.3708
   86SAPS   C26 8191   3.479   0.173  10.254 -0.0272  0.7086  0.0325
   86SAPS   H6R 8192   3.486   0.072  10.297  0.8205  0.4699 -0.6714
   86SAPS   C27 8193   3.541   0.173  10.115 -0.2765 -0.3466  0.1745
   86SAPS   H7R 8194   3.641   0.222  10.114 -0.5092  0.1238  0.0855
   86SAPS   H7S 8195   3.472   0.231  10.051  0.7898 -1.5039 -2.0959
   86SAPS   C28 8196   3.542   0.045  10.045  0.6180 -0.1720 -0.4467
   86SAPS   H8R 8197   3.477  -0.030  10.092 -1.2316  0.6134 -1.6908
   86SAPS   C29 8198   3.604   0.019   9.929  0.1388  0.3473 -0.4341
   86SAPS   H9R 8199   3.606  -0.084   9.892  1.6473 -0.0347  0.6475
   86SAPS  C210 8200   3.692   0.120   9.858 -0.2145  0.1403  0.7815
   86SAPS  H10R 8201   3.620   0.202   9.835  2.5781  2.6312  0.6347
   86SAPS  H10S 8202   3.723   0.071   9.764  1.5431  2.1673  0.2712
   86SAPS  C211 8203   3.825   0.175   9.907  0.4126  0.2618  0.4834
   86SAPS  H11R 8204   3.832   0.192  10.016 -0.1957 -1.2068  0.7689
   86SAPS  C212 8205   3.929   0.209   9.831  0.4066 -0.5079 -0.2645
   86SAPS  H12R 8206   4.014   0.250   9.888 -0.9033 -0.7780  1.9664
   86SAPS  C213 8207   3.932   0.210   9.679  0.2218  0.0541  0.5201
   86SAPS  H13R 8208   4.001   0.292   9.646 -0.5535  0.5516  0.1053
   86SAPS  H13S 8209   3.834   0.231   9.631  0.9000  0.9544 -0.5021
   86SAPS  C214 8210   3.995   0.089   9.628  0.3346  0.5307 -0.6571
   86SAPS  H14R 8211   4.066   0.040   9.695  1.1749 -1.6440 -3.0502
   86SAPS  C215 8212   3.964   0.011   9.523 -0.7200  0.1430  0.0456
   86SAPS  H15R 8213   4.042  -0.061   9.496 -0.3595  0.7388 -0.5106
   86SAPS  C216 8214   3.864   0.016   9.414  0.3372  0.2457 -0.7555
   86SAPS  H16R 8215   3.798   0.103   9.436  1.8589  1.6153 -1.4914
   86SAPS  H16S 8216   3.813  -0.082   9.410 -0.2397  0.4992  0.1173
   86SAPS  C217 8217   3.930   0.043   9.280  0.5678  0.3011  0.6363
   86SAPS  H17R 8218   3.849   0.035   9.204  0.3130  0.6848  0.8668
   86SAPS  H17S 8219   4.013  -0.029   9.266  1.9985  1.6580  1.9460
   86SAPS  C218 8220   3.992   0.187   9.276 -0.3124  0.3096  1.2805
   86SAPS  H18R 8221   4.069   0.196   9.356  1.1592  1.0558 -0.1728
   86SAPS  H18S 8222   3.903   0.252   9.287  0.9579  2.2136  0.5558
   86SAPS  C219 8223   4.097   0.218   9.160 -0.3427  0.0801 -0.0402
   86SAPS  H19R 8224   4.179   0.143   9.154  0.5464  1.1215 -0.9650
   86SAPS  H19S 8225   4.156   0.308   9.187 -0.3738  0.3020 -0.6978
   86SAPS  C220 8226   4.029   0.233   9.025  0.3644  0.2180 -0.5997
   86SAPS  H20R 8227   3.945   0.305   9.028 -0.6411 -1.0443  3.0608
   86SAPS  H20S 8228   3.980   0.136   9.001 -0.1478  0.1564  0.6885
   86SAPS  H20T 8229   4.100   0.267   8.946  0.3307  1.5109 -0.0812
   86SAPS   C33 8230   3.456   1.004   9.971 -0.3097  0.0898 -0.3382
   86SAPS   H3X 8231   3.488   0.898   9.971  1.1505  0.5167 -1.5551
   86SAPS   H3Y 8232   3.536   1.070   9.931  1.0935 -0.9597  0.7010
   86SAPS   C34 8233   3.341   1.038   9.877 -0.2665 -0.0096  0.5314
   86SAPS   H4X 8234   3.318   1.144   9.902 -1.0072 -0.4920  1.9007
   86SAPS   H4Y 8235   3.254   0.973   9.900 -1.2047  0.9344 -0.2793
   86SAPS   C35 8236   3.369   1.022   9.727 -0.4082  0.7796  0.5335
   86SAPS   H5X 8237   3.421   1.117   9.703  2.7118 -0.6186  1.4834
   86SAPS   H5Y 8238   3.283   1.034   9.658 -0.3769  1.2764  0.5824
   86SAPS   C36 8239   3.451   0.899   9.679  0.6147 -0.3945 -0.0301
   86SAPS   H6X 8240   3.405   0.808   9.721  1.4414 -0.7629  0.0950
   86SAPS   H6Y 8241   3.551   0.898   9.730  2.0387 -1.8434 -2.7587
   86SAPS   C37 8242   3.478   0.897   9.530  0.7471 -0.0273  0.2076
   86SAPS   H7X 8243   3.375   0.878   9.492  0.3954  0.9788  0.6592
   86SAPS   H7Y 8244   3.535   0.806   9.502 -0.1137 -0.5201  0.0335
   86SAPS   C38 8245   3.531   1.026   9.463  0.5163  0.3219 -0.0470
   86SAPS   H8X 8246   3.630   1.058   9.502  2.7029  0.8285 -5.5862
   86SAPS   H8Y 8247   3.465   1.112   9.488  1.6977  2.4703 -3.9078
   86SAPS   C39 8248   3.552   1.020   9.308  0.2892 -0.2229  0.9441
   86SAPS   H9X 8249   3.639   0.951   9.297 -0.1567 -0.5578 -0.5586
   86SAPS   H9Y 8250   3.589   1.121   9.277 -2.0971  1.2904  2.8804
   86SAPS  C310 8251   3.432   0.981   9.232  0.3019 -0.1374  0.6582
   86SAPS  H10X 8252   3.364   1.069   9.235  1.3305  0.8192 -2.3105
   86SAPS  H10Y 8253   3.372   0.899   9.278 -0.1136 -0.4421 -0.4079
   86SAPS  C311 8254   3.479   0.947   9.090 -0.1730  0.2828  1.2160
   86SAPS  H11X 8255   3.555   0.866   9.098  0.0087  0.5264  2.0206
   86SAPS  H11Y 8256   3.535   1.036   9.054  0.4064 -0.2827  0.7019
   86SAPS  C312 8257   3.355   0.905   9.010  0.2635 -0.3780 -0.0205
   86SAPS  H12X 8258   3.271   0.978   9.006  1.0281  0.4802 -0.3391
   86SAPS  H12Y 8259   3.326   0.805   9.049 -1.6232  0.1652  0.0302
   86SAPS  C313 8260   3.382   0.866   8.861 -0.5847 -0.0141  0.2332
   86SAPS  H13X 8261   3.398   0.962   8.807 -1.0933 -0.3208 -0.4667
   86SAPS  H13Y 8262   3.293   0.812   8.822 -1.2738  0.9638  0.4442
   86SAPS  C314 8263   3.500   0.771   8.846 -0.9691  0.2790 -0.1311
   86SAPS  H14X 8264   3.495   0.676   8.904 -0.3802  0.3912  0.1100
   86SAPS  H14Y 8265   3.593   0.817   8.886 -1.4775  0.2409  1.1220
   86SAPS  C315 8266   3.534   0.726   8.708 -0.5295 -0.7799  0.2791
   86SAPS  H15X 8267   3.591   0.806   8.658 -1.4305  0.7852  1.6812
   86SAPS  H15Y 8268   3.436   0.706   8.659  0.0559  2.5015 -2.4207
   86SAPS  C316 8269   3.590   0.584   8.692 -0.1784 -0.2162  0.1138
   86SAPS  H16X 8270   3.592   0.557   8.584  0.7456 -0.0950  0.0964
   86SAPS  H16Y 8271   3.519   0.515   8.741 -0.3070 -0.9963 -1.1613
   86SAPS  C317 8272   3.732   0.567   8.750 -0.0281 -0.4533  0.2074
   86SAPS  H17X 8273   3.731   0.608   8.853 -2.6120  1.6154 -0.5697
   86SAPS  H17Y 8274   3.796   0.636   8.692  0.7716 -0.6279  0.8834
   86SAPS  C318 8275   3.795   0.434   8.755  0.1651  0.1393 -0.0396
   86SAPS  H18X 8276   3.895   0.432   8.804  0.4250 -1.5300 -0.5976
   86SAPS  H18Y 8277   3.800   0.408   8.647 -2.6669 -0.1519 -0.1313
   86SAPS  H18Z 8278   3.731   0.358   8.804  0.3713  0.0535  0.0980
   87SAPS     N 8279   3.533   1.903  10.628  0.1156  0.1683  0.7237
   87SAPS   HN1 8280   3.513   1.849  10.541  0.2347 -0.0493  0.8297
   87SAPS   HN2 8281   3.471   1.986  10.626  1.1551  0.9812  1.4581
   87SAPS   HN3 8282   3.626   1.950  10.620  1.1926 -1.8661  0.7615
   87SAPS   C12 8283   3.523   1.831  10.754  0.0584 -0.5078 -0.0124
   87SAPS  H12A 8284   3.561   1.731  10.740  1.2263 -0.3137  1.6877
   87SAPS   C13 8285   3.605   1.894  10.868  0.2922  0.0654  0.0946
   87SAPS  O13A 8286   3.699   1.971  10.837  0.1502 -0.5220 -0.1937
   87SAPS  O13B 8287   3.589   1.847  10.984  0.1904 -0.7984 -0.1652
   87SAPS   C11 8288   3.372   1.836  10.795  0.8094  0.3310 -0.2510
   87SAPS  H11A 8289   3.344   1.943  10.797  0.3036  0.1874  0.3528
   87SAPS  H11B 8290   3.366   1.794  10.898 -0.5425 -0.6422 -0.7240
   87SAPS     P 8291   3.285   1.597  10.725 -0.0161 -0.0589 -0.1715
   87SAPS   O13 8292   3.409   1.540  10.780 -0.0882  1.1736  0.3102
   87SAPS   O14 8293   3.162   1.569  10.802  0.5894 -0.3159  0.2441
   87SAPS   O12 8294   3.293   1.759  10.702  0.2967  0.2255 -0.5095
   87SAPS   O11 8295   3.268   1.544  10.579  0.1210  0.4339  0.2960
   87SAPS    C1 8296   3.165   1.598  10.491  0.0436  0.5536 -0.6283
   87SAPS    HA 8297   3.113   1.680  10.546 -0.2725 -0.5070  0.6944
   87SAPS    HB 8298   3.211   1.618  10.392 -1.7950  2.4403 -1.1333
   87SAPS    C2 8299   3.062   1.488  10.479  0.8824  0.5712  0.4024
   87SAPS    HS 8300   3.045   1.453  10.583  0.7218  0.5934  0.3831
   87SAPS   O21 8301   3.119   1.381  10.400 -0.0314 -0.1471  0.4069
   87SAPS   C21 8302   3.097   1.264  10.445  1.2622  0.3411 -0.5783
   87SAPS   O22 8303   3.009   1.234  10.530  0.0072 -0.1648  0.1078
   87SAPS   C22 8304   3.196   1.169  10.377 -0.3067 -0.8207  0.3518
   87SAPS   H2R 8305   3.185   1.185  10.268 -0.5514  1.3767  0.6792
   87SAPS   H2S 8306   3.293   1.207  10.417 -0.5755  1.5080 -1.1207
   87SAPS    C3 8307   2.922   1.519  10.411 -0.6633  0.2126 -0.7513
   87SAPS    HX 8308   2.859   1.598  10.459 -0.4132 -0.6078  0.9566
   87SAPS    HY 8309   2.862   1.426  10.406 -0.1613 -0.0566 -2.1336
   87SAPS   O31 8310   2.952   1.561  10.276 -1.0122  0.0598 -0.5883
   87SAPS   C31 8311   2.971   1.691  10.252  0.6917  0.1433 -0.0565
   87SAPS   O32 8312   2.940   1.785  10.324 -0.3485 -0.0108 -0.8658
   87SAPS   C32 8313   3.036   1.704  10.114  0.0923  0.0222 -0.2373
   87SAPS   H2X 8314   2.958   1.718  10.037 -0.1821 -0.1614  0.0062
   87SAPS   H2Y 8315   3.089   1.608  10.097 -0.3569  0.0251 -1.6976
   87SAPS   C23 8316   3.176   1.023  10.412  0.4544  1.2761 -0.6021
   87SAPS   H3R 8317   3.171   1.009  10.522 -1.3534  1.6891 -0.6088
   87SAPS   H3S 8318   3.268   0.970  10.379  0.4959  2.1628 -1.9256
   87SAPS   C24 8319   3.071   0.951  10.323 -0.2379  0.7045 -0.3193
   87SAPS   H4R 8320   3.080   0.997  10.222 -2.3938 -0.4728 -1.0912
   87SAPS   H4S 8321   2.978   1.001  10.358  0.2433  1.0972  0.3937
   87SAPS   C25 8322   3.070   0.803  10.336  0.7042  0.1260 -0.5948
   87SAPS   H5R 8323   3.049   0.767  10.438 -1.3289 -1.0123 -1.3864
   87SAPS   C26 8324   3.094   0.706  10.240 -0.5367 -0.4257  0.1084
   87SAPS   H6R 8325   3.073   0.602  10.267  0.5175 -0.6062  0.2307
   87SAPS   C27 8326   3.120   0.738  10.094 -0.3321  0.1577 -0.4512
   87SAPS   H7R 8327   3.103   0.846  10.074  0.6519  0.3964 -0.0611
   87SAPS   H7S 8328   3.048   0.694  10.022 -0.2242 -2.9825  1.2506
   87SAPS   C28 8329   3.262   0.698  10.067 -0.0506 -0.2968 -0.1293
   87SAPS   H8R 8330   3.330   0.733  10.147 -0.2408  0.8565 -0.4640
   87SAPS   C29 8331   3.312   0.625   9.965 -0.1915  0.1942  0.3339
   87SAPS   H9R 8332   3.416   0.588   9.965  0.7016  2.6196 -0.4481
   87SAPS  C210 8333   3.227   0.560   9.857 -0.7171  0.1589 -0.1864
   87SAPS  H10R 8334   3.257   0.619   9.768  3.4471 -0.6070  0.6314
   87SAPS  H10S 8335   3.119   0.576   9.879 -0.9637 -1.7353  0.0973
   87SAPS  C211 8336   3.256   0.417   9.838 -0.3940 -0.6273  0.2701
   87SAPS  H11R 8337   3.200   0.343   9.898  0.9582 -3.3702 -1.7197
   87SAPS  C212 8338   3.337   0.360   9.747 -0.5967  0.4779 -0.3481
   87SAPS  H12R 8339   3.320   0.255   9.720 -1.7837  0.4718  0.3792
   87SAPS  C213 8340   3.420   0.444   9.646  0.4503  0.2671 -0.5723
   87SAPS  H13R 8341   3.441   0.544   9.690 -2.4048 -0.2919  2.2487
   87SAPS  H13S 8342   3.351   0.464   9.561  0.6713  0.5682 -0.6810
   87SAPS  C214 8343   3.545   0.376   9.599 -0.1723 -0.1958 -0.7452
   87SAPS  H14R 8344   3.646   0.409   9.629  0.1216  0.1457 -2.0558
   87SAPS  C215 8345   3.541   0.283   9.491 -0.2219 -0.7343 -0.7290
   87SAPS  H15R 8346   3.637   0.231   9.477  1.3601  2.0624 -0.5798
   87SAPS  C216 8347   3.424   0.237   9.411  0.5980 -0.0346 -1.1140
   87SAPS  H16R 8348   3.324   0.269   9.449  0.6822 -0.3985 -0.5815
   87SAPS  H16S 8349   3.422   0.126   9.409 -0.4147 -0.0234 -0.7175
   87SAPS  C217 8350   3.419   0.274   9.260  0.2071 -0.4836  0.2000
   87SAPS  H17R 8351   3.435   0.383   9.243  1.3758 -0.6781  0.0710
   87SAPS  H17S 8352   3.313   0.254   9.233  0.8340  0.5922 -3.2864
   87SAPS  C218 8353   3.501   0.182   9.167  1.0848 -0.6136  0.0055
   87SAPS  H18R 8354   3.467   0.077   9.177 -3.9943  1.0832  2.2989
   87SAPS  H18S 8355   3.610   0.188   9.187  1.6207 -2.0574 -2.2301
   87SAPS  C219 8356   3.496   0.229   9.020 -0.2535  0.4305  0.3413
   87SAPS  H19R 8357   3.554   0.324   9.016  0.1690  0.2196  1.2497
   87SAPS  H19S 8358   3.396   0.239   8.973 -0.0092  1.4372  0.0224
   87SAPS  C220 8359   3.582   0.128   8.936  0.1938  0.1909  0.3221
   87SAPS  H20R 8360   3.679   0.107   8.986 -0.1495 -0.7110  0.6354
   87SAPS  H20S 8361   3.583   0.149   8.827  0.2954 -0.9464  0.0933
   87SAPS  H20T 8362   3.532   0.028   8.941  0.5622 -0.0237 -0.2286
   87SAPS   C33 8363   3.132   1.819  10.088 -0.1392 -0.0403 -0.9840
   87SAPS   H3X 8364   3.194   1.821  10.181  0.6355  2.1691 -1.5164
   87SAPS   H3Y 8365   3.085   1.917  10.068 -0.1746  0.2674  0.5572
   87SAPS   C34 8366   3.227   1.805   9.967  0.9669  0.3455 -0.0813
   87SAPS   H4X 8367   3.302   1.730   9.999 -0.8333 -0.9691  1.1619
   87SAPS   H4Y 8368   3.287   1.894   9.941  0.0042  1.4317  1.3891
   87SAPS   C35 8369   3.155   1.761   9.836  0.1758  1.0781 -1.0960
   87SAPS   H5X 8370   3.086   1.839   9.799 -0.4102  1.0699 -0.0286
   87SAPS   H5Y 8371   3.089   1.673   9.851  0.5307  1.1296  0.8454
   87SAPS   C36 8372   3.247   1.705   9.723 -0.6583 -0.1969 -0.1825
   87SAPS   H6X 8373   3.196   1.620   9.673  0.5187 -0.4798 -0.9374
   87SAPS   H6Y 8374   3.349   1.681   9.761 -0.0784  1.8425 -0.3761
   87SAPS   C37 8375   3.260   1.816   9.614 -0.4287  0.0482  0.1790
   87SAPS   H7X 8376   3.306   1.912   9.646 -1.9268  0.4996  1.0463
   87SAPS   H7Y 8377   3.157   1.840   9.580  0.5858 -0.2391 -3.2833
   87SAPS   C38 8378   3.337   1.784   9.485  0.4191  0.1348 -0.3529
   87SAPS   H8X 8379   3.298   1.691   9.439  0.5951 -1.2113  2.0812
   87SAPS   H8Y 8380   3.444   1.760   9.506  0.4185 -0.3078 -0.8598
   87SAPS   C39 8381   3.325   1.892   9.377 -0.5282  0.2862  0.1892
   87SAPS   H9X 8382   3.395   1.969   9.417  0.9070 -0.3433 -1.0575
   87SAPS   H9Y 8383   3.226   1.942   9.371 -0.1683  0.8834 -1.0131
   87SAPS  C310 8384   3.367   1.842   9.240  0.5783 -0.2878  0.2198
   87SAPS  H10X 8385   3.305   1.755   9.212 -0.1267  0.4528 -0.5597
   87SAPS  H10Y 8386   3.473   1.812   9.240  0.7062  0.0920 -1.4375
   87SAPS  C311 8387   3.378   1.941   9.121  0.0183  0.6404 -0.9593
   87SAPS  H11X 8388   3.440   2.023   9.163 -2.6004  2.0358  0.3151
   87SAPS  H11Y 8389   3.289   1.999   9.089 -0.0914  0.0446 -1.7627
   87SAPS  C312 8390   3.455   1.888   8.999 -0.4722 -0.0639  0.2458
   87SAPS  H12X 8391   3.404   1.795   8.966 -1.3127 -0.0869  1.5849
   87SAPS  H12Y 8392   3.559   1.860   9.026 -0.6002  0.9521  1.8582
   87SAPS  C313 8393   3.467   1.997   8.894  0.6087  0.0464  0.9303
   87SAPS  H13X 8394   3.532   2.081   8.925 -0.1296  0.4508  1.4174
   87SAPS  H13Y 8395   3.362   2.036   8.889  1.1244  1.5612  1.5740
   87SAPS  C314 8396   3.504   1.927   8.760 -1.0116 -0.0231  0.3993
   87SAPS  H14X 8397   3.493   2.011   8.688  0.5556 -0.3367 -0.2149
   87SAPS  H14Y 8398   3.427   1.857   8.720  0.6913 -0.3175 -2.4843
   87SAPS  C315 8399   3.643   1.867   8.747 -0.3199  0.5160 -0.0976
   87SAPS  H15X 8400   3.626   1.762   8.780  1.4891 -0.0348 -0.8467
   87SAPS  H15Y 8401   3.713   1.913   8.820  0.3304 -1.8398  0.8030
   87SAPS  C316 8402   3.706   1.883   8.601 -0.6528 -0.5473  1.3244
   87SAPS  H16X 8403   3.815   1.894   8.619  0.2604 -3.3147 -2.1737
   87SAPS  H16Y 8404   3.678   1.983   8.561 -0.0555 -0.2972  1.5298
   87SAPS  C317 8405   3.663   1.757   8.523  1.1368  0.1357  1.0886
   87SAPS  H17X 8406   3.558   1.770   8.488  1.2150 -0.3127  0.6822
   87SAPS  H17Y 8407   3.665   1.662   8.581 -0.8568 -0.8494 -0.4244
   87SAPS  C318 8408   3.736   1.724   8.390 -0.0300  1.2456 -0.1062
   87SAPS  H18X 8409   3.702   1.625   8.352 -0.9794  1.7753 -0.6693
   87SAPS  H18Y 8410   3.846   1.728   8.404 -0.0473 -0.0435  0.4231
   87SAPS  H18Z 8411   3.693   1.786   8.308 -3.1821 -1.1461 -0.3827
   88SAPS     N 8412   6.345   5.744  10.866  0.5982  0.0371  0.2880
   88SAPS   HN1 8413   6.266   5.730  10.800  1.6181 -1.4707 -0.6378
   88SAPS   HN2 8414   6.400   5.832  10.856 -1.6142  1.2223 -2.1819
   88SAPS   HN3 8415   6.416   5.668  10.865 -0.1403 -0.6485 -0.5201
   88SAPS   C12 8416   6.282   5.744  10.997 -0.6845 -0.1698 -0.4203
   88SAPS  H12A 8417   6.231   5.649  10.991 -1.4207  0.2965 -1.8215
   88SAPS   C13 8418   6.381   5.757  11.117  0.4907  0.0515  0.1262
   88SAPS  O13A 8419   6.500   5.772  11.092 -0.7046  0.2042  0.2204
   88SAPS  O13B 8420   6.340   5.743  11.236 -0.8924  0.1270  0.0947
   88SAPS   C11 8421   6.178   5.864  10.993  0.3471 -0.7506  0.1689
   88SAPS  H11A 8422   6.226   5.960  10.966  0.8091 -0.4055  2.1702
   88SAPS  H11B 8423   6.129   5.873  11.093 -1.3541  0.3062 -0.7359
   88SAPS     P 8424   5.962   5.944  10.860 -0.0083  0.4913  0.1827
   88SAPS   O13 8425   5.864   5.877  10.768  0.4160 -0.7319  0.4016
   88SAPS   O14 8426   5.919   5.985  10.993  0.0389  0.9316  0.8134
   88SAPS   O12 8427   6.071   5.835  10.896  0.6612 -0.3189 -0.0788
   88SAPS   O11 8428   6.041   6.059  10.782  0.3878 -0.4929  0.4181
   88SAPS    C1 8429   6.116   6.038  10.665 -0.1111  0.1995  0.4847
   88SAPS    HA 8430   6.222   6.065  10.684 -0.6710  2.2581  0.8222
   88SAPS    HB 8431   6.127   5.932  10.636  1.5403  0.2582  0.8838
   88SAPS    C2 8432   6.074   6.125  10.542  0.3345  0.4513 -0.9156
   88SAPS    HS 8433   6.076   6.229  10.580  0.2190 -0.1244  0.7220
   88SAPS   O21 8434   5.941   6.085  10.495  0.1633 -0.0872 -0.6076
   88SAPS   C21 8435   5.840   6.147  10.551 -0.3364  0.0353  0.0383
   88SAPS   O22 8436   5.846   6.238  10.630 -0.1827  0.2961  0.3920
   88SAPS   C22 8437   5.719   6.077  10.491  1.1550  0.3548  0.0777
   88SAPS   H2R 8438   5.753   6.030  10.396  0.3870  0.1678 -0.1097
   88SAPS   H2S 8439   5.692   6.000  10.567 -1.3600  1.1554  0.0549
   88SAPS    C3 8440   6.168   6.121  10.421 -0.6108 -0.6417  0.0150
   88SAPS    HX 8441   6.270   6.148  10.457  0.3090 -2.1831 -1.3600
   88SAPS    HY 8442   6.135   6.192  10.343 -0.8365 -0.3343  0.3926
   88SAPS   O31 8443   6.174   5.979  10.369 -0.3275  0.5172 -0.1398
   88SAPS   C31 8444   6.296   5.926  10.348 -0.3590 -0.6180  0.4911
   88SAPS   O32 8445   6.401   5.987  10.367  0.1631  0.1853  0.2572
   88SAPS   C32 8446   6.274   5.790  10.281  0.1945 -0.3679  0.1740
   88SAPS   H2X 8447   6.168   5.757  10.272  0.5948 -1.7088  0.2016
   88SAPS   H2Y 8448   6.326   5.712  10.341 -0.5873 -1.0995 -0.0822
   88SAPS   C23 8449   5.608   6.175  10.457  0.6481 -0.7058 -0.0277
   88SAPS   H3R 8450   5.636   6.239  10.371 -1.8428  0.2614 -0.1501
   88SAPS   H3S 8451   5.603   6.243  10.545  3.4086  0.4864 -0.7151
   88SAPS   C24 8452   5.473   6.119  10.429  0.6389  0.6754  0.5595
   88SAPS   H4R 8453   5.406   6.206  10.416 -1.4403 -0.8662  0.7201
   88SAPS   H4S 8454   5.440   6.066  10.521  0.4612  0.1058  0.1764
   88SAPS   C25 8455   5.456   6.010  10.328 -0.0755 -0.0387 -0.1800
   88SAPS   H5R 8456   5.471   5.904  10.353  1.8664  0.5811  1.4249
   88SAPS   C26 8457   5.432   6.049  10.199 -0.1402  0.0125  0.0238
   88SAPS   H6R 8458   5.423   5.970  10.123  3.4085 -1.7832  1.3554
   88SAPS   C27 8459   5.429   6.189  10.147  0.8815 -0.1224 -0.0603
   88SAPS   H7R 8460   5.479   6.189  10.048 -0.5581 -2.2847 -0.8467
   88SAPS   H7S 8461   5.481   6.264  10.210 -0.2788 -0.1265  0.9198
   88SAPS   C28 8462   5.286   6.246  10.131  0.2056 -0.1582 -0.3000
   88SAPS   H8R 8463   5.210   6.220  10.206 -1.2384 -0.4884 -1.8423
   88SAPS   C29 8464   5.240   6.323  10.035  0.4871 -0.1538  0.1583
   88SAPS   H9R 8465   5.130   6.333  10.040  0.5444  0.1679  0.9415
   88SAPS  C210 8466   5.323   6.364   9.914  0.4858  0.4795 -0.2298
   88SAPS  H10R 8467   5.356   6.279   9.851 -0.0116  1.2853 -1.5988
   88SAPS  H10S 8468   5.415   6.414   9.951  0.0906  0.3379  0.9645
   88SAPS  C211 8469   5.249   6.475   9.839 -0.7667  0.4922  0.0631
   88SAPS  H11R 8470   5.232   6.568   9.896 -1.0722  0.9246 -0.7271
   88SAPS  C212 8471   5.200   6.470   9.718 -0.0981  0.2277  1.1712
   88SAPS  H12R 8472   5.156   6.562   9.677 -2.0431 -1.3771 -0.4511
   88SAPS  C213 8473   5.207   6.355   9.623 -0.9619  0.0211 -0.2563
   88SAPS  H13R 8474   5.236   6.260   9.672 -0.2926 -0.9142 -2.4011
   88SAPS  H13S 8475   5.276   6.381   9.539 -0.8884  0.6845  0.0082
   88SAPS  C214 8476   5.060   6.341   9.577  0.7344 -0.0352 -0.4136
   88SAPS  H14R 8477   5.006   6.285   9.655  0.7608  1.5775  0.7969
   88SAPS  C215 8478   5.004   6.384   9.464  0.5620  0.0072  0.1913
   88SAPS  H15R 8479   4.895   6.379   9.449  0.3883  0.8163  1.0577
   88SAPS  C216 8480   5.078   6.471   9.368 -0.0646 -0.5074  0.5490
   88SAPS  H16R 8481   5.178   6.509   9.401 -1.1527  0.6809  2.5989
   88SAPS  H16S 8482   5.026   6.569   9.360  1.8348  0.3548 -2.2054
   88SAPS  C217 8483   5.094   6.405   9.223 -0.2484 -0.3033 -1.1207
   88SAPS  H17R 8484   4.992   6.396   9.179 -0.1546 -1.0150 -1.2038
   88SAPS  H17S 8485   5.142   6.305   9.231  0.1596  0.0011  0.3457
   88SAPS  C218 8486   5.164   6.504   9.131 -0.8610 -1.1425 -0.3323
   88SAPS  H18R 8487   5.269   6.521   9.162 -0.8845 -0.1160 -0.8092
   88SAPS  H18S 8488   5.112   6.602   9.137 -1.3624 -1.3023 -1.8733
   88SAPS  C219 8489   5.167   6.464   8.990 -0.5211 -0.3497  0.4585
   88SAPS  H19R 8490   5.068   6.447   8.944 -0.3247 -2.7256  0.8243
   88SAPS  H19S 8491   5.222   6.369   8.972  0.2583  0.1106  0.3527
   88SAPS  C220 8492   5.240   6.568   8.907 -0.3588  0.5216 -0.5574
   88SAPS  H20R 8493   5.339   6.585   8.953 -1.2695 -0.5274  1.8518
   88SAPS  H20S 8494   5.180   6.661   8.894 -0.3314  0.3238 -2.2718
   88SAPS  H20T 8495   5.257   6.529   8.804 -3.8435 -1.6903 -0.3645
   88SAPS   C33 8496   6.321   5.790  10.138 -0.2210 -0.0367  0.1539
   88SAPS   H3X 8497   6.309   5.691  10.089  0.4083 -0.0263 -0.0365
   88SAPS   H3Y 8498   6.429   5.812  10.154 -0.9125  1.2930  3.2749
   88SAPS   C34 8499   6.254   5.899  10.058 -0.6431 -0.0313 -0.0441
   88SAPS   H4X 8500   6.216   5.985  10.117 -0.3206 -1.2182  1.9103
   88SAPS   H4Y 8501   6.165   5.856  10.008 -0.2427 -2.8923  1.6125
   88SAPS   C35 8502   6.347   5.958   9.943 -0.3487 -0.1544 -0.5257
   88SAPS   H5X 8503   6.443   5.903   9.937 -1.1394 -1.4681 -1.6906
   88SAPS   H5Y 8504   6.375   6.061   9.971 -1.1735 -0.3499  1.0581
   88SAPS   C36 8505   6.288   5.949   9.807  0.4787  0.1630 -0.1826
   88SAPS   H6X 8506   6.215   6.031   9.792 -1.7022 -1.7489 -0.3327
   88SAPS   H6Y 8507   6.238   5.851   9.787  0.4364  0.1343  0.0690
   88SAPS   C37 8508   6.390   5.977   9.690 -0.0230  0.3014 -0.3857
   88SAPS   H7X 8509   6.482   5.921   9.720  0.1289  1.0159  0.4921
   88SAPS   H7Y 8510   6.439   6.077   9.692  0.8421 -0.1250  1.2754
   88SAPS   C38 8511   6.345   5.936   9.555 -0.1074  0.0124  0.1972
   88SAPS   H8X 8512   6.246   5.983   9.537 -1.1230 -2.2811 -0.3358
   88SAPS   H8Y 8513   6.322   5.829   9.569 -0.9406  0.1743  0.0879
   88SAPS   C39 8514   6.443   5.977   9.447 -0.4610 -0.7651 -0.4567
   88SAPS   H9X 8515   6.543   5.937   9.474 -0.0132  0.0161 -0.9352
   88SAPS   H9Y 8516   6.442   6.088   9.443 -4.0215 -0.7646 -1.6489
   88SAPS  C310 8517   6.402   5.925   9.310  0.6239  0.2246 -0.0632
   88SAPS  H10X 8518   6.354   5.824   9.314  0.4280  0.2171 -1.9268
   88SAPS  H10Y 8519   6.493   5.912   9.248 -0.3356  1.4396 -1.7564
   88SAPS  C311 8520   6.313   6.016   9.229  0.3665  0.2880  0.9145
   88SAPS  H11X 8521   6.354   6.117   9.209 -0.6197  0.1680 -1.9895
   88SAPS  H11Y 8522   6.225   6.037   9.293 -1.7637  0.9240 -2.1052
   88SAPS  C312 8523   6.261   5.956   9.095  0.1676 -1.1736 -1.3151
   88SAPS  H12X 8524   6.162   5.999   9.070  0.7660  0.6922 -0.5516
   88SAPS  H12Y 8525   6.257   5.845   9.106 -2.4609 -1.0453 -0.5985
   88SAPS  C313 8526   6.333   5.964   8.960  0.1537 -0.0624  0.3059
   88SAPS  H13X 8527   6.432   5.914   8.960 -0.1058 -0.6056 -1.4759
   88SAPS  H13Y 8528   6.339   6.072   8.931  1.6841  0.7034  3.3196
   88SAPS  C314 8529   6.246   5.894   8.857 -0.2358  0.2303  0.4782
   88SAPS  H14X 8530   6.160   5.963   8.843 -1.5307 -1.1214  1.6036
   88SAPS  H14Y 8531   6.211   5.799   8.903  1.2400 -0.3267  0.4576
   88SAPS  C315 8532   6.310   5.871   8.719  0.4038 -0.0967 -0.0149
   88SAPS  H15X 8533   6.242   5.805   8.661 -1.9467  1.1109  1.2901
   88SAPS  H15Y 8534   6.409   5.822   8.723  1.2255  1.4790 -0.7891
   88SAPS  C316 8535   6.324   6.002   8.632  0.1376 -0.4610 -0.8799
   88SAPS  H16X 8536   6.392   5.995   8.545 -0.8507  1.3270 -1.8136
   88SAPS  H16Y 8537   6.364   6.089   8.689 -1.6510  0.7368 -1.4090
   88SAPS  C317 8538   6.189   6.046   8.578  0.0713  0.1894  0.5283
   88SAPS  H17X 8539   6.122   6.042   8.666 -0.5277 -2.2299 -0.0168
   88SAPS  H17Y 8540   6.154   5.964   8.512  0.5501 -0.3503  0.9442
   88SAPS  C318 8541   6.179   6.182   8.506  0.3281  0.3208 -0.2393
   88SAPS  H18X 8542   6.074   6.187   8.470  0.3148 -0.9184 -0.4209
   88SAPS  H18Y 8543   6.244   6.190   8.416 -0.1758  0.5880 -0.5802
   88SAPS  H18Z 8544   6.179   6.276   8.565 -0.7618 -0.2914  0.7338
   89SAPS     N 8545   6.101   2.808  10.872 -0.2088 -0.1364  0.2090
   89SAPS   HN1 8546   6.193   2.820  10.825  0.2413 -0.2524  1.0468
   89SAPS   HN2 8547   6.027   2.843  10.809 -2.7397  0.1176  3.1828
   89SAPS   HN3 8548   6.104   2.862  10.961 -0.2538  0.5142 -0.1881
   89SAPS   C12 8549   6.088   2.662  10.902  0.6617 -0.0803 -0.0547
   89SAPS  H12A 8550   6.116   2.618  10.807  0.8369  3.2002 -1.5952
   89SAPS   C13 8551   6.174   2.606  11.015 -0.0650 -0.1925 -0.1280
   89SAPS  O13A 8552   6.256   2.680  11.079 -0.0491  0.4265 -0.5485
   89SAPS  O13B 8553   6.178   2.479  11.020 -0.4753 -0.1126 -0.1317
   89SAPS   C11 8554   5.940   2.625  10.934  0.2014 -0.3380  0.0493
   89SAPS  H11A 8555   5.919   2.679  11.029 -0.6701 -0.4892 -0.0500
   89SAPS  H11B 8556   5.928   2.516  10.953 -2.3444  0.3016  2.3757
   89SAPS     P 8557   5.819   2.578  10.707 -0.0313 -0.0914 -0.0567
   89SAPS   O13 8558   5.942   2.546  10.634  0.3198  0.0089 -0.1810
   89SAPS   O14 8559   5.732   2.471  10.767 -0.6042 -0.3884  0.6600
   89SAPS   O12 8560   5.848   2.673  10.832 -0.6062 -0.3987 -0.8740
   89SAPS   O11 8561   5.730   2.682  10.618  0.2097  0.5235  0.3212
   89SAPS    C1 8562   5.609   2.636  10.566 -0.6469 -0.5688  0.0672
   89SAPS    HA 8563   5.563   2.550  10.618 -0.2236 -0.1444  1.1402
   89SAPS    HB 8564   5.537   2.720  10.566  2.6725  2.4144  2.0088
   89SAPS    C2 8565   5.614   2.572  10.424  0.3520 -0.0184  0.5668
   89SAPS    HS 8566   5.511   2.570  10.384 -0.2609 -2.4109  2.1902
   89SAPS   O21 8567   5.663   2.437  10.449  0.2037  0.1244  0.1716
   89SAPS   C21 8568   5.614   2.352  10.357  0.4300  0.0546  0.0173
   89SAPS   O22 8569   5.558   2.379  10.253  0.1868 -0.3032 -0.0104
   89SAPS   C22 8570   5.649   2.209  10.397  0.8234 -0.0520  0.0970
   89SAPS   H2R 8571   5.753   2.197  10.358  0.8331 -1.8164  0.5959
   89SAPS   H2S 8572   5.644   2.204  10.508  1.6383 -0.6747  0.1156
   89SAPS    C3 8573   5.716   2.651  10.329  0.4240  0.1864  0.5295
   89SAPS    HX 8574   5.819   2.634  10.368  1.9900 -0.1017 -3.4837
   89SAPS    HY 8575   5.690   2.759  10.340  0.3110  0.0728  1.3881
   89SAPS   O31 8576   5.704   2.618  10.188  0.2707 -0.1637  0.4943
   89SAPS   C31 8577   5.788   2.533  10.132 -1.0777  0.8736  0.8504
   89SAPS   O32 8578   5.892   2.490  10.185 -0.4868  0.0769  0.4786
   89SAPS   C32 8579   5.720   2.488  10.001 -0.2133 -0.0108 -0.1215
   89SAPS   H2X 8580   5.632   2.554   9.984  0.6188  1.3053  0.6406
   89SAPS   H2Y 8581   5.685   2.384  10.021 -0.1349 -0.7670 -3.6145
   89SAPS   C23 8582   5.573   2.084  10.349  0.0122 -0.4864 -0.4748
   89SAPS   H3R 8583   5.482   2.088  10.413 -0.3244 -0.6943 -0.9361
   89SAPS   H3S 8584   5.631   1.995  10.382  2.0198  0.9991  0.0984
   89SAPS   C24 8585   5.528   2.077  10.202 -0.0518 -0.1270 -0.0534
   89SAPS   H4R 8586   5.453   2.156  10.184  0.5907 -0.1301 -2.9024
   89SAPS   H4S 8587   5.463   1.988  10.186 -2.1591  1.7970 -2.5610
   89SAPS   C25 8588   5.644   2.091  10.105 -0.0318  0.2654  1.0028
   89SAPS   H5R 8589   5.733   2.139  10.149  2.4968 -3.0003 -0.2851
   89SAPS   C26 8590   5.642   2.047   9.976  0.2935  0.0414  0.3958
   89SAPS   H6R 8591   5.732   2.069   9.916  1.6145 -1.9195  1.5947
   89SAPS   C27 8592   5.523   1.982   9.903  0.0825 -0.0183  0.0703
   89SAPS   H7R 8593   5.437   2.030   9.954  1.0444 -0.4855  2.1728
   89SAPS   H7S 8594   5.534   1.875   9.928  0.4277  0.2895  1.2642
   89SAPS   C28 8595   5.521   2.025   9.755 -0.3341  0.1596  0.5975
   89SAPS   H8R 8596   5.454   2.110   9.732 -0.9334 -0.6512 -0.7280
   89SAPS   C29 8597   5.581   1.981   9.642 -0.9012  0.4538  0.2864
   89SAPS   H9R 8598   5.564   2.042   9.552  0.0289 -0.0529 -0.2360
   89SAPS  C210 8599   5.665   1.858   9.631 -0.2024 -0.5624 -0.4939
   89SAPS  H10R 8600   5.618   1.789   9.558 -2.6935  1.7287 -1.1386
   89SAPS  H10S 8601   5.650   1.794   9.721  1.7373 -2.4367 -1.4539
   89SAPS  C211 8602   5.806   1.890   9.611  0.8021  0.9104 -0.2005
   89SAPS  H11R 8603   5.857   1.921   9.703  0.7290 -2.9113  1.1915
   89SAPS  C212 8604   5.872   1.878   9.494  1.0119  0.2880 -0.1784
   89SAPS  H12R 8605   5.978   1.907   9.493  1.7992 -2.3652  1.4989
   89SAPS  C213 8606   5.806   1.830   9.362  0.2579  0.1160  0.2515
   89SAPS  H13R 8607   5.736   1.749   9.392 -1.6575  2.1568  1.3898
   89SAPS  H13S 8608   5.881   1.789   9.291  0.5854  2.6575 -0.9339
   89SAPS  C214 8609   5.728   1.935   9.284 -0.4085 -0.5747 -0.0621
   89SAPS  H14R 8610   5.678   2.001   9.356 -0.6696 -0.9207  0.0777
   89SAPS  C215 8611   5.717   1.957   9.150 -0.1302 -0.1195 -0.9006
   89SAPS  H15R 8612   5.679   2.048   9.102  0.0096  1.3926  1.7745
   89SAPS  C216 8613   5.775   1.872   9.042  0.5618  0.1437  0.6555
   89SAPS  H16R 8614   5.688   1.847   8.977  0.8787  0.4577  0.1029
   89SAPS  H16S 8615   5.817   1.779   9.085  0.8836  0.1590  0.3804
   89SAPS  C217 8616   5.886   1.935   8.968 -0.1281 -0.1808  0.3486
   89SAPS  H17R 8617   5.976   1.948   9.031 -1.2911  1.2439  1.7354
   89SAPS  H17S 8618   5.852   2.032   8.927 -0.0923 -0.2536  0.1454
   89SAPS  C218 8619   5.927   1.848   8.842 -0.0146 -0.0610  0.0795
   89SAPS  H18R 8620   5.937   1.744   8.878  3.1097 -0.5767 -2.0686
   89SAPS  H18S 8621   6.029   1.888   8.821  0.1306 -0.8214 -0.7067
   89SAPS  C219 8622   5.827   1.851   8.721  0.3396 -0.2449  0.0664
   89SAPS  H19R 8623   5.852   1.939   8.659  0.8822 -0.9600 -0.7262
   89SAPS  H19S 8624   5.729   1.873   8.770  0.2804 -1.3354  0.4527
   89SAPS  C220 8625   5.821   1.719   8.644 -0.0897 -0.0487 -0.0683
   89SAPS  H20R 8626   5.789   1.638   8.712 -0.2566 -1.0798 -1.3658
   89SAPS  H20S 8627   5.910   1.695   8.581 -0.5236 -0.9394 -0.3370
   89SAPS  H20T 8628   5.737   1.724   8.572 -0.7523 -2.2866  0.5211
   89SAPS   C33 8629   5.813   2.476   9.875 -0.1270 -0.6255  0.3564
   89SAPS   H3X 8630   5.916   2.447   9.905  1.0864  2.6532 -0.4344
   89SAPS   H3Y 8631   5.822   2.576   9.827  0.0931 -0.5151  0.6250
   89SAPS   C34 8632   5.755   2.378   9.774  0.4345  0.6631  0.3639
   89SAPS   H4X 8633   5.667   2.424   9.725  0.3316  1.1611  0.9989
   89SAPS   H4Y 8634   5.732   2.294   9.843 -0.5362  0.7182  0.1106
   89SAPS   C35 8635   5.861   2.318   9.675  0.6031 -0.5285  0.0991
   89SAPS   H5X 8636   5.807   2.244   9.613 -0.9774  0.2179  0.5468
   89SAPS   H5Y 8637   5.948   2.263   9.717 -0.5030 -1.9380  0.5717
   89SAPS   C36 8638   5.932   2.422   9.581  0.1787  0.1363  0.8949
   89SAPS   H6X 8639   6.007   2.358   9.530  0.6452  1.8323 -0.6237
   89SAPS   H6Y 8640   5.990   2.491   9.646  2.7945 -0.0812 -1.1182
   89SAPS   C37 8641   5.858   2.511   9.480 -0.6290  0.2345 -0.2318
   89SAPS   H7X 8642   5.927   2.570   9.416 -0.7524  0.3366 -0.2712
   89SAPS   H7Y 8643   5.796   2.576   9.546  0.4442 -2.0350  3.1249
   89SAPS   C38 8644   5.760   2.431   9.388  0.1235 -0.4122  0.1586
   89SAPS   H8X 8645   5.736   2.503   9.307  1.1667  0.8169  0.9311
   89SAPS   H8Y 8646   5.668   2.400   9.443  1.0863  1.0325  2.6409
   89SAPS   C39 8647   5.829   2.312   9.315  0.1330 -0.5266  0.4530
   89SAPS   H9X 8648   5.747   2.268   9.255  0.0035 -0.2124  0.3985
   89SAPS   H9Y 8649   5.861   2.239   9.393 -0.5518 -1.4633 -0.1505
   89SAPS  C310 8650   5.948   2.336   9.223  0.2655  0.5215 -0.3321
   89SAPS  H10X 8651   5.965   2.236   9.178 -1.2901  0.8290 -1.6642
   89SAPS  H10Y 8652   6.038   2.362   9.283 -1.3905 -0.3378  2.6551
   89SAPS  C311 8653   5.923   2.428   9.103 -0.1496  0.2147  0.6163
   89SAPS  H11X 8654   6.023   2.441   9.056  0.4180  0.2444  1.8107
   89SAPS  H11Y 8655   5.881   2.528   9.127  0.9535  0.4647  1.5655
   89SAPS  C312 8656   5.835   2.358   8.997 -0.7677 -0.0001  0.0762
   89SAPS  H12X 8657   5.728   2.363   9.030 -0.2339  2.3266  1.6251
   89SAPS  H12Y 8658   5.855   2.250   8.983 -1.6639 -0.5115  2.4055
   89SAPS  C313 8659   5.860   2.425   8.862 -1.1737  0.0115 -0.4714
   89SAPS  H13X 8660   5.968   2.446   8.853 -0.3529 -1.7590  3.8909
   89SAPS  H13Y 8661   5.798   2.517   8.865  0.2873  1.0047 -0.3737
   89SAPS  C314 8662   5.806   2.338   8.742 -1.0163  0.2173 -0.8057
   89SAPS  H14X 8663   5.715   2.290   8.783 -1.3641  3.3364  2.2724
   89SAPS  H14Y 8664   5.881   2.262   8.711  1.3552  1.0496  2.5800
   89SAPS  C315 8665   5.777   2.407   8.609  0.2300 -0.6167  0.0536
   89SAPS  H15X 8666   5.699   2.485   8.624  0.8249  0.0267 -0.1621
   89SAPS  H15Y 8667   5.734   2.332   8.539 -0.8258  0.5376 -0.5644
   89SAPS  C316 8668   5.901   2.472   8.542 -0.0153  0.1077  0.5974
   89SAPS  H16X 8669   5.982   2.397   8.532 -2.3219 -2.4378  0.4609
   89SAPS  H16Y 8670   5.945   2.547   8.611  0.5624 -2.3085  2.9457
   89SAPS  C317 8671   5.879   2.542   8.408  0.1094  0.2595  0.1386
   89SAPS  H17X 8672   5.979   2.585   8.384  1.1615 -2.0908  0.1341
   89SAPS  H17Y 8673   5.802   2.622   8.415 -0.1545  0.3999 -3.4949
   89SAPS  C318 8674   5.851   2.433   8.306  0.2010  0.3696  0.1463
   89SAPS  H18X 8675   5.765   2.369   8.333 -0.1810 -0.3133 -2.5200
   89SAPS  H18Y 8676   5.936   2.363   8.291 -1.0279 -1.0501 -0.3212
   89SAPS  H18Z 8677   5.834   2.489   8.211  1.1354 -1.1103 -0.9095
   90SAPS     N 8678   0.751   2.249  10.722 -0.1262 -0.7731 -0.3954
   90SAPS   HN1 8679   0.790   2.215  10.632  0.5137  0.3951 -0.5715
   90SAPS   HN2 8680   0.650   2.273  10.707 -0.0789  0.6133  1.3459
   90SAPS   HN3 8681   0.803   2.335  10.747 -0.2776 -1.2541  1.6168
   90SAPS   C12 8682   0.767   2.163  10.851 -0.0991  0.0883 -0.4216
   90SAPS  H12A 8683   0.875   2.156  10.860 -0.2163 -1.7963 -0.3109
   90SAPS   C13 8684   0.706   2.224  10.973  0.4768  0.4109  0.3935
   90SAPS  O13A 8685   0.679   2.348  10.972  0.4288  0.0418  0.6295
   90SAPS  O13B 8686   0.700   2.149  11.072 -0.6804 -0.5636 -0.3674
   90SAPS   C11 8687   0.719   2.018  10.831 -0.0699  0.2245  0.2250
   90SAPS  H11A 8688   0.608   2.011  10.829 -0.0811  0.5786 -0.8510
   90SAPS  H11B 8689   0.751   1.969  10.925  0.2586 -2.0150 -1.0143
   90SAPS     P 8690   0.720   1.832  10.642  0.1284 -0.4035 -0.4896
   90SAPS   O13 8691   0.836   1.755  10.597 -0.1246  0.7133 -0.3986
   90SAPS   O14 8692   0.631   1.764  10.739  0.8003 -0.2526 -0.5482
   90SAPS   O12 8693   0.778   1.961  10.714  0.2116 -0.2751  0.4497
   90SAPS   O11 8694   0.642   1.897  10.523 -0.0702 -0.5367  0.0884
   90SAPS    C1 8695   0.503   1.940  10.528  0.5988  0.3493  0.2841
   90SAPS    HA 8696   0.476   1.959  10.634  0.9870  0.2036  0.4115
   90SAPS    HB 8697   0.484   2.043  10.489 -0.9323  0.3502  1.0036
   90SAPS    C2 8698   0.408   1.852  10.446  0.3377 -0.2035 -0.3113
   90SAPS    HS 8699   0.402   1.755  10.500  1.5248 -0.0822  0.0609
   90SAPS   O21 8700   0.462   1.831  10.313  0.1798 -0.6578  1.0430
   90SAPS   C21 8701   0.426   1.721  10.244  0.3880 -0.2889 -0.5898
   90SAPS   O22 8702   0.371   1.623  10.293 -0.0998  0.2293  0.0235
   90SAPS   C22 8703   0.458   1.735  10.090  0.3983 -0.0856  0.1970
   90SAPS   H2R 8704   0.427   1.836  10.056  0.3527 -0.0618  0.3082
   90SAPS   H2S 8705   0.570   1.738  10.091  0.5012 -2.4543  3.7682
   90SAPS    C3 8706   0.265   1.909  10.437  0.6797  0.4836 -0.4769
   90SAPS    HX 8707   0.224   1.936  10.537 -0.4117 -1.3887 -0.3881
   90SAPS    HY 8708   0.197   1.830  10.400 -1.0537  2.4282 -1.5344
   90SAPS   O31 8709   0.260   2.030  10.359  0.1754 -0.5588 -0.0189
   90SAPS   C31 8710   0.253   2.014  10.228  0.1107 -0.1131 -0.7169
   90SAPS   O32 8711   0.211   1.915  10.172 -0.2651 -0.9978  0.3549
   90SAPS   C32 8712   0.297   2.154  10.171 -0.5452 -0.4932  0.4305
   90SAPS   H2X 8713   0.365   2.209  10.239 -0.9738  0.6401 -0.0507
   90SAPS   H2Y 8714   0.204   2.215  10.174  0.5371  1.1168  2.2218
   90SAPS   C23 8715   0.397   1.619   9.998 -0.4831  0.3303 -0.2333
   90SAPS   H3R 8716   0.287   1.613  10.011 -0.0683 -2.7767  2.3284
   90SAPS   H3S 8717   0.427   1.520  10.039  1.4178  0.3777 -1.4097
   90SAPS   C24 8718   0.450   1.617   9.860 -0.4317 -0.6449 -0.3758
   90SAPS   H4R 8719   0.561   1.615   9.862 -0.4416 -0.7488  0.1905
   90SAPS   H4S 8720   0.422   1.714   9.813  0.8353  0.8073  1.8193
   90SAPS   C25 8721   0.410   1.495   9.784 -0.2487 -0.0848  0.1144
   90SAPS   H5R 8722   0.425   1.410   9.852  0.2447 -0.3233 -0.2893
   90SAPS   C26 8723   0.353   1.491   9.661 -0.4034  0.2791 -0.7187
   90SAPS   H6R 8724   0.336   1.397   9.607  2.1835  1.1428 -3.1655
   90SAPS   C27 8725   0.324   1.617   9.582 -0.4216  0.6032 -0.2392
   90SAPS   H7R 8726   0.354   1.711   9.632 -0.4152 -0.2087  1.3153
   90SAPS   H7S 8727   0.215   1.621   9.560 -0.2308 -3.3303 -2.5286
   90SAPS   C28 8728   0.403   1.616   9.450 -0.1466  0.3443 -0.6690
   90SAPS   H8R 8729   0.494   1.554   9.440  0.2489  0.2459  2.8769
   90SAPS   C29 8730   0.375   1.701   9.347 -0.3183  0.1896  0.9674
   90SAPS   H9R 8731   0.432   1.692   9.254 -1.0785  1.1918  0.3937
   90SAPS  C210 8732   0.255   1.797   9.341  0.4158 -0.5732  0.7829
   90SAPS  H10R 8733   0.275   1.893   9.289 -1.8003  0.7189  2.2502
   90SAPS  H10S 8734   0.229   1.827   9.445 -0.2033  0.8401  0.2215
   90SAPS  C211 8735   0.132   1.731   9.280 -0.2078  0.3560 -0.2268
   90SAPS  H11R 8736   0.084   1.651   9.339  0.4790 -0.7674 -1.1524
   90SAPS  C212 8737   0.075   1.763   9.160 -0.1106 -0.3886 -0.0221
   90SAPS  H12R 8738  -0.011   1.702   9.129  0.2561 -1.8632  1.7942
   90SAPS  C213 8739   0.113   1.873   9.062  0.2667  0.2635 -0.7049
   90SAPS  H13R 8740   0.177   1.843   8.977  0.8486  0.0046 -0.1737
   90SAPS  H13S 8741   0.173   1.944   9.122  0.6368 -0.0250 -0.7328
   90SAPS  C214 8742  -0.019   1.944   9.029  0.6796  0.0520  0.1327
   90SAPS  H14R 8743  -0.081   1.979   9.113 -1.5393 -3.7473  0.2117
   90SAPS  C215 8744  -0.057   1.970   8.900 -0.3202  0.3967 -0.0181
   90SAPS  H15R 8745  -0.150   2.028   8.893 -1.7463 -1.5848  1.9059
   90SAPS  C216 8746   0.015   1.943   8.771  0.4884 -0.3926  0.2612
   90SAPS  H16R 8747  -0.043   1.862   8.722 -1.8564  1.6734 -0.4650
   90SAPS  H16S 8748   0.124   1.928   8.789  0.4713  0.0939  0.7747
   90SAPS  C217 8749   0.010   2.080   8.694 -0.0951  0.5880 -0.0699
   90SAPS  H17R 8750  -0.095   2.113   8.679 -0.7300 -0.9064  0.9889
   90SAPS  H17S 8751   0.048   2.047   8.595  0.0425 -1.4485  0.6226
   90SAPS  C218 8752   0.106   2.183   8.753 -0.2894  0.6729  0.4184
   90SAPS  H18R 8753   0.210   2.145   8.754 -0.7131 -0.5280 -0.1686
   90SAPS  H18S 8754   0.070   2.217   8.852 -2.0282 -0.7443  0.2983
   90SAPS  C219 8755   0.109   2.309   8.669 -0.0506 -0.9782 -0.0640
   90SAPS  H19R 8756   0.018   2.372   8.679 -0.4412 -1.8756  2.2200
   90SAPS  H19S 8757   0.120   2.287   8.560 -3.1555 -1.5209 -0.3421
   90SAPS  C220 8758   0.230   2.397   8.702 -0.0178 -0.2179 -0.4714
   90SAPS  H20R 8759   0.328   2.345   8.704  0.1264  0.0869  0.9256
   90SAPS  H20S 8760   0.212   2.432   8.806  1.6129  1.0505 -0.5854
   90SAPS  H20T 8761   0.233   2.483   8.632 -0.0470  2.1675  2.3502
   90SAPS   C33 8762   0.352   2.144  10.027  0.1728 -1.1865  0.1894
   90SAPS   H3X 8763   0.280   2.089   9.961  1.9753 -0.2869 -2.6142
   90SAPS   H3Y 8764   0.445   2.083  10.032 -1.5478 -4.1497 -1.8172
   90SAPS   C34 8765   0.380   2.285   9.966  0.3286 -0.2328 -0.6265
   90SAPS   H4X 8766   0.464   2.339  10.015 -2.3827  1.8146  1.9461
   90SAPS   H4Y 8767   0.292   2.346   9.996  0.5603 -0.5954  0.8031
   90SAPS   C35 8768   0.379   2.284   9.815  0.2329  0.6937  0.1989
   90SAPS   H5X 8769   0.400   2.389   9.787  0.2695  1.1152  1.7624
   90SAPS   H5Y 8770   0.278   2.253   9.779  0.0435  0.0089  1.3125
   90SAPS   C36 8771   0.488   2.192   9.746 -0.5099  0.2085  0.2107
   90SAPS   H6X 8772   0.532   2.132   9.828 -1.3717 -2.6327 -1.3592
   90SAPS   H6Y 8773   0.566   2.250   9.692 -0.1470 -0.2539  0.2336
   90SAPS   C37 8774   0.429   2.089   9.649  0.2289  0.5226 -0.2744
   90SAPS   H7X 8775   0.387   2.131   9.555 -1.5023 -1.0870 -0.2586
   90SAPS   H7Y 8776   0.352   2.050   9.719 -0.5598  0.1418 -1.3355
   90SAPS   C38 8777   0.525   1.983   9.604 -0.2740  0.6399  0.1504
   90SAPS   H8X 8778   0.478   1.884   9.582  0.9159  0.0008  0.4683
   90SAPS   H8Y 8779   0.602   1.960   9.681 -1.1388  0.6808  1.0318
   90SAPS   C39 8780   0.596   2.024   9.472 -0.2963  0.5210  0.0982
   90SAPS   H9X 8781   0.648   2.122   9.481  2.4751 -0.8346 -0.5506
   90SAPS   H9Y 8782   0.522   2.032   9.389  0.0861  0.9571 -0.1989
   90SAPS  C310 8783   0.693   1.921   9.404  0.4294  0.0916  0.2135
   90SAPS  H10X 8784   0.649   1.819   9.411  0.3192 -0.0356 -1.8664
   90SAPS  H10Y 8785   0.784   1.929   9.467  1.1393  2.9731 -1.0739
   90SAPS  C311 8786   0.730   1.942   9.264 -0.1079  0.5705  0.5396
   90SAPS  H11X 8787   0.770   2.045   9.252 -1.2793  1.0289  0.5657
   90SAPS  H11Y 8788   0.653   1.940   9.185 -0.0779  1.4600  0.4762
   90SAPS  C312 8789   0.848   1.851   9.229  0.3221  0.2108  0.6619
   90SAPS  H12X 8790   0.808   1.747   9.236 -1.2130  0.7716  0.5381
   90SAPS  H12Y 8791   0.925   1.882   9.302  1.0899  0.1372 -0.1117
   90SAPS  C313 8792   0.908   1.886   9.088 -0.7402 -0.2532  0.4055
   90SAPS  H13X 8793   0.935   1.994   9.092  0.5856 -0.5883  0.7599
   90SAPS  H13Y 8794   0.828   1.870   9.013 -1.2847 -2.5669  1.4391
   90SAPS  C314 8795   1.023   1.804   9.043 -0.0348  0.0309  0.0565
   90SAPS  H14X 8796   1.005   1.695   9.045  0.9231 -0.2092 -2.7356
   90SAPS  H14Y 8797   1.118   1.811   9.100 -0.4146 -0.6534  0.7768
   90SAPS  C315 8798   1.086   1.849   8.907  0.3100 -0.3728  0.3815
   90SAPS  H15X 8799   1.159   1.931   8.925  0.1010  0.3754 -2.0680
   90SAPS  H15Y 8800   1.001   1.875   8.841 -0.2782  2.2611  2.1092
   90SAPS  C316 8801   1.165   1.736   8.827 -0.3600  0.1202  0.5260
   90SAPS  H16X 8802   1.252   1.691   8.881  0.5290 -0.1432 -1.1098
   90SAPS  H16Y 8803   1.208   1.776   8.732  1.7474 -1.9852  0.5425
   90SAPS  C317 8804   1.090   1.609   8.801  0.3656  0.0837 -0.1245
   90SAPS  H17X 8805   1.059   1.564   8.898 -1.2329  0.4679 -0.4461
   90SAPS  H17Y 8806   1.155   1.534   8.752 -0.7369 -1.0553  0.1410
   90SAPS  C318 8807   0.965   1.635   8.716 -0.3789  0.0821  0.3929
   90SAPS  H18X 8808   0.927   1.539   8.675  0.3909 -0.7409  1.6049
   90SAPS  H18Y 8809   0.990   1.699   8.629  0.4875  2.1717  2.1400
   90SAPS  H18Z 8810   0.880   1.685   8.768 -1.1469 -2.0013  1.1919
   91SAPS     N 8811   4.492   0.322   5.741 -0.0316  0.0192 -0.7715
   91SAPS   HN1 8812   4.416   0.390   5.721  1.8582  2.3810 -0.1776
   91SAPS   HN2 8813   4.570   0.389   5.761 -1.9157  1.7181  1.1041
   91SAPS   HN3 8814   4.506   0.263   5.656  1.5338  0.5176 -0.8901
   91SAPS   C12 8815   4.446   0.243   5.863 -0.4771 -0.8184  0.2640
   91SAPS  H12A 8816   4.420   0.313   5.942  0.7771 -0.9691  0.8194
   91SAPS   C13 8817   4.316   0.164   5.835  0.1795  0.1616  0.2876
   91SAPS  O13A 8818   4.258   0.165   5.719  0.3864  0.1951  0.2056
   91SAPS  O13B 8819   4.267   0.090   5.926 -0.7468 -0.5173  0.3818
   91SAPS   C11 8820   4.564   0.151   5.916 -0.0479  0.4859  0.1603
   91SAPS  H11A 8821   4.583   0.071   5.841 -0.5090  0.3552  0.1783
   91SAPS  H11B 8822   4.531   0.108   6.013  0.4051 -0.2849 -0.0225
   91SAPS     P 8823   4.708   0.298   6.075 -0.2391  0.4567  0.4274
   91SAPS   O13 8824   4.853   0.329   6.091  0.0371  0.1909 -0.0176
   91SAPS   O14 8825   4.614   0.410   6.070 -0.2022 -0.0327  0.1706
   91SAPS   O12 8826   4.691   0.221   5.938 -0.4728 -0.5088 -0.3750
   91SAPS   O11 8827   4.662   0.180   6.170 -0.5457 -0.3638 -1.2652
   91SAPS    C1 8828   4.562   0.194   6.267  0.3732 -0.4504 -0.3402
   91SAPS    HA 8829   4.487   0.269   6.233  0.2077 -0.2319  0.4864
   91SAPS    HB 8830   4.515   0.095   6.281 -0.7745  0.1297 -0.0319
   91SAPS    C2 8831   4.610   0.226   6.411  0.5281 -0.3241 -0.1152
   91SAPS    HS 8832   4.643   0.331   6.393 -1.6203  0.6535  1.3877
   91SAPS   O21 8833   4.707   0.139   6.458  0.5918  0.5304  0.4096
   91SAPS   C21 8834   4.807   0.193   6.535 -0.4115 -0.8291  0.7846
   91SAPS   O22 8835   4.805   0.314   6.564 -0.1109  0.2170 -0.3052
   91SAPS   C22 8836   4.913   0.081   6.561 -0.4386  0.2827  0.7000
   91SAPS   H2R 8837   4.934   0.033   6.463 -1.9896  2.0829 -0.5482
   91SAPS   H2S 8838   5.006   0.125   6.602 -1.1276  0.6918  1.8559
   91SAPS    C3 8839   4.488   0.218   6.507 -0.2424  0.4634 -0.7112
   91SAPS    HX 8840   4.471   0.110   6.523  1.3440  0.0093 -1.9751
   91SAPS    HY 8841   4.393   0.253   6.459 -1.4750 -0.8363  0.7280
   91SAPS   O31 8842   4.508   0.292   6.628 -0.6069 -0.1661 -0.3857
   91SAPS   C31 8843   4.504   0.426   6.609 -0.1769  0.1352 -0.4114
   91SAPS   O32 8844   4.476   0.482   6.504  0.0358 -0.2682  0.4352
   91SAPS   C32 8845   4.521   0.493   6.739  0.8693  0.0244 -1.2307
   91SAPS   H2X 8846   4.482   0.428   6.821 -1.2575  0.8546 -1.5623
   91SAPS   H2Y 8847   4.449   0.577   6.733 -0.7168 -1.3447 -1.7545
   91SAPS   C23 8848   4.852  -0.026   6.657 -0.5714  0.4190 -0.2263
   91SAPS   H3R 8849   4.763  -0.074   6.612  2.1199 -2.7156 -2.4598
   91SAPS   H3S 8850   4.809   0.021   6.747  1.7012  0.3056  0.9629
   91SAPS   C24 8851   4.954  -0.128   6.707  0.0858 -0.0893  0.2621
   91SAPS   H4R 8852   5.038  -0.077   6.759 -0.5019  2.1784 -0.9459
   91SAPS   H4S 8853   4.995  -0.175   6.615  0.1604 -1.6648  1.0851
   91SAPS   C25 8854   4.889  -0.239   6.773 -0.0800 -0.8309 -0.7183
   91SAPS   H5R 8855   4.831  -0.304   6.707 -0.9095  0.0683 -0.8816
   91SAPS   C26 8856   4.856  -0.252   6.901  0.4283  0.1355  0.7460
   91SAPS   H6R 8857   4.812  -0.344   6.943 -1.0596  0.7219  0.4669
   91SAPS   C27 8858   4.908  -0.160   7.005 -0.3839 -1.0631 -0.1108
   91SAPS   H7R 8859   4.857  -0.175   7.103  0.0220  0.6401  0.3682
   91SAPS   H7S 8860   4.884  -0.055   6.980  0.8164 -1.3511 -2.6151
   91SAPS   C28 8861   5.055  -0.169   7.032  0.0870  0.6045  0.0026
   91SAPS   H8R 8862   5.120  -0.199   6.949  2.9831 -0.3409  2.5245
   91SAPS   C29 8863   5.110  -0.167   7.157  1.0687  0.4406  0.5659
   91SAPS   H9R 8864   5.220  -0.171   7.160  1.0509  1.0081  2.4314
   91SAPS  C210 8865   5.038  -0.148   7.293 -0.0981 -0.4834 -1.0692
   91SAPS  H10R 8866   4.954  -0.076   7.295  1.1872  1.0011 -0.3690
   91SAPS  H10S 8867   5.112  -0.101   7.360 -0.5791 -1.4673  0.1711
   91SAPS  C211 8868   4.995  -0.284   7.333 -0.0869  0.1811  0.1650
   91SAPS  H11R 8869   5.041  -0.371   7.285 -2.8005 -1.7129  0.8427
   91SAPS  C212 8870   4.897  -0.318   7.422 -0.0477 -0.2897  0.5158
   91SAPS  H12R 8871   4.861  -0.422   7.435  0.3827 -0.8891 -2.7577
   91SAPS  C213 8872   4.809  -0.219   7.488 -0.3455  1.0493 -0.6147
   91SAPS  H13R 8873   4.717  -0.217   7.426  0.3485  0.1575 -1.6647
   91SAPS  H13S 8874   4.838  -0.112   7.482 -0.2820  1.1213  0.8192
   91SAPS  C214 8875   4.782  -0.259   7.627  0.2074  0.4552 -0.1158
   91SAPS  H14R 8876   4.691  -0.319   7.641  1.4972 -1.1054  1.8508
   91SAPS  C215 8877   4.856  -0.242   7.744 -1.0198  0.4138  0.0711
   91SAPS  H15R 8878   4.817  -0.277   7.841 -0.0115 -1.8126 -0.3089
   91SAPS  C216 8879   4.982  -0.159   7.743  0.7359  0.3937  0.3757
   91SAPS  H16R 8880   5.007  -0.123   7.641 -1.3829  0.3517 -0.1905
   91SAPS  H16S 8881   5.069  -0.214   7.784  0.0021 -0.5640  0.6606
   91SAPS  C217 8882   4.959  -0.035   7.838 -0.9647 -1.0259  0.2159
   91SAPS  H17R 8883   5.045   0.036   7.830 -1.2360 -0.6002  1.0656
   91SAPS  H17S 8884   4.969  -0.066   7.944  1.3697 -0.7286  0.1147
   91SAPS  C218 8885   4.839   0.051   7.819 -0.8641  0.9540  0.4089
   91SAPS  H18R 8886   4.745  -0.007   7.804 -1.1681  1.2809  1.0284
   91SAPS  H18S 8887   4.855   0.108   7.725 -0.2618  0.0561 -0.0368
   91SAPS  C219 8888   4.825   0.158   7.935 -0.2245 -0.2830  0.2791
   91SAPS  H19R 8889   4.916   0.216   7.912 -0.4033  0.0699  0.4502
   91SAPS  H19S 8890   4.847   0.129   8.040  0.0581 -0.6980  0.1096
   91SAPS  C220 8891   4.703   0.251   7.919  0.0862 -0.1598  0.8512
   91SAPS  H20R 8892   4.703   0.340   7.986 -1.5092  1.2819 -1.0061
   91SAPS  H20S 8893   4.610   0.198   7.948  2.1301 -4.0444  0.5044
   91SAPS  H20T 8894   4.695   0.303   7.821  1.6234 -1.7070 -0.1037
   91SAPS   C33 8895   4.659   0.545   6.765  0.3893  0.1171  0.4809
   91SAPS   H3X 8896   4.691   0.598   6.672 -0.5560  1.0368  0.6675
   91SAPS   H3Y 8897   4.724   0.458   6.788 -1.9923 -1.3270  1.9420
   91SAPS   C34 8898   4.661   0.647   6.874 -0.1830 -0.2749  0.6419
   91SAPS   H4X 8899   4.578   0.718   6.852 -0.7125 -0.8807  0.6756
   91SAPS   H4Y 8900   4.759   0.699   6.872 -1.0825  1.4000 -2.2179
   91SAPS   C35 8901   4.643   0.585   7.009  0.1138  0.4261 -0.3002
   91SAPS   H5X 8902   4.709   0.496   7.014  0.5527  0.6512 -1.9390
   91SAPS   H5Y 8903   4.535   0.558   7.004 -0.5516  3.0204 -1.0265
   91SAPS   C36 8904   4.684   0.675   7.130 -0.0056 -0.1249 -0.6885
   91SAPS   H6X 8905   4.627   0.770   7.123 -0.0322  0.0560  1.6197
   91SAPS   H6Y 8906   4.790   0.701   7.109  0.1353 -0.8757 -0.9358
   91SAPS   C37 8907   4.673   0.607   7.265 -0.4520 -0.5455  0.0310
   91SAPS   H7X 8908   4.719   0.507   7.254  1.6238  0.0490  2.6926
   91SAPS   H7Y 8909   4.567   0.586   7.294 -1.4273  2.6678 -0.9389
   91SAPS   C38 8910   4.753   0.685   7.375 -0.1522 -0.3181 -0.2083
   91SAPS   H8X 8911   4.858   0.698   7.343 -0.7192  1.9964 -1.2984
   91SAPS   H8Y 8912   4.749   0.631   7.472  1.1021 -0.3721 -0.1837
   91SAPS   C39 8913   4.695   0.827   7.404 -0.4058  0.3093  0.2612
   91SAPS   H9X 8914   4.587   0.801   7.408 -0.4846  0.8558  1.8546
   91SAPS   H9Y 8915   4.709   0.892   7.315  2.3725 -0.5150  0.0407
   91SAPS  C310 8916   4.739   0.904   7.534  1.0046  0.1286 -1.1261
   91SAPS  H10X 8917   4.846   0.879   7.552  1.4921  1.3521 -2.2640
   91SAPS  H10Y 8918   4.681   0.859   7.617  0.6682  0.6267 -1.0852
   91SAPS  C311 8919   4.723   1.056   7.526  0.6049  0.0097 -0.2541
   91SAPS  H11X 8920   4.615   1.067   7.504  0.8706  1.3454 -0.9710
   91SAPS  H11Y 8921   4.769   1.093   7.432 -0.9275 -0.0505 -1.0371
   91SAPS  C312 8922   4.788   1.142   7.638 -0.6751  0.2638 -0.3226
   91SAPS  H12X 8923   4.790   1.241   7.589  0.6377 -1.3043 -3.5110
   91SAPS  H12Y 8924   4.888   1.098   7.658 -0.6685 -0.1695 -1.3036
   91SAPS  C313 8925   4.706   1.146   7.768 -0.4875 -0.2952 -1.3721
   91SAPS  H13X 8926   4.675   1.042   7.793 -0.4201 -0.1178 -0.5409
   91SAPS  H13Y 8927   4.608   1.197   7.754 -1.9296 -2.6843 -0.3786
   91SAPS  C314 8928   4.779   1.211   7.884  0.5147  0.5355 -0.4045
   91SAPS  H14X 8929   4.809   1.318   7.871  0.5331  0.3677 -1.8419
   91SAPS  H14Y 8930   4.874   1.155   7.898 -0.0286 -0.3072 -0.0562
   91SAPS  C315 8931   4.690   1.205   8.006 -0.4084  0.1209 -0.5354
   91SAPS  H15X 8932   4.699   1.100   8.041  2.5708  0.1574 -1.0269
   91SAPS  H15Y 8933   4.584   1.221   7.976 -0.1546 -0.4109 -1.7698
   91SAPS  C316 8934   4.733   1.289   8.122  0.7745  0.6516 -0.2221
   91SAPS  H16X 8935   4.756   1.395   8.102  1.7407  0.3802 -0.5706
   91SAPS  H16Y 8936   4.827   1.246   8.163 -0.3490 -1.2195  0.4996
   91SAPS  C317 8937   4.632   1.273   8.239 -0.0549  0.7129  0.1993
   91SAPS  H17X 8938   4.661   1.344   8.319  0.5797  0.2546  0.3736
   91SAPS  H17Y 8939   4.642   1.170   8.277  3.6668  0.8516 -0.2802
   91SAPS  C318 8940   4.482   1.301   8.196 -0.7396  0.6886  0.6984
   91SAPS  H18X 8941   4.474   1.402   8.151  0.2502  0.2577 -0.4714
   91SAPS  H18Y 8942   4.424   1.306   8.291  2.3815  1.1252  2.6486
   91SAPS  H18Z 8943   4.442   1.222   8.128  0.3587  1.7281 -1.1813
   92SAPS     N 8944   4.385   5.084   6.177 -0.2346  0.6474 -0.8128
   92SAPS   HN1 8945   4.414   5.127   6.087  1.7362  0.0826 -0.4688
   92SAPS   HN2 8946   4.322   5.005   6.155 -1.5905  1.0373  1.5286
   92SAPS   HN3 8947   4.331   5.148   6.239  1.8871 -0.4162  2.2492
   92SAPS   C12 8948   4.517   5.040   6.238 -0.0459 -0.0796 -0.6526
   92SAPS  H12A 8949   4.568   4.973   6.170  0.4350  1.1531 -1.5166
   92SAPS   C13 8950   4.613   5.154   6.278 -0.5387 -0.2138  0.1073
   92SAPS  O13A 8951   4.587   5.269   6.232 -0.2496 -0.0241  0.1473
   92SAPS  O13B 8952   4.734   5.116   6.303 -0.7128 -0.0720 -0.4159
   92SAPS   C11 8953   4.480   4.940   6.354  0.3126  0.3147 -1.4213
   92SAPS  H11A 8954   4.431   5.002   6.432 -0.8694 -1.3281 -0.8327
   92SAPS  H11B 8955   4.580   4.906   6.389 -0.5220 -1.0918 -0.3264
   92SAPS     P 8956   4.396   4.698   6.390  0.4880  0.1583  0.2357
   92SAPS   O13 8957   4.293   4.605   6.336  0.3554 -0.0232  0.5012
   92SAPS   O14 8958   4.533   4.651   6.384 -1.0737 -0.6510  0.2947
   92SAPS   O12 8959   4.395   4.831   6.304 -0.5774 -0.1531  0.4777
   92SAPS   O11 8960   4.357   4.750   6.531 -0.1454  0.0238 -0.2877
   92SAPS    C1 8961   4.446   4.746   6.645  0.4804 -1.2394  0.4548
   92SAPS    HA 8962   4.545   4.789   6.621  0.6362 -0.9537  1.5855
   92SAPS    HB 8963   4.399   4.805   6.727 -1.5788 -0.1705 -1.4623
   92SAPS    C2 8964   4.458   4.594   6.696  0.3466  0.1474  0.0652
   92SAPS    HS 8965   4.486   4.531   6.609  1.0459  0.8095 -0.1960
   92SAPS   O21 8966   4.339   4.545   6.764  0.0872 -0.2855  0.0565
   92SAPS   C21 8967   4.295   4.423   6.742 -0.2549  0.8757 -0.2074
   92SAPS   O22 8968   4.353   4.340   6.668 -0.1157 -0.0282  0.2760
   92SAPS   C22 8969   4.160   4.401   6.815  0.6844  0.3196  0.3097
   92SAPS   H2R 8970   4.130   4.497   6.862  0.3130 -0.5078  1.7830
   92SAPS   H2S 8971   4.093   4.371   6.731  0.6200  1.7689 -0.1896
   92SAPS    C3 8972   4.569   4.575   6.792  0.2323  0.2957 -0.5917
   92SAPS    HX 8973   4.665   4.588   6.737 -0.4557  1.2780 -1.5802
   92SAPS    HY 8974   4.569   4.472   6.835 -3.3637  0.8379  0.8278
   92SAPS   O31 8975   4.571   4.663   6.901  0.4294  0.3033 -0.8306
   92SAPS   C31 8976   4.696   4.689   6.957  0.0306 -0.3428  0.1867
   92SAPS   O32 8977   4.800   4.654   6.908 -0.7419 -0.0617 -0.2861
   92SAPS   C32 8978   4.681   4.764   7.088  0.0695  0.1166 -0.3367
   92SAPS   H2X 8979   4.575   4.791   7.105 -0.5087 -2.1329 -0.2652
   92SAPS   H2Y 8980   4.752   4.847   7.064  0.4746 -0.5385 -1.4225
   92SAPS   C23 8981   4.155   4.286   6.918 -0.6400 -0.5831 -0.2625
   92SAPS   H3R 8982   4.192   4.196   6.864 -1.4580 -1.8690  1.2947
   92SAPS   H3S 8983   4.054   4.251   6.948 -0.1176 -3.7500 -2.0103
   92SAPS   C24 8984   4.249   4.314   7.035  0.4948  0.6625 -0.5811
   92SAPS   H4R 8985   4.339   4.364   6.993  1.2718  1.8258  2.4204
   92SAPS   H4S 8986   4.278   4.221   7.088  0.4838  0.9145 -0.1317
   92SAPS   C25 8987   4.180   4.398   7.140 -0.2427  0.0785  0.0985
   92SAPS   H5R 8988   4.092   4.357   7.191 -0.3172 -0.2459 -0.2895
   92SAPS   C26 8989   4.205   4.526   7.166  0.3307 -0.3015  0.0817
   92SAPS   H6R 8990   4.154   4.578   7.248  1.1084  2.1867 -0.9716
   92SAPS   C27 8991   4.309   4.620   7.107 -0.0256 -0.7327 -0.3134
   92SAPS   H7R 8992   4.364   4.580   7.019  0.6617  0.0099 -0.2319
   92SAPS   H7S 8993   4.389   4.640   7.182  0.1698 -0.2181 -0.6529
   92SAPS   C28 8994   4.239   4.744   7.067  0.2902 -0.4665 -0.0497
   92SAPS   H8R 8995   4.171   4.731   6.982  0.4316 -0.7222 -0.1277
   92SAPS   C29 8996   4.236   4.867   7.122 -0.2283 -0.6380  0.1086
   92SAPS   H9R 8997   4.164   4.938   7.079  0.8077  0.0269 -0.5300
   92SAPS  C210 8998   4.321   4.916   7.245 -0.4826 -0.1470 -0.0167
   92SAPS  H10R 8999   4.355   5.019   7.220  0.9618 -0.2586  1.3592
   92SAPS  H10S 9000   4.415   4.858   7.260  0.4894  1.0936 -1.0735
   92SAPS  C211 9001   4.232   4.937   7.363  0.2178 -0.2615  0.8102
   92SAPS  H11R 9002   4.131   4.973   7.340  1.6595  3.5597  0.0476
   92SAPS  C212 9003   4.287   4.937   7.486 -0.0572 -0.2718 -0.2508
   92SAPS  H12R 9004   4.225   4.952   7.575  0.8117  1.0217  0.1633
   92SAPS  C213 9005   4.434   4.926   7.525  0.3874  0.7236  0.0073
   92SAPS  H13R 9006   4.505   4.950   7.443  2.7532 -0.6487  1.5776
   92SAPS  H13S 9007   4.448   4.819   7.553  1.5898  0.8796  0.0374
   92SAPS  C214 9008   4.454   5.031   7.633  0.4366 -0.7440  0.0932
   92SAPS  H14R 9009   4.476   5.127   7.584  1.1985 -0.4997  0.8978
   92SAPS  C215 9010   4.473   5.008   7.765 -0.1148  0.2217  0.0347
   92SAPS  H15R 9011   4.487   5.098   7.827 -2.5342 -0.1943  1.2841
   92SAPS  C216 9012   4.467   4.876   7.836  0.8815  0.0579  0.1484
   92SAPS  H16R 9013   4.539   4.868   7.920 -1.0067  0.2952  1.8173
   92SAPS  H16S 9014   4.481   4.793   7.764  0.1271  1.1434 -1.2653
   92SAPS  C217 9015   4.323   4.857   7.886  0.7588 -0.8131 -0.2187
   92SAPS  H17R 9016   4.326   4.758   7.936  0.1410 -1.4840 -1.4919
   92SAPS  H17S 9017   4.248   4.854   7.803 -0.1017 -1.0481  0.5633
   92SAPS  C218 9018   4.282   4.960   7.988  0.0447  0.3437  0.4656
   92SAPS  H18R 9019   4.240   5.051   7.942  0.3187  0.3917  0.3115
   92SAPS  H18S 9020   4.370   4.992   8.048 -0.4252  0.2304  1.2278
   92SAPS  C219 9021   4.176   4.913   8.089 -0.2318 -0.4233  0.2904
   92SAPS  H19R 9022   4.232   4.842   8.153  1.1829  0.1271 -0.3257
   92SAPS  H19S 9023   4.091   4.857   8.043 -0.1029 -1.8730  1.7606
   92SAPS  C220 9024   4.120   5.031   8.163 -0.2524  0.1411  0.1238
   92SAPS  H20R 9025   4.077   5.114   8.102  0.7447  0.1498 -0.6010
   92SAPS  H20S 9026   4.199   5.071   8.230  0.8731 -0.7714 -0.6263
   92SAPS  H20T 9027   4.036   4.992   8.224 -1.4140  0.0521 -1.5061
   92SAPS   C33 9028   4.747   4.689   7.210 -0.3742 -0.0940 -1.1903
   92SAPS   H3X 9029   4.846   4.651   7.176  0.6461  0.2263  1.3101
   92SAPS   H3Y 9030   4.675   4.608   7.233 -1.4020  1.1293 -0.0369
   92SAPS   C34 9031   4.761   4.774   7.334 -0.8528 -0.1975  0.6482
   92SAPS   H4X 9032   4.661   4.797   7.378 -1.9222  0.2920 -1.9322
   92SAPS   H4Y 9033   4.789   4.878   7.307 -3.4586  0.5843  0.7370
   92SAPS   C35 9034   4.859   4.721   7.441 -0.6323  0.2976 -0.9372
   92SAPS   H5X 9035   4.964   4.708   7.405 -1.0307  0.1541 -2.0593
   92SAPS   H5Y 9036   4.827   4.619   7.469  0.2002 -0.3573 -2.2636
   92SAPS   C36 9037   4.850   4.815   7.561  0.4528 -0.0855  0.1212
   92SAPS   H6X 9038   4.741   4.827   7.577 -0.1126 -1.5941 -2.3784
   92SAPS   H6Y 9039   4.900   4.913   7.546 -1.3681  1.1196  1.6918
   92SAPS   C37 9040   4.917   4.773   7.693  0.3030  0.0318 -0.7997
   92SAPS   H7X 9041   5.027   4.794   7.695  0.0309  1.5205  0.7425
   92SAPS   H7Y 9042   4.903   4.664   7.703 -0.9458  0.1663 -1.0568
   92SAPS   C38 9043   4.848   4.846   7.810 -0.1802  0.0819 -0.3412
   92SAPS   H8X 9044   4.743   4.869   7.783 -1.0844 -0.8665  2.2264
   92SAPS   H8Y 9045   4.897   4.942   7.838  0.2534 -0.7250  1.7874
   92SAPS   C39 9046   4.858   4.762   7.943 -0.7571 -0.6378 -0.0536
   92SAPS   H9X 9047   4.817   4.662   7.920 -2.2948 -0.0225 -0.0496
   92SAPS   H9Y 9048   4.804   4.814   8.024 -0.2452 -0.3760  0.1199
   92SAPS  C310 9049   5.014   4.739   7.976 -0.0618 -0.4583  0.0489
   92SAPS  H10X 9050   5.068   4.836   7.979 -1.0542  0.1847 -2.1840
   92SAPS  H10Y 9051   5.053   4.665   7.902 -0.8834  1.0876 -1.9572
   92SAPS  C311 9052   5.030   4.665   8.114  0.1197  0.1203 -0.1160
   92SAPS  H11X 9053   5.136   4.657   8.146 -0.5203 -0.6628  1.8767
   92SAPS  H11Y 9054   4.996   4.560   8.102 -0.5980  0.4876 -1.3522
   92SAPS  C312 9055   4.942   4.730   8.230 -0.6634 -0.0889  0.1014
   92SAPS  H12X 9056   4.837   4.715   8.197 -0.3756  2.3091 -2.0569
   92SAPS  H12Y 9057   4.973   4.836   8.235 -0.5348 -0.2227  2.9820
   92SAPS  C313 9058   4.969   4.667   8.364  0.3354 -0.3448 -0.0106
   92SAPS  H13X 9059   4.902   4.715   8.438 -0.0372  1.0119 -1.1989
   92SAPS  H13Y 9060   5.074   4.678   8.401 -0.0325 -1.7600  1.5328
   92SAPS  C314 9061   4.941   4.517   8.359 -0.0088  0.1560  0.1007
   92SAPS  H14X 9062   5.022   4.470   8.299 -0.8382  0.8116 -1.5497
   92SAPS  H14Y 9063   4.850   4.494   8.300 -0.3443 -0.3426  0.7950
   92SAPS  C315 9064   4.934   4.442   8.495 -0.1570  0.1041 -0.1055
   92SAPS  H15X 9065   4.879   4.509   8.565  0.4571 -0.8791  1.3425
   92SAPS  H15Y 9066   5.039   4.433   8.530  0.3533  0.0065 -1.6496
   92SAPS  C316 9067   4.874   4.292   8.483  0.2295  0.0983  0.2074
   92SAPS  H16X 9068   4.933   4.225   8.416  0.4631 -2.7268  3.1110
   92SAPS  H16Y 9069   4.778   4.312   8.431  0.8368 -0.3583 -1.1329
   92SAPS  C317 9070   4.843   4.220   8.614  0.4236 -0.0143 -0.7631
   92SAPS  H17X 9071   4.793   4.290   8.684  3.0868  2.8538 -1.6137
   92SAPS  H17Y 9072   4.944   4.192   8.652  0.3314  0.1055 -0.4383
   92SAPS  C318 9073   4.758   4.088   8.604 -0.6569 -0.1714 -0.0137
   92SAPS  H18X 9074   4.790   4.031   8.514  1.4176 -1.2553  1.3503
   92SAPS  H18Y 9075   4.651   4.112   8.586 -0.1460  0.9324 -1.6851
   92SAPS  H18Z 9076   4.776   4.025   8.694 -0.0357 -0.4588 -0.3400
   93SAPS     N 9077   5.270   4.864   6.033 -0.2402 -0.5370 -0.3353
   93SAPS   HN1 9078   5.190   4.799   6.043 -0.6384 -0.2637 -1.6330
   93SAPS   HN2 9079   5.242   4.960   6.065  2.7508 -0.0875  1.0870
   93SAPS   HN3 9080   5.295   4.874   5.933  2.0359 -2.2980  0.0405
   93SAPS   C12 9081   5.386   4.813   6.111 -0.6239 -0.5609 -0.6765
   93SAPS  H12A 9082   5.399   4.713   6.072 -0.8870 -0.1656 -1.7944
   93SAPS   C13 9083   5.521   4.881   6.071  0.1831 -0.2285 -0.8211
   93SAPS  O13A 9084   5.514   4.979   6.000 -0.6699 -0.3636 -0.3713
   93SAPS  O13B 9085   5.627   4.849   6.132  0.4750  0.4618  0.0738
   93SAPS   C11 9086   5.344   4.829   6.259  0.4164  0.6736  0.0830
   93SAPS  H11A 9087   5.416   4.783   6.330 -1.4078 -2.5723 -0.0791
   93SAPS  H11B 9088   5.260   4.765   6.292  0.5957  1.3840  1.9825
   93SAPS     P 9089   5.223   5.013   6.398  0.1292 -0.0741  0.1709
   93SAPS   O13 9090   5.212   5.159   6.389  0.0769 -0.3769  0.2138
   93SAPS   O14 9091   5.102   4.937   6.370  0.2778 -0.4079 -0.1020
   93SAPS   O12 9092   5.336   4.967   6.299  0.6416 -0.5921 -0.1690
   93SAPS   O11 9093   5.288   4.991   6.539 -0.3718  0.1614  0.4360
   93SAPS    C1 9094   5.213   4.943   6.652  0.1218  0.2486 -0.0236
   93SAPS    HA 9095   5.174   4.841   6.634 -1.7038  1.1231 -1.2010
   93SAPS    HB 9096   5.272   4.933   6.745 -3.0384 -1.6841  1.8794
   93SAPS    C2 9097   5.090   5.021   6.687  0.6266 -0.0736  0.5120
   93SAPS    HS 9098   5.013   5.020   6.606  2.0739  1.5214 -0.9248
   93SAPS   O21 9099   5.117   5.162   6.709  0.0905 -0.0183  0.7386
   93SAPS   C21 9100   5.009   5.257   6.720  0.5659 -0.0438 -0.4136
   93SAPS   O22 9101   4.896   5.216   6.703 -0.1120 -0.4007  0.1476
   93SAPS   C22 9102   5.051   5.387   6.785 -0.1080 -0.1916  0.4422
   93SAPS   H2R 9103   5.153   5.380   6.829 -1.1086  3.9842  3.6753
   93SAPS   H2S 9104   5.045   5.466   6.707  0.5370  0.2910  0.8809
   93SAPS    C3 9105   5.025   4.956   6.813  0.3209 -0.7237 -0.5754
   93SAPS    HX 9106   4.990   4.857   6.776  0.7726 -0.7960 -0.8285
   93SAPS    HY 9107   4.929   5.005   6.838  1.6225  0.7098  1.7342
   93SAPS   O31 9108   5.108   4.934   6.931 -0.5035 -0.0819  0.0569
   93SAPS   C31 9109   5.089   5.017   7.040  0.4286  1.2067  0.5326
   93SAPS   O32 9110   4.995   5.098   7.049 -0.1203  0.3855 -0.9102
   93SAPS   C32 9111   5.193   4.998   7.148  0.1780 -0.0142 -0.1110
   93SAPS   H2X 9112   5.195   5.092   7.207  2.1459 -1.3045  1.9645
   93SAPS   H2Y 9113   5.290   4.995   7.094 -0.0751  2.9395 -0.7981
   93SAPS   C23 9114   4.956   5.429   6.897  0.5755 -0.0983 -0.1731
   93SAPS   H3R 9115   4.948   5.354   6.978 -2.3937 -1.2292 -1.4704
   93SAPS   H3S 9116   4.851   5.452   6.869  1.0569  0.4245 -1.5896
   93SAPS   C24 9117   4.998   5.547   6.987  0.0682 -0.1606 -0.1545
   93SAPS   H4R 9118   4.934   5.547   7.078 -0.0076 -1.7343 -0.1887
   93SAPS   H4S 9119   4.974   5.643   6.936 -1.0922 -0.8683 -0.9792
   93SAPS   C25 9120   5.139   5.556   7.029 -0.1086 -0.2588  0.7144
   93SAPS   H5R 9121   5.207   5.595   6.951 -1.0811 -1.6674 -0.8762
   93SAPS   C26 9122   5.193   5.528   7.150 -0.4804 -0.1763 -0.2456
   93SAPS   H6R 9123   5.302   5.547   7.155  0.0213 -2.0397 -2.9151
   93SAPS   C27 9124   5.107   5.485   7.268 -0.2115 -0.0938 -0.2841
   93SAPS   H7R 9125   5.024   5.420   7.234  0.3425 -0.7826 -0.3201
   93SAPS   H7S 9126   5.054   5.570   7.317  0.1638  1.6235 -2.7738
   93SAPS   C28 9127   5.193   5.407   7.364 -0.6708 -0.0525 -0.3003
   93SAPS   H8R 9128   5.223   5.311   7.320  3.2822  0.8806  0.1350
   93SAPS   C29 9129   5.243   5.446   7.480 -0.1794  0.7454 -0.9562
   93SAPS   H9R 9130   5.307   5.376   7.536 -0.3483  0.6093 -0.9326
   93SAPS  C210 9131   5.212   5.573   7.557  0.4837  0.3002  0.9027
   93SAPS  H10R 9132   5.170   5.650   7.490  1.5297  0.8325  0.8493
   93SAPS  H10S 9133   5.308   5.599   7.607  1.2029  0.4376 -0.5397
   93SAPS  C211 9134   5.098   5.545   7.654  0.1282 -0.2395 -0.0881
   93SAPS  H11R 9135   5.000   5.526   7.607 -0.4022  0.8176  0.5664
   93SAPS  C212 9136   5.088   5.569   7.789  0.6017 -0.2055 -0.9325
   93SAPS  H12R 9137   4.999   5.530   7.841  1.2614  0.1923  0.5077
   93SAPS  C213 9138   5.193   5.631   7.880 -0.0370  0.4655 -0.5570
   93SAPS  H13R 9139   5.146   5.680   7.967  4.2477  4.5342 -0.3231
   93SAPS  H13S 9140   5.240   5.718   7.830 -1.0843 -0.3009 -3.0117
   93SAPS  C214 9141   5.298   5.530   7.926 -0.3792  0.3086 -0.3558
   93SAPS  H14R 9142   5.330   5.458   7.850 -0.5533 -0.4781  0.3097
   93SAPS  C215 9143   5.344   5.509   8.052 -0.0216  0.2872  0.4092
   93SAPS  H15R 9144   5.416   5.427   8.065 -2.8589 -2.4542 -0.6239
   93SAPS  C216 9145   5.315   5.585   8.177  0.3096  0.2858  0.1175
   93SAPS  H16R 9146   5.293   5.690   8.147 -0.8343 -0.4273 -1.6708
   93SAPS  H16S 9147   5.406   5.596   8.239 -0.0621  2.4072  0.3469
   93SAPS  C217 9148   5.206   5.543   8.274 -0.2610 -0.1734 -0.3266
   93SAPS  H17R 9149   5.217   5.435   8.301 -2.4075 -0.2451  0.3433
   93SAPS  H17S 9150   5.106   5.548   8.226 -1.1321 -1.1899  1.3219
   93SAPS  C218 9151   5.214   5.620   8.409 -0.7158 -0.3253 -0.4217
   93SAPS  H18R 9152   5.124   5.591   8.467 -1.3021  1.2644 -0.5160
   93SAPS  H18S 9153   5.223   5.730   8.397 -0.9022 -0.2887 -0.2360
   93SAPS  C219 9154   5.329   5.579   8.506 -0.0291 -0.3506 -0.6658
   93SAPS  H19R 9155   5.345   5.659   8.582  0.8766  0.8808 -2.1246
   93SAPS  H19S 9156   5.421   5.588   8.444  1.1363  0.2863  1.1230
   93SAPS  C220 9157   5.318   5.448   8.579  0.0480  0.1707  0.3840
   93SAPS  H20R 9158   5.295   5.364   8.509  0.6064  1.7862 -1.7744
   93SAPS  H20S 9159   5.236   5.452   8.654 -0.1392  2.5428  0.0761
   93SAPS  H20T 9160   5.412   5.424   8.633 -0.3070 -1.3470  0.3624
   93SAPS   C33 9161   5.185   4.871   7.241 -0.2263 -0.1194 -0.2876
   93SAPS   H3X 9162   5.211   4.779   7.184 -0.2660 -0.2121 -0.1543
   93SAPS   H3Y 9163   5.082   4.872   7.281 -0.0200  1.5910  0.2510
   93SAPS   C34 9164   5.278   4.871   7.363 -0.9948  0.5812 -0.6440
   93SAPS   H4X 9165   5.387   4.873   7.343 -0.6985  2.1213  1.0082
   93SAPS   H4Y 9166   5.252   4.780   7.420  0.2750 -0.1837 -1.2740
   93SAPS   C35 9167   5.241   4.989   7.460  0.2311  0.0848  0.7467
   93SAPS   H5X 9168   5.130   4.988   7.466  0.0094  0.9981 -2.3112
   93SAPS   H5Y 9169   5.266   5.085   7.410  0.2230  1.2420  2.9145
   93SAPS   C36 9170   5.315   4.992   7.595  0.6693 -0.3529 -0.8514
   93SAPS   H6X 9171   5.409   5.048   7.574  0.0402  0.9145 -0.3230
   93SAPS   H6Y 9172   5.333   4.883   7.610 -1.5159 -0.9307 -2.1243
   93SAPS   C37 9173   5.239   5.058   7.704 -0.2038 -0.0654  0.2920
   93SAPS   H7X 9174   5.139   5.012   7.716 -0.3355 -0.2775 -1.4540
   93SAPS   H7Y 9175   5.226   5.164   7.674 -0.4668 -0.1368  0.1576
   93SAPS   C38 9176   5.300   5.059   7.847  0.1967 -0.1949 -0.0675
   93SAPS   H8X 9177   5.406   5.090   7.833 -0.1283  0.7028 -0.4977
   93SAPS   H8Y 9178   5.291   4.951   7.872 -0.1489  0.4780  2.9457
   93SAPS   C39 9179   5.210   5.138   7.940 -0.4660  0.3604  0.1741
   93SAPS   H9X 9180   5.112   5.089   7.955 -0.5678 -0.1750 -2.1841
   93SAPS   H9Y 9181   5.191   5.237   7.893  0.1954  0.9028  1.0040
   93SAPS  C310 9182   5.292   5.163   8.069 -0.1867  0.1278  0.6413
   93SAPS  H10X 9183   5.222   5.225   8.129 -0.9646  0.4274 -0.5349
   93SAPS  H10Y 9184   5.384   5.220   8.042 -0.4820  0.7553  0.9432
   93SAPS  C311 9185   5.340   5.026   8.133 -0.1762 -0.1468 -0.0474
   93SAPS  H11X 9186   5.423   4.987   8.070  2.5825  0.4328  3.1315
   93SAPS  H11Y 9187   5.252   4.958   8.141 -1.8645  2.0215  0.2275
   93SAPS  C312 9188   5.396   5.042   8.273  0.7815 -0.0074 -0.5897
   93SAPS  H12X 9189   5.446   5.141   8.288  0.3150  0.1056  0.2432
   93SAPS  H12Y 9190   5.477   4.969   8.293 -1.0160 -1.4399  1.6594
   93SAPS  C313 9191   5.281   5.031   8.375 -0.3570 -0.4651 -0.2873
   93SAPS  H13X 9192   5.251   4.924   8.373 -1.4244 -0.2049  1.2337
   93SAPS  H13Y 9193   5.184   5.082   8.358  0.2482  0.4985 -0.9597
   93SAPS  C314 9194   5.326   5.076   8.515 -0.6673  0.3906  0.2054
   93SAPS  H14X 9195   5.260   5.155   8.558 -0.5218 -0.5370  2.1731
   93SAPS  H14Y 9196   5.433   5.107   8.507 -0.0441 -1.1617  2.1524
   93SAPS  C315 9197   5.325   4.965   8.621  0.3908  0.3904  0.8490
   93SAPS  H15X 9198   5.377   5.002   8.712  2.0403  0.1042  0.0509
   93SAPS  H15Y 9199   5.386   4.880   8.582  1.9399  1.6665  0.4132
   93SAPS  C316 9200   5.192   4.915   8.660 -0.2315  0.0349 -0.8109
   93SAPS  H16X 9201   5.126   4.916   8.571  1.8384  1.9177 -2.3877
   93SAPS  H16Y 9202   5.143   4.992   8.723 -1.1139 -1.0144 -0.1899
   93SAPS  C317 9203   5.191   4.780   8.747 -0.6532 -0.1254 -0.3806
   93SAPS  H17X 9204   5.232   4.700   8.683  0.7989 -0.0191  0.4110
   93SAPS  H17Y 9205   5.082   4.764   8.761 -1.0060  1.9828 -0.5115
   93SAPS  C318 9206   5.268   4.791   8.876 -0.2831  0.0087 -0.1183
   93SAPS  H18X 9207   5.376   4.809   8.858 -0.8182  1.6345 -1.9834
   93SAPS  H18Y 9208   5.272   4.699   8.937  2.4095  0.3185  0.2251
   93SAPS  H18Z 9209   5.227   4.880   8.929  1.2130  1.3998 -1.2165
   94SAPS     N 9210   4.685   0.645   5.974 -0.5760 -0.0607  0.0893
   94SAPS   HN1 9211   4.648   0.559   6.019 -0.1402  0.3984  1.3498
   94SAPS   HN2 9212   4.692   0.719   6.047  0.7665  1.8957 -1.9509
   94SAPS   HN3 9213   4.617   0.675   5.901 -1.1810 -0.8954  0.3043
   94SAPS   C12 9214   4.822   0.627   5.910  0.4562 -0.5146 -0.1040
   94SAPS  H12A 9215   4.891   0.585   5.981  1.5606  1.0642 -0.2248
   94SAPS   C13 9216   4.803   0.522   5.790 -0.9405 -0.3021 -0.1073
   94SAPS  O13A 9217   4.686   0.496   5.738  0.1164 -0.4224 -0.0483
   94SAPS  O13B 9218   4.913   0.480   5.738 -0.0881 -0.6466 -0.0181
   94SAPS   C11 9219   4.865   0.764   5.849 -0.9078 -0.2262  0.2979
   94SAPS  H11A 9220   4.790   0.794   5.773 -0.0919 -0.4869 -0.6248
   94SAPS  H11B 9221   4.955   0.746   5.787 -0.9726  0.6220 -0.0577
   94SAPS     P 9222   5.016   0.901   6.003  0.0837  0.1219 -0.0410
   94SAPS   O13 9223   5.069   0.784   6.074 -0.1242 -0.2327  0.5021
   94SAPS   O14 9224   5.101   0.954   5.897  0.1494  0.5116  0.1874
   94SAPS   O12 9225   4.870   0.872   5.948 -0.7425 -0.1217  0.0375
   94SAPS   O11 9226   4.984   1.012   6.106  0.2299 -0.2213 -0.3931
   94SAPS    C1 9227   4.858   1.077   6.127 -0.6422  0.6063  0.7302
   94SAPS    HA 9228   4.846   1.173   6.073  1.8418  0.5900  0.0921
   94SAPS    HB 9229   4.774   1.014   6.093  0.4514 -1.9533  2.5433
   94SAPS    C2 9230   4.830   1.092   6.273 -0.3926 -0.1597  0.1427
   94SAPS    HS 9231   4.901   1.172   6.303 -1.9213  0.9878  0.7733
   94SAPS   O21 9232   4.848   0.963   6.347 -0.2063  0.2396  0.3569
   94SAPS   C21 9233   4.961   0.973   6.421 -0.7421  0.6163 -0.3102
   94SAPS   O22 9234   5.036   1.065   6.436 -0.0568 -0.4415 -0.5059
   94SAPS   C22 9235   5.010   0.837   6.458 -0.3462 -0.2258 -0.8375
   94SAPS   H2R 9236   4.912   0.786   6.469 -0.2479 -0.0096  1.2763
   94SAPS   H2S 9237   5.070   0.800   6.372  2.1898  2.3468 -0.2332
   94SAPS    C3 9238   4.684   1.140   6.298 -0.5092 -0.4861 -0.1409
   94SAPS    HX 9239   4.617   1.071   6.242 -0.1399 -0.1981 -0.9440
   94SAPS    HY 9240   4.670   1.238   6.247 -3.2076 -1.0617 -0.5516
   94SAPS   O31 9241   4.659   1.135   6.436  0.8975 -0.0012  0.3778
   94SAPS   C31 9242   4.708   1.235   6.502  0.6788  0.0748  0.2553
   94SAPS   O32 9243   4.777   1.325   6.456 -0.3814 -0.1506 -0.5164
   94SAPS   C32 9244   4.655   1.237   6.650 -0.7999  0.6268  0.5735
   94SAPS   H2X 9245   4.545   1.221   6.645 -0.9974  0.8723  3.4284
   94SAPS   H2Y 9246   4.674   1.337   6.694  2.7201  0.3263 -0.0708
   94SAPS   C23 9247   5.099   0.847   6.589 -0.4901 -0.1666 -0.1379
   94SAPS   H3R 9248   5.041   0.896   6.670 -0.0679 -0.2998  0.2447
   94SAPS   H3S 9249   5.179   0.920   6.563 -1.5140  0.5078 -1.4455
   94SAPS   C24 9250   5.156   0.707   6.625 -0.3873 -0.0554  0.4478
   94SAPS   H4R 9251   5.251   0.717   6.681  0.5360 -0.0145 -1.0856
   94SAPS   H4S 9252   5.178   0.669   6.523 -2.5311 -0.1375  0.0046
   94SAPS   C25 9253   5.051   0.612   6.685 -0.5113  0.5055  0.1912
   94SAPS   H5R 9254   4.980   0.576   6.609  2.0867 -2.6211 -0.8706
   94SAPS   C26 9255   5.034   0.586   6.814  0.1751 -0.2327  0.4674
   94SAPS   H6R 9256   4.951   0.522   6.849 -1.1726  0.5152 -1.2433
   94SAPS   C27 9257   5.118   0.647   6.925  0.2482  0.7005 -0.1119
   94SAPS   H7R 9258   5.049   0.715   6.980 -0.3940 -1.2844  1.6444
   94SAPS   H7S 9259   5.199   0.708   6.881  0.4288 -0.2763 -1.1537
   94SAPS   C28 9260   5.189   0.560   7.033 -0.5866 -0.1212  0.1935
   94SAPS   H8R 9261   5.294   0.590   7.048 -1.2615  2.2574  0.3604
   94SAPS   C29 9262   5.138   0.470   7.119  0.5332 -0.0003  0.0102
   94SAPS   H9R 9263   5.212   0.413   7.177  0.0493  0.4559  1.0901
   94SAPS  C210 9264   4.997   0.422   7.128  0.5883 -0.4663 -0.2757
   94SAPS  H10R 9265   4.948   0.412   7.029  0.3660 -0.2939 -0.1817
   94SAPS  H10S 9266   4.938   0.497   7.184  2.6185  0.2898  0.9106
   94SAPS  C211 9267   4.978   0.281   7.186 -0.2635 -0.6674  0.7102
   94SAPS  H11R 9268   4.996   0.194   7.121  0.4217 -0.2152  0.2883
   94SAPS  C212 9269   4.945   0.255   7.312 -0.2414  0.0499 -0.5638
   94SAPS  H12R 9270   4.933   0.148   7.335 -0.2770 -0.2634 -1.9982
   94SAPS  C213 9271   4.923   0.347   7.425  0.1022  0.0573  0.5179
   94SAPS  H13R 9272   4.816   0.370   7.441  0.2745  0.5983  0.8993
   94SAPS  H13S 9273   4.969   0.444   7.394  2.3205 -1.6593 -1.7623
   94SAPS  C214 9274   4.971   0.301   7.560 -0.3593 -1.0624 -0.2495
   94SAPS  H14R 9275   4.938   0.198   7.577 -1.0665 -0.4203  2.6541
   94SAPS  C215 9276   5.060   0.361   7.643 -0.4017  0.2775 -1.0980
   94SAPS  H15R 9277   5.091   0.299   7.729  0.4213  2.2597  0.0766
   94SAPS  C216 9278   5.121   0.496   7.612 -0.2461 -0.6649 -0.0147
   94SAPS  H16R 9279   5.054   0.559   7.550  2.5922  1.3772 -1.1128
   94SAPS  H16S 9280   5.214   0.479   7.553 -0.5133  0.0757 -0.6531
   94SAPS  C217 9281   5.157   0.578   7.742 -0.2489 -1.4364  0.5962
   94SAPS  H17R 9282   5.186   0.683   7.717 -1.5568 -0.9309  1.1902
   94SAPS  H17S 9283   5.252   0.531   7.774  0.5483 -1.5055 -1.7259
   94SAPS  C218 9284   5.047   0.589   7.846 -0.2008 -0.1098 -0.0559
   94SAPS  H18R 9285   5.090   0.641   7.934  0.6230 -1.6960  0.5048
   94SAPS  H18S 9286   5.008   0.488   7.869 -1.9064  0.8041  1.1043
   94SAPS  C219 9287   4.926   0.669   7.807  0.4757  0.2788  0.4497
   94SAPS  H19R 9288   4.834   0.630   7.857  0.6993  1.3896  1.7470
   94SAPS  H19S 9289   4.906   0.667   7.698 -4.4950  1.3079  1.1934
   94SAPS  C220 9290   4.939   0.820   7.849  0.4367  0.3654 -0.4331
   94SAPS  H20R 9291   4.940   0.845   7.957 -2.2668  1.4544 -0.6319
   94SAPS  H20S 9292   4.856   0.877   7.802 -0.4237  0.5491  1.2902
   94SAPS  H20T 9293   5.029   0.856   7.795  0.4343  0.5353 -0.3203
   94SAPS   C33 9294   4.731   1.129   6.733 -0.0011 -0.2738 -0.5475
   94SAPS   H3X 9295   4.840   1.147   6.734 -0.0783  0.7048 -3.3569
   94SAPS   H3Y 9296   4.706   1.031   6.687 -0.5352 -0.5749  0.3636
   94SAPS   C34 9297   4.669   1.129   6.874  0.0312 -0.5306  0.0559
   94SAPS   H4X 9298   4.577   1.068   6.865 -0.3610 -0.0287  0.6648
   94SAPS   H4Y 9299   4.651   1.232   6.912 -1.1795 -0.5495 -0.4376
   94SAPS   C35 9300   4.758   1.065   6.978 -0.5243 -0.0822 -0.0179
   94SAPS   H5X 9301   4.782   0.963   6.939 -0.9379  0.4831 -1.7784
   94SAPS   H5Y 9302   4.690   1.050   7.065  2.0034  0.0108  2.0648
   94SAPS   C36 9303   4.890   1.138   7.014  0.1807  0.3652  0.2134
   94SAPS   H6X 9304   4.885   1.249   7.022 -0.4255  0.5283 -2.1117
   94SAPS   H6Y 9305   4.963   1.119   6.933 -1.7587 -1.3962 -1.1864
   94SAPS   C37 9306   4.944   1.093   7.146 -0.6476  0.6327 -0.6594
   94SAPS   H7X 9307   4.877   1.033   7.212 -0.7779 -1.3462 -2.5117
   94SAPS   H7Y 9308   4.974   1.184   7.202 -1.1339 -0.5275  1.5429
   94SAPS   C38 9309   5.079   1.015   7.137 -0.7038  0.0806 -0.2624
   94SAPS   H8X 9310   5.169   1.078   7.121  1.2098 -1.4859  3.5505
   94SAPS   H8Y 9311   5.069   0.946   7.050 -1.8170  1.4764 -1.2587
   94SAPS   C39 9312   5.109   0.949   7.277 -0.4250  0.4653 -0.4500
   94SAPS   H9X 9313   5.206   0.896   7.265  0.2690  2.2148 -3.0441
   94SAPS   H9Y 9314   5.030   0.877   7.304  0.5090  0.2358  1.7522
   94SAPS  C310 9315   5.115   1.041   7.397  0.4125  0.5004 -0.1894
   94SAPS  H10X 9316   5.122   0.981   7.490 -1.6606  0.7864  0.1727
   94SAPS  H10Y 9317   5.017   1.092   7.397  1.3784  2.4191 -0.3570
   94SAPS  C311 9318   5.238   1.138   7.398 -0.0096  0.4086 -0.0634
   94SAPS  H11X 9319   5.251   1.197   7.306  0.4128  1.0581  0.4081
   94SAPS  H11Y 9320   5.323   1.069   7.419 -2.6613 -3.4854 -1.5098
   94SAPS  C312 9321   5.223   1.227   7.528 -0.5252  0.2960  0.7644
   94SAPS  H12X 9322   5.131   1.288   7.514 -0.8489 -0.1822  0.8116
   94SAPS  H12Y 9323   5.315   1.288   7.522  0.1996 -0.8887 -0.6251
   94SAPS  C313 9324   5.233   1.163   7.663  0.4427  0.7768 -0.1087
   94SAPS  H13X 9325   5.331   1.114   7.682  0.3603 -0.1359 -1.8757
   94SAPS  H13Y 9326   5.156   1.084   7.674  0.3589  0.8847  0.0845
   94SAPS  C314 9327   5.200   1.264   7.774  0.0203  0.3601 -0.0732
   94SAPS  H14X 9328   5.098   1.302   7.752  0.1876  0.2092 -1.1310
   94SAPS  H14Y 9329   5.257   1.359   7.762  0.7129 -0.0119  0.2140
   94SAPS  C315 9330   5.210   1.216   7.914  0.6186 -0.1086 -0.5978
   94SAPS  H15X 9331   5.316   1.220   7.948  0.3662  1.4998  0.0490
   94SAPS  H15Y 9332   5.179   1.109   7.917  2.9145 -0.7544  2.0767
   94SAPS  C316 9333   5.108   1.290   8.009 -0.2687  0.4322  0.5330
   94SAPS  H16X 9334   5.074   1.237   8.101 -1.0122  2.4897  1.4652
   94SAPS  H16Y 9335   5.020   1.308   7.943  1.1452 -0.3688 -1.6270
   94SAPS  C317 9336   5.149   1.430   8.055  0.1194  1.2348 -0.0025
   94SAPS  H17X 9337   5.181   1.486   7.965  0.5986  0.0720 -0.5517
   94SAPS  H17Y 9338   5.240   1.431   8.118 -0.5667  1.0271  1.0098
   94SAPS  C318 9339   5.034   1.505   8.122  0.3512  0.0295 -0.6909
   94SAPS  H18X 9340   5.001   1.453   8.214  1.1034 -0.4483 -0.6871
   94SAPS  H18Y 9341   4.949   1.519   8.051  2.0340 -0.2978 -2.8333
   94SAPS  H18Z 9342   5.065   1.602   8.166 -1.0208 -1.0236  2.7207
   95SAPS     N 9343   1.085   4.828   5.864  0.0610 -0.0606  0.3618
   95SAPS   HN1 9344   1.093   4.794   5.766 -0.8100 -0.2337  0.3479
   95SAPS   HN2 9345   0.996   4.800   5.910  0.5670 -2.0853  0.1776
   95SAPS   HN3 9346   1.064   4.928   5.846 -0.6741  0.0403  1.7161
   95SAPS   C12 9347   1.190   4.807   5.968 -0.7818 -0.3999 -0.1441
   95SAPS  H12A 9348   1.153   4.739   6.043  0.6410  0.1152  1.0659
   95SAPS   C13 9349   1.329   4.756   5.930  0.4439 -0.2164 -0.8402
   95SAPS  O13A 9350   1.352   4.730   5.810  0.0647  0.2693  0.8141
   95SAPS  O13B 9351   1.422   4.761   6.015  0.2819  0.5492  0.1933
   95SAPS   C11 9352   1.212   4.950   6.037  0.0562  0.2748 -0.1153
   95SAPS  H11A 9353   1.295   4.996   5.980  0.8321 -3.6780 -2.3813
   95SAPS  H11B 9354   1.256   4.926   6.137  1.0893  3.4139  0.2340
   95SAPS     P 9355   1.122   5.181   6.085  0.0642  0.3811 -0.2295
   95SAPS   O13 9356   1.209   5.241   5.984  0.1601 -0.3283  0.1660
   95SAPS   O14 9357   0.995   5.253   6.101  0.1692  0.2386 -0.9699
   95SAPS   O12 9358   1.098   5.032   6.051  0.2432  0.3255  0.5044
   95SAPS   O11 9359   1.192   5.170   6.227 -0.4668 -0.2448 -0.6355
   95SAPS    C1 9360   1.295   5.266   6.264  0.1747 -0.1181 -0.2283
   95SAPS    HA 9361   1.380   5.247   6.195  1.6396  1.8552  1.0056
   95SAPS    HB 9362   1.268   5.373   6.254  0.9453  0.3703  2.5306
   95SAPS    C2 9363   1.339   5.230   6.403 -0.1832 -0.4651 -0.3064
   95SAPS    HS 9364   1.437   5.283   6.413  0.9669 -2.2497 -1.7728
   95SAPS   O21 9365   1.374   5.096   6.423  0.2245 -0.3824 -0.2779
   95SAPS   C21 9366   1.469   5.031   6.359 -0.6554 -0.2341 -0.0248
   95SAPS   O22 9367   1.552   5.091   6.292  0.2905 -0.2287 -0.1547
   95SAPS   C22 9368   1.471   4.885   6.392  0.2191 -0.4850 -0.2850
   95SAPS   H2R 9369   1.409   4.869   6.483  1.6311 -2.6553  0.3434
   95SAPS   H2S 9370   1.422   4.829   6.309  0.6335  0.7393 -1.3724
   95SAPS    C3 9371   1.234   5.277   6.512 -0.2178 -0.3419  0.6132
   95SAPS    HX 9372   1.148   5.210   6.494 -1.1238  0.6891  0.9975
   95SAPS    HY 9373   1.202   5.382   6.492 -1.5129 -0.9067 -0.2853
   95SAPS   O31 9374   1.272   5.271   6.644  0.6591 -0.2426  0.1447
   95SAPS   C31 9375   1.181   5.302   6.738 -0.5502  0.2565  0.6576
   95SAPS   O32 9376   1.076   5.359   6.717 -0.1153 -0.3758 -0.3543
   95SAPS   C32 9377   1.230   5.259   6.876  0.1242 -0.4994  0.4785
   95SAPS   H2X 9378   1.342   5.261   6.877  0.1070  1.3852  1.3576
   95SAPS   H2Y 9379   1.192   5.160   6.907 -2.4729  1.3228  3.4728
   95SAPS   C23 9380   1.609   4.815   6.419 -0.3801  0.1606 -0.1587
   95SAPS   H3R 9381   1.676   4.826   6.331  0.2928 -1.1386  0.1827
   95SAPS   H3S 9382   1.582   4.710   6.441 -1.1001  0.7152  1.6745
   95SAPS   C24 9383   1.673   4.873   6.545  0.4566 -0.3985 -0.5851
   95SAPS   H4R 9384   1.675   4.984   6.535 -2.0718 -0.0919  1.7648
   95SAPS   H4S 9385   1.778   4.837   6.540  1.3521  2.2330 -2.1175
   95SAPS   C25 9386   1.606   4.824   6.673 -0.4449 -0.4112 -0.4854
   95SAPS   H5R 9387   1.638   4.721   6.695  1.3618  0.8151  2.8467
   95SAPS   C26 9388   1.532   4.895   6.763 -0.5403 -0.4966 -0.0570
   95SAPS   H6R 9389   1.478   4.833   6.836 -1.5979  0.4853  0.0039
   95SAPS   C27 9390   1.491   5.038   6.752 -0.4249 -0.8494  0.0702
   95SAPS   H7R 9391   1.425   5.061   6.837  1.7539  2.0669  1.0710
   95SAPS   H7S 9392   1.438   5.048   6.655  0.1717  0.2093 -0.1661
   95SAPS   C28 9393   1.603   5.140   6.764  0.2872  0.0634  0.4882
   95SAPS   H8R 9394   1.648   5.171   6.669  0.8152 -2.6910 -0.2220
   95SAPS   C29 9395   1.648   5.189   6.880 -0.3487 -0.3862  0.4465
   95SAPS   H9R 9396   1.742   5.245   6.874 -2.2796  2.8997 -0.1909
   95SAPS  C210 9397   1.604   5.167   7.024  0.1486 -0.0128 -0.0641
   95SAPS  H10R 9398   1.494   5.178   7.036 -0.5158 -3.2443 -2.6933
   95SAPS  H10S 9399   1.658   5.253   7.071 -0.6004 -0.2661  1.2764
   95SAPS  C211 9400   1.635   5.039   7.086  0.3495 -0.1016  0.1601
   95SAPS  H11R 9401   1.655   4.963   7.010  0.5618 -0.0043  0.1201
   95SAPS  C212 9402   1.643   5.015   7.215 -0.5290 -0.0767 -0.3206
   95SAPS  H12R 9403   1.651   4.913   7.255 -0.5247 -0.2044 -0.6426
   95SAPS  C213 9404   1.634   5.111   7.332 -0.0279 -0.1170 -0.0448
   95SAPS  H13R 9405   1.536   5.093   7.382 -0.4147 -0.4401 -0.9015
   95SAPS  H13S 9406   1.632   5.218   7.303  1.0821 -0.5731 -1.9014
   95SAPS  C214 9407   1.736   5.081   7.438  0.3112  0.5399 -0.2719
   95SAPS  H14R 9408   1.814   5.012   7.406  0.9162  1.1817 -0.2000
   95SAPS  C215 9409   1.746   5.126   7.563 -0.1230  0.0809  0.0934
   95SAPS  H15R 9410   1.831   5.084   7.620  1.2502 -0.1682 -2.0688
   95SAPS  C216 9411   1.655   5.219   7.636 -0.4865  0.4251  0.6613
   95SAPS  H16R 9412   1.555   5.215   7.586 -0.4849 -0.1675  0.7080
   95SAPS  H16S 9413   1.685   5.324   7.612 -0.2111  0.5754  1.6382
   95SAPS  C217 9414   1.629   5.206   7.789 -0.0646 -0.2973 -0.2393
   95SAPS  H17R 9415   1.616   5.101   7.822  1.6534 -0.5083 -0.1658
   95SAPS  H17S 9416   1.533   5.261   7.800  0.0130  0.2001 -1.8344
   95SAPS  C218 9417   1.750   5.260   7.872 -0.2773 -0.2649 -0.0248
   95SAPS  H18R 9418   1.722   5.285   7.977  0.7290 -0.5288  0.3043
   95SAPS  H18S 9419   1.783   5.356   7.827  1.1396  0.6837  2.9226
   95SAPS  C219 9420   1.879   5.171   7.885  0.1989 -0.1334 -0.4109
   95SAPS  H19R 9421   1.942   5.172   7.794  0.5234  0.1823 -0.1851
   95SAPS  H19S 9422   1.845   5.066   7.897  1.0713 -0.2379  1.3858
   95SAPS  C220 9423   1.954   5.191   8.015 -0.1656 -0.0657  1.0663
   95SAPS  H20R 9424   1.888   5.206   8.103 -0.1240  0.4182  1.0169
   95SAPS  H20S 9425   2.014   5.284   8.004 -1.2693  0.4688 -0.6181
   95SAPS  H20T 9426   2.036   5.116   8.013  1.4080  1.5473  2.6084
   95SAPS   C33 9427   1.170   5.338   6.994  0.6571 -0.5946 -0.0993
   95SAPS   H3X 9428   1.059   5.335   6.991  0.5646  1.6708 -0.3112
   95SAPS   H3Y 9429   1.197   5.444   6.974  0.7251 -0.3278  1.4058
   95SAPS   C34 9430   1.220   5.305   7.135 -0.2649 -0.3348  0.9735
   95SAPS   H4X 9431   1.323   5.338   7.162 -0.4477  1.8890 -0.9148
   95SAPS   H4Y 9432   1.227   5.194   7.141  0.0395 -0.5021 -1.9344
   95SAPS   C35 9433   1.122   5.345   7.248 -0.0978 -0.0711  0.5121
   95SAPS   H5X 9434   1.023   5.295   7.232 -0.1563  0.2664 -0.1490
   95SAPS   H5Y 9435   1.092   5.451   7.237 -0.0679 -0.0002  1.0627
   95SAPS   C36 9436   1.186   5.330   7.390  0.3633  0.2468 -1.4237
   95SAPS   H6X 9437   1.271   5.401   7.391  1.3813 -0.9486 -1.1743
   95SAPS   H6Y 9438   1.231   5.229   7.402  1.5767  0.7648 -1.5096
   95SAPS   C37 9439   1.087   5.378   7.495 -0.0399  1.0578  0.2113
   95SAPS   H7X 9440   0.996   5.314   7.489  1.8912 -1.6991 -0.6743
   95SAPS   H7Y 9441   1.064   5.485   7.479 -1.6315  0.6309 -0.4581
   95SAPS   C38 9442   1.146   5.359   7.636  0.5255  0.1756  0.0568
   95SAPS   H8X 9443   1.244   5.410   7.640  0.5674 -0.0159  2.6382
   95SAPS   H8Y 9444   1.173   5.253   7.659 -0.7488 -0.0134  0.7668
   95SAPS   C39 9445   1.043   5.407   7.745  0.4773 -0.1997 -0.7036
   95SAPS   H9X 9446   0.955   5.344   7.722 -0.3153  0.7522 -0.2792
   95SAPS   H9Y 9447   1.028   5.515   7.724 -1.0973 -0.5290 -1.2649
   95SAPS  C310 9448   1.092   5.392   7.891 -0.4230 -0.6271 -0.0937
   95SAPS  H10X 9449   1.126   5.287   7.900 -0.6435 -0.5138  2.3179
   95SAPS  H10Y 9450   1.003   5.412   7.955 -0.8490 -1.4523 -0.4198
   95SAPS  C311 9451   1.211   5.484   7.929  0.4335  0.6210  0.1521
   95SAPS  H11X 9452   1.299   5.468   7.863 -0.9995 -0.5366 -1.5256
   95SAPS  H11Y 9453   1.255   5.446   8.023 -2.5753 -1.5365  0.7654
   95SAPS  C312 9454   1.182   5.627   7.959  0.4597 -0.4709  1.0413
   95SAPS  H12X 9455   1.122   5.668   7.875  1.7622  0.6347  0.6421
   95SAPS  H12Y 9456   1.271   5.692   7.966 -0.6012  1.1250  0.0155
   95SAPS  C313 9457   1.106   5.644   8.092 -0.1162 -0.8852 -0.0436
   95SAPS  H13X 9458   1.028   5.565   8.098 -0.0197 -1.1465 -1.9250
   95SAPS  H13Y 9459   1.051   5.740   8.089 -0.9925 -1.3196  1.5770
   95SAPS  C314 9460   1.201   5.628   8.219 -0.3028  0.1104 -0.1844
   95SAPS  H14X 9461   1.289   5.691   8.196 -0.4227 -0.1964 -1.5551
   95SAPS  H14Y 9462   1.242   5.525   8.213  0.2020  0.2544  0.8199
   95SAPS  C315 9463   1.141   5.637   8.351 -0.2397 -1.0580  0.1321
   95SAPS  H15X 9464   1.186   5.561   8.419  3.4502  0.6671 -0.2904
   95SAPS  H15Y 9465   1.032   5.618   8.340 -0.1108 -2.9926  1.8932
   95SAPS  C316 9466   1.163   5.775   8.410 -0.6866 -0.2706 -0.5571
   95SAPS  H16X 9467   1.272   5.794   8.404 -0.6182 -0.3090  0.6416
   95SAPS  H16Y 9468   1.141   5.778   8.518  1.9627  0.1878 -0.0067
   95SAPS  C317 9469   1.068   5.869   8.333  0.6319 -0.0689  0.0638
   95SAPS  H17X 9470   0.971   5.818   8.317 -0.3050  1.6357  0.1917
   95SAPS  H17Y 9471   1.120   5.893   8.238  1.2637 -2.0031 -0.0857
   95SAPS  C318 9472   1.036   5.996   8.412  0.1653  0.4243  0.2291
   95SAPS  H18X 9473   0.960   6.061   8.364  0.5152 -0.0223 -0.9344
   95SAPS  H18Y 9474   1.125   6.061   8.429  0.0491  0.2391  1.6080
   95SAPS  H18Z 9475   1.014   5.969   8.518 -1.0831 -0.5479 -0.2680
   96SAPS     N 9476   2.267   6.663   6.035 -0.2581 -0.0616 -0.2971
   96SAPS   HN1 9477   2.250   6.581   5.974  1.0220  0.5253 -1.5003
   96SAPS   HN2 9478   2.341   6.723   5.991  1.4923 -2.7570 -1.1686
   96SAPS   HN3 9479   2.319   6.632   6.120  3.0695 -0.4380 -2.3534
   96SAPS   C12 9480   2.139   6.722   6.071 -0.0028 -0.8097  0.2227
   96SAPS  H12A 9481   2.126   6.811   6.011 -1.0329 -1.9213 -1.2390
   96SAPS   C13 9482   2.014   6.637   6.042  1.2077  0.4806 -0.6405
   96SAPS  O13A 9483   2.023   6.515   6.011  0.2868 -0.3309 -0.0803
   96SAPS  O13B 9484   1.896   6.683   6.041  0.4041  0.0354 -0.4580
   96SAPS   C11 9485   2.133   6.750   6.226  0.0433  0.3386 -0.7455
   96SAPS  H11A 9486   2.136   6.654   6.280 -0.5763  0.3188 -0.7462
   96SAPS  H11B 9487   2.037   6.800   6.253 -0.5184 -0.8799 -0.4775
   96SAPS     P 9488   2.265   6.913   6.390 -0.3294 -0.4273  0.0314
   96SAPS   O13 9489   2.406   6.925   6.416  0.2754  0.2176 -0.3504
   96SAPS   O14 9490   2.188   7.038   6.377  0.3575 -0.0873  0.1465
   96SAPS   O12 9491   2.242   6.833   6.256  0.4204 -0.2748  0.0236
   96SAPS   O11 9492   2.195   6.828   6.504  0.1829  1.2975  0.0599
   96SAPS    C1 9493   2.248   6.705   6.553 -0.0550 -0.9443  0.2897
   96SAPS    HA 9494   2.164   6.632   6.549 -0.3555 -0.6713  1.3569
   96SAPS    HB 9495   2.335   6.667   6.496  0.3687 -0.6492  0.7329
   96SAPS    C2 9496   2.300   6.705   6.702 -0.6085 -0.2873  0.5763
   96SAPS    HS 9497   2.340   6.604   6.727  0.5073 -0.6719 -2.5156
   96SAPS   O21 9498   2.204   6.745   6.795 -0.0242 -0.2453  0.3755
   96SAPS   C21 9499   2.132   6.651   6.840  0.0854 -0.4333 -0.2760
   96SAPS   O22 9500   2.137   6.538   6.797 -0.0847  0.6317  0.4343
   96SAPS   C22 9501   2.026   6.711   6.929 -0.0609 -0.1799  0.1046
   96SAPS   H2R 9502   2.027   6.822   6.921  0.7292 -0.1534  0.5757
   96SAPS   H2S 9503   1.931   6.670   6.886  0.0342  0.2180 -0.4924
   96SAPS    C3 9504   2.427   6.794   6.713  0.8135  0.1150  0.2967
   96SAPS    HX 9505   2.400   6.900   6.693  1.6817  0.0382 -1.3924
   96SAPS    HY 9506   2.502   6.761   6.638  1.1073 -2.8704  1.8283
   96SAPS   O31 9507   2.482   6.786   6.844 -0.0248  0.3038  0.1334
   96SAPS   C31 9508   2.588   6.857   6.873 -0.1013  0.1232 -0.1706
   96SAPS   O32 9509   2.636   6.945   6.805 -0.2077  0.8938 -0.2755
   96SAPS   C32 9510   2.627   6.812   7.010 -0.3254 -0.6542  0.2000
   96SAPS   H2X 9511   2.674   6.711   7.016  0.0355 -0.4280  1.2502
   96SAPS   H2Y 9512   2.539   6.816   7.078 -0.7023  0.0485 -0.3274
   96SAPS   C23 9513   2.033   6.669   7.078 -0.0947 -0.1695  0.7532
   96SAPS   H3R 9514   1.958   6.731   7.131 -0.4913 -0.1627  0.1921
   96SAPS   H3S 9515   2.133   6.679   7.125  0.4297  0.3518 -0.4569
   96SAPS   C24 9516   1.985   6.516   7.111 -0.0823  0.4279 -0.2792
   96SAPS   H4R 9517   2.021   6.488   7.212 -2.0132  0.7397  0.5152
   96SAPS   H4S 9518   2.040   6.457   7.035 -0.2421  3.5475 -2.9307
   96SAPS   C25 9519   1.836   6.492   7.101 -0.4748  0.4150  0.9893
   96SAPS   H5R 9520   1.804   6.444   7.007  1.6639  1.7863 -0.4806
   96SAPS   C26 9521   1.747   6.519   7.200  0.3408 -0.1632 -0.0801
   96SAPS   H6R 9522   1.645   6.478   7.188 -0.1298  1.0196 -0.2384
   96SAPS   C27 9523   1.772   6.581   7.330 -0.0090 -0.2729 -0.0384
   96SAPS   H7R 9524   1.693   6.659   7.333  0.9316  0.8423 -2.6709
   96SAPS   H7S 9525   1.870   6.634   7.335  0.3740 -0.9419 -0.3726
   96SAPS   C28 9526   1.760   6.493   7.451  0.2874 -0.4649 -0.6840
   96SAPS   H8R 9527   1.700   6.404   7.429 -0.2755 -0.3711  0.3817
   96SAPS   C29 9528   1.808   6.519   7.574 -0.8272 -0.4652  0.0101
   96SAPS   H9R 9529   1.779   6.453   7.657  0.0515  0.6672  1.2301
   96SAPS  C210 9530   1.882   6.647   7.608  0.0273 -0.0859  0.1156
   96SAPS  H10R 9531   1.867   6.663   7.717  0.1789  1.6829 -0.1083
   96SAPS  H10S 9532   1.828   6.733   7.563 -1.1735 -0.9331 -0.1048
   96SAPS  C211 9533   2.023   6.660   7.561 -0.5475  0.6339  0.4729
   96SAPS  H11R 9534   2.037   6.612   7.463 -0.2683  0.2962  0.6776
   96SAPS  C212 9535   2.124   6.735   7.607  0.2690  0.1398 -0.3286
   96SAPS  H12R 9536   2.215   6.734   7.545  0.3555  2.3519 -0.2956
   96SAPS  C213 9537   2.127   6.823   7.727 -0.1445  0.1997  0.2290
   96SAPS  H13R 9538   2.029   6.842   7.776  1.0529  1.7517  2.1127
   96SAPS  H13S 9539   2.160   6.921   7.686  2.1699 -0.4312  0.4945
   96SAPS  C214 9540   2.244   6.783   7.819  0.3327 -0.2247  0.8630
   96SAPS  H14R 9541   2.293   6.686   7.803  0.7700 -0.4932  3.5092
   96SAPS  C215 9542   2.284   6.855   7.923 -0.2176  0.1619 -0.4587
   96SAPS  H15R 9543   2.356   6.806   7.990 -1.7822 -1.9602 -0.3230
   96SAPS  C216 9544   2.219   6.985   7.966  0.0635 -0.0567 -0.2045
   96SAPS  H16R 9545   2.117   6.981   7.923 -0.9889  0.9432  2.1081
   96SAPS  H16S 9546   2.279   7.073   7.936  0.1593 -0.0364  0.0434
   96SAPS  C217 9547   2.188   6.987   8.110  0.6821 -0.2696 -0.2835
   96SAPS  H17R 9548   2.113   6.911   8.142 -0.5107  1.6215  1.5534
   96SAPS  H17S 9549   2.138   7.081   8.142  1.7833  0.5946 -1.0500
   96SAPS  C218 9550   2.313   6.966   8.194  0.0180  0.5934 -0.0668
   96SAPS  H18R 9551   2.397   7.036   8.173  0.3893  0.3092  0.4681
   96SAPS  H18S 9552   2.345   6.861   8.182  1.9934  1.2525 -0.6758
   96SAPS  C219 9553   2.298   6.980   8.344  0.2407 -0.4496  0.6090
   96SAPS  H19R 9554   2.324   7.084   8.373 -0.5319 -0.1110  0.1062
   96SAPS  H19S 9555   2.375   6.927   8.404  1.5223  0.9307  0.2228
   96SAPS  C220 9556   2.163   6.946   8.402  0.3722 -0.0835 -0.4155
   96SAPS  H20R 9557   2.163   6.948   8.513 -0.8765 -1.0759 -0.3876
   96SAPS  H20S 9558   2.139   6.839   8.386  0.1249 -0.0820 -0.0553
   96SAPS  H20T 9559   2.082   7.007   8.357 -1.1928 -0.6764  1.5654
   96SAPS   C33 9560   2.722   6.917   7.073  0.7140 -0.5429 -0.5328
   96SAPS   H3X 9561   2.673   7.016   7.077 -0.6044 -1.2248  0.9667
   96SAPS   H3Y 9562   2.814   6.926   7.011  2.3368  2.4737  2.2133
   96SAPS   C34 9563   2.758   6.880   7.216  0.2115  0.1806 -0.1220
   96SAPS   H4X 9564   2.796   6.776   7.219 -0.4790 -0.0837 -0.2851
   96SAPS   H4Y 9565   2.670   6.894   7.282  0.4113  3.9006 -0.5687
   96SAPS   C35 9566   2.878   6.954   7.285 -0.1482  0.3666 -0.9895
   96SAPS   H5X 9567   2.862   7.063   7.273 -0.3720  0.1996 -2.3217
   96SAPS   H5Y 9568   2.962   6.917   7.222  1.1137  1.9795 -0.2824
   96SAPS   C36 9569   2.905   6.925   7.428  0.0972  0.4029 -0.6031
   96SAPS   H6X 9570   2.885   6.817   7.444 -1.2545  0.7786  0.3449
   96SAPS   H6Y 9571   2.835   6.990   7.485 -0.1792 -1.2962  1.0253
   96SAPS   C37 9572   3.045   6.953   7.487  0.2088  0.4018  0.6926
   96SAPS   H7X 9573   3.080   7.058   7.490  3.2032 -0.5743  1.9543
   96SAPS   H7Y 9574   3.122   6.887   7.442  4.3736  2.8167  3.9159
   96SAPS   C38 9575   3.032   6.914   7.632  0.1529 -0.1722  0.4999
   96SAPS   H8X 9576   3.044   6.806   7.654 -1.8590 -0.2539  1.3978
   96SAPS   H8Y 9577   2.923   6.929   7.650 -0.7388 -1.7299 -3.0965
   96SAPS   C39 9578   3.107   7.005   7.732 -0.0798 -0.6655 -0.1000
   96SAPS   H9X 9579   3.203   7.033   7.683 -0.1071 -2.0327 -0.9380
   96SAPS   H9Y 9580   3.134   6.947   7.823  0.1784 -2.9713 -1.5879
   96SAPS  C310 9581   3.032   7.132   7.774  0.2389 -0.4339 -1.0192
   96SAPS  H10X 9582   2.945   7.108   7.839  2.2285  0.6934  2.1625
   96SAPS  H10Y 9583   3.002   7.194   7.686 -0.0608  2.0899  0.7926
   96SAPS  C311 9584   3.125   7.215   7.861 -0.3704  0.3041  0.1703
   96SAPS  H11X 9585   3.202   7.257   7.793 -0.8495  2.3435  0.8419
   96SAPS  H11Y 9586   3.183   7.155   7.934 -0.7902  2.1465  2.0711
   96SAPS  C312 9587   3.053   7.331   7.934 -0.4746 -0.0470  0.0896
   96SAPS  H12X 9588   2.977   7.289   8.003 -0.4812  1.6382  1.1413
   96SAPS  H12Y 9589   2.999   7.399   7.863 -0.2335  0.7644  0.6746
   96SAPS  C313 9590   3.156   7.409   8.020  0.1004  0.0342  0.6822
   96SAPS  H13X 9591   3.225   7.460   7.949 -0.5297  0.3162  0.2694
   96SAPS  H13Y 9592   3.213   7.335   8.080  1.8367  2.2928  1.8796
   96SAPS  C314 9593   3.094   7.510   8.122 -0.5371 -0.5230 -0.6177
   96SAPS  H14X 9594   3.030   7.452   8.193  0.0048 -0.0692  0.2588
   96SAPS  H14Y 9595   3.039   7.592   8.072  0.2240  0.4087  0.0560
   96SAPS  C315 9596   3.204   7.574   8.199  0.4734  0.0141 -0.0029
   96SAPS  H15X 9597   3.256   7.634   8.122  0.1906 -0.5325 -0.6258
   96SAPS  H15Y 9598   3.274   7.500   8.244  0.6564  0.6686  0.8140
   96SAPS  C316 9599   3.141   7.669   8.300 -0.1551  0.5627 -0.9533
   96SAPS  H16X 9600   3.068   7.610   8.360 -0.1944  1.4297 -0.1300
   96SAPS  H16Y 9601   3.073   7.742   8.252  1.6194  2.9172  0.0397
   96SAPS  C317 9602   3.257   7.743   8.372  0.7951 -0.7458 -0.1406
   96SAPS  H17X 9603   3.274   7.826   8.300  1.8016 -0.5083  0.3688
   96SAPS  H17Y 9604   3.350   7.682   8.371  0.7174 -0.8667 -0.0847
   96SAPS  C318 9605   3.225   7.798   8.513  0.4240 -0.1415 -0.7228
   96SAPS  H18X 9606   3.319   7.833   8.561  0.3523  1.2960 -1.5970
   96SAPS  H18Y 9607   3.189   7.714   8.577  2.5069 -0.2488  0.3325
   96SAPS  H18Z 9608   3.152   7.882   8.514  0.7839  0.1769  2.2688
   97SAPS     N 9609   2.798   4.920   6.419  0.0028  0.9274 -0.4658
   97SAPS   HN1 9610   2.804   4.831   6.472  0.0636  0.6723 -0.8944
   97SAPS   HN2 9611   2.858   4.990   6.468  2.5336 -2.1674  1.0589
   97SAPS   HN3 9612   2.698   4.945   6.406 -0.3794  1.3610  2.9311
   97SAPS   C12 9613   2.851   4.889   6.283  0.2625 -0.0206 -0.0064
   97SAPS  H12A 9614   2.825   4.789   6.251 -0.5317  0.0511  0.4216
   97SAPS   C13 9615   2.806   4.989   6.175  0.0488 -0.0772  0.0430
   97SAPS  O13A 9616   2.755   5.105   6.205  0.0891  0.5391  0.3759
   97SAPS  O13B 9617   2.848   4.963   6.057 -0.0626 -0.4949  0.1061
   97SAPS   C11 9618   3.003   4.888   6.295 -0.8558  0.2740 -0.1424
   97SAPS  H11A 9619   3.029   4.996   6.304  1.8939 -0.5147  2.1881
   97SAPS  H11B 9620   3.041   4.849   6.199 -0.5084  0.0543  0.0822
   97SAPS     P 9621   3.217   4.814   6.416 -0.4415  0.2786 -0.6440
   97SAPS   O13 9622   3.295   4.721   6.329  0.2510 -0.5964 -0.0192
   97SAPS   O14 9623   3.248   4.959   6.412 -0.1457 -0.3067  0.7771
   97SAPS   O12 9624   3.062   4.800   6.394 -0.0890 -0.5739  0.1086
   97SAPS   O11 9625   3.239   4.761   6.562  0.4353 -0.3208  0.6773
   97SAPS    C1 9626   3.118   4.726   6.642 -0.7697  0.4396  0.3515
   97SAPS    HA 9627   3.051   4.814   6.659 -0.4385  0.8939 -0.6422
   97SAPS    HB 9628   3.072   4.641   6.587  2.0706 -0.5473 -0.5925
   97SAPS    C2 9629   3.151   4.657   6.780  0.1126 -0.2880 -0.0409
   97SAPS    HS 9630   3.188   4.737   6.848  1.5651 -0.9481 -0.0413
   97SAPS   O21 9631   3.251   4.560   6.766 -0.0975  0.1528  0.2429
   97SAPS   C21 9632   3.378   4.603   6.757 -0.3663 -0.4979  0.6786
   97SAPS   O22 9633   3.420   4.718   6.763  0.6566  0.2808 -0.9716
   97SAPS   C22 9634   3.474   4.486   6.745  0.5507  0.1939  0.4531
   97SAPS   H2R 9635   3.417   4.394   6.719 -0.0510  1.6898 -3.8644
   97SAPS   H2S 9636   3.534   4.516   6.657 -0.3313  0.5168 -0.0507
   97SAPS    C3 9637   3.019   4.605   6.842 -0.1617 -0.9500  0.3491
   97SAPS    HX 9638   2.987   4.510   6.794  0.7950 -1.2086  0.2269
   97SAPS    HY 9639   2.947   4.684   6.810 -0.1457 -0.0540  2.4283
   97SAPS   O31 9640   3.019   4.596   6.989  0.0499 -0.0075  0.6292
   97SAPS   C31 9641   2.915   4.536   7.048  0.5526  0.4288  0.0002
   97SAPS   O32 9642   2.816   4.500   6.984 -0.1565 -0.1378  0.2212
   97SAPS   C32 9643   2.941   4.518   7.198 -0.1484 -0.4977  0.1639
   97SAPS   H2X 9644   2.967   4.616   7.243 -1.1791 -1.4053  2.8143
   97SAPS   H2Y 9645   3.030   4.459   7.226  0.0082 -1.2700 -1.8793
   97SAPS   C23 9646   3.559   4.465   6.871 -0.1644 -0.1007 -0.0087
   97SAPS   H3R 9647   3.590   4.563   6.913 -1.9945  0.9301 -0.9961
   97SAPS   H3S 9648   3.653   4.412   6.848  0.5009  1.2797 -0.5132
   97SAPS   C24 9649   3.483   4.379   6.979 -0.3587 -0.2257  0.4171
   97SAPS   H4R 9650   3.454   4.283   6.931 -0.2189 -0.0379 -0.0372
   97SAPS   H4S 9651   3.390   4.435   7.006  0.4139  0.9943  0.6030
   97SAPS   C25 9652   3.567   4.342   7.096 -0.5966 -0.1181  0.0965
   97SAPS   H5R 9653   3.669   4.319   7.063 -1.1884 -2.3145 -0.2945
   97SAPS   C26 9654   3.525   4.356   7.221 -0.3181  0.7981 -0.2395
   97SAPS   H6R 9655   3.593   4.324   7.302 -1.6237  0.5929  0.7772
   97SAPS   C27 9656   3.398   4.417   7.285 -0.6266  0.3037  0.2421
   97SAPS   H7R 9657   3.352   4.490   7.215 -1.9623  2.2498  3.0471
   97SAPS   H7S 9658   3.440   4.481   7.365  0.3976 -0.2063  0.1138
   97SAPS   C28 9659   3.309   4.304   7.332  0.1602  0.2357  0.0657
   97SAPS   H8R 9660   3.219   4.279   7.275 -0.2543 -0.6356  1.0953
   97SAPS   C29 9661   3.318   4.241   7.450 -0.2225 -0.3438 -0.6152
   97SAPS   H9R 9662   3.246   4.162   7.474 -1.0270  0.9468  1.3409
   97SAPS  C210 9663   3.430   4.268   7.561 -0.8310  0.6749 -0.4924
   97SAPS  H10R 9664   3.374   4.281   7.657  0.0201  3.7771 -0.3455
   97SAPS  H10S 9665   3.466   4.373   7.551 -0.9589  1.1063  2.8307
   97SAPS  C211 9666   3.545   4.172   7.576 -0.3504 -0.4274  0.6910
   97SAPS  H11R 9667   3.562   4.119   7.481 -0.6276  2.4363 -1.0232
   97SAPS  C212 9668   3.616   4.157   7.687 -0.5553 -0.4884  0.1157
   97SAPS  H12R 9669   3.692   4.078   7.695 -0.4075 -0.5157 -1.3720
   97SAPS  C213 9670   3.574   4.233   7.812  0.4221 -0.8635  0.2764
   97SAPS  H13R 9671   3.491   4.176   7.860  0.9619 -1.6500  0.2860
   97SAPS  H13S 9672   3.545   4.338   7.794 -1.6350 -0.9652  2.7008
   97SAPS  C214 9673   3.686   4.250   7.916 -0.1865 -0.1844 -0.2917
   97SAPS  H14R 9674   3.775   4.303   7.880 -0.3343  1.5962  1.8596
   97SAPS  C215 9675   3.683   4.200   8.042  0.3040 -0.5917  0.8244
   97SAPS  H15R 9676   3.752   4.233   8.121 -1.5229 -0.3731  2.3651
   97SAPS  C216 9677   3.580   4.120   8.101  0.0581 -0.1215 -0.2132
   97SAPS  H16R 9678   3.482   4.144   8.055 -1.2428 -1.8049  1.5956
   97SAPS  H16S 9679   3.578   4.138   8.211  0.7615 -0.3457 -0.1605
   97SAPS  C217 9680   3.612   3.973   8.069  0.3585  0.2922  0.5750
   97SAPS  H17R 9681   3.703   3.936   8.120 -0.0576  0.2012  1.2591
   97SAPS  H17S 9682   3.622   3.950   7.961 -1.3622  0.2945  0.3900
   97SAPS  C218 9683   3.507   3.870   8.118  0.5119 -0.0286  0.7028
   97SAPS  H18R 9684   3.541   3.768   8.088 -0.5356 -0.3339  0.5247
   97SAPS  H18S 9685   3.404   3.881   8.078  0.3897  0.3474  1.1216
   97SAPS  C219 9686   3.490   3.859   8.270 -0.0874 -0.3746  0.6429
   97SAPS  H19R 9687   3.443   3.952   8.310  1.0631  0.4334  0.1703
   97SAPS  H19S 9688   3.583   3.863   8.331 -0.1557  0.8101  0.6873
   97SAPS  C220 9689   3.392   3.750   8.319  0.0260 -0.1369 -0.7039
   97SAPS  H20R 9690   3.403   3.657   8.259 -2.7195  0.8808 -2.8953
   97SAPS  H20S 9691   3.288   3.783   8.300  0.0283  0.0008 -0.4726
   97SAPS  H20T 9692   3.404   3.738   8.429  4.9569  2.5341 -0.7759
   97SAPS   C33 9693   2.815   4.454   7.267 -0.7098 -0.0566  0.4910
   97SAPS   H3X 9694   2.803   4.345   7.248  0.5676  0.0461 -0.9476
   97SAPS   H3Y 9695   2.723   4.511   7.241 -2.9978 -3.6435  0.2931
   97SAPS   C34 9696   2.832   4.464   7.421 -0.0995 -0.4469 -0.3095
   97SAPS   H4X 9697   2.735   4.454   7.473  2.0825 -3.0935  3.4750
   97SAPS   H4Y 9698   2.871   4.566   7.441  1.8102 -1.2221  0.0338
   97SAPS   C35 9699   2.929   4.371   7.490  0.5581 -0.4474  0.8626
   97SAPS   H5X 9700   3.026   4.375   7.436 -0.1931 -0.1460 -0.5059
   97SAPS   H5Y 9701   2.890   4.267   7.481 -1.0440  0.0451  1.8688
   97SAPS   C36 9702   2.940   4.404   7.641  0.4498 -0.1692  0.1557
   97SAPS   H6X 9703   2.838   4.425   7.679  0.6234 -0.8951  1.0503
   97SAPS   H6Y 9704   2.992   4.502   7.651 -0.5160  0.3339  0.3093
   97SAPS   C37 9705   3.010   4.291   7.725  0.6335 -0.5085 -0.0024
   97SAPS   H7X 9706   3.110   4.274   7.680  0.7360  0.4795 -0.1546
   97SAPS   H7Y 9707   2.953   4.195   7.721 -2.0401  1.0160  0.5986
   97SAPS   C38 9708   3.035   4.332   7.869  0.0073 -0.1137 -0.3601
   97SAPS   H8X 9709   2.938   4.344   7.923 -1.2883 -2.3420 -2.1054
   97SAPS   H8Y 9710   3.079   4.434   7.863  0.3079 -0.1649  0.7356
   97SAPS   C39 9711   3.137   4.233   7.944 -0.1719 -0.7269 -0.6626
   97SAPS   H9X 9712   3.203   4.190   7.866 -1.0820 -1.0979 -1.2351
   97SAPS   H9Y 9713   3.085   4.148   7.993  0.8479 -0.3290  1.1969
   97SAPS  C310 9714   3.212   4.296   8.060 -0.4546  0.1653 -0.5750
   97SAPS  H10X 9715   3.224   4.404   8.034  1.1248 -0.1783 -1.2578
   97SAPS  H10Y 9716   3.304   4.240   8.086 -1.7328 -1.7699 -0.1616
   97SAPS  C311 9717   3.139   4.291   8.200  0.3521 -0.1452 -0.5435
   97SAPS  H11X 9718   3.108   4.189   8.230 -1.0077 -0.3143 -2.3765
   97SAPS  H11Y 9719   3.045   4.350   8.193 -1.0827 -2.3783 -0.4921
   97SAPS  C312 9720   3.219   4.334   8.327 -0.1410 -0.1566  0.4667
   97SAPS  H12X 9721   3.150   4.320   8.412  1.1264 -1.6131  1.2766
   97SAPS  H12Y 9722   3.227   4.444   8.317 -1.0889 -0.1217  0.0370
   97SAPS  C313 9723   3.357   4.269   8.345  0.0885  0.2175  0.3792
   97SAPS  H13X 9724   3.424   4.306   8.265 -0.0135  3.9465  1.9343
   97SAPS  H13Y 9725   3.341   4.162   8.319 -1.2698  0.0096  1.9339
   97SAPS  C314 9726   3.410   4.287   8.491 -0.1678  0.2030  0.5615
   97SAPS  H14X 9727   3.327   4.246   8.553  1.1059 -0.5261  1.8214
   97SAPS  H14Y 9728   3.425   4.396   8.509 -0.2009  0.6798 -2.1273
   97SAPS  C315 9729   3.542   4.209   8.508  0.3660  0.6388  0.4432
   97SAPS  H15X 9730   3.523   4.106   8.472  1.1501  0.1889  1.3148
   97SAPS  H15Y 9731   3.570   4.196   8.614  2.0283  0.3507 -0.0205
   97SAPS  C316 9732   3.663   4.278   8.443  0.3164  0.1613  0.5426
   97SAPS  H16X 9733   3.702   4.356   8.512  1.7784 -0.7737  0.8063
   97SAPS  H16Y 9734   3.634   4.334   8.352  1.3105  0.4096  0.3725
   97SAPS  C317 9735   3.779   4.187   8.412  0.3956 -0.7465 -0.0281
   97SAPS  H17X 9736   3.845   4.229   8.332  0.6908 -0.6472  0.2665
   97SAPS  H17Y 9737   3.737   4.094   8.368 -0.1387 -0.3177 -0.4308
   97SAPS  C318 9738   3.864   4.150   8.527  0.2705  0.2400  0.3904
   97SAPS  H18X 9739   3.963   4.112   8.492  0.9932  2.0398  0.3829
   97SAPS  H18Y 9740   3.809   4.093   8.604 -0.3172  1.0310  0.5556
   97SAPS  H18Z 9741   3.891   4.239   8.588  0.7441 -0.7735  1.6589
   98SAPS     N 9742   0.781   5.388   6.169  0.4233 -0.5661 -0.1750
   98SAPS   HN1 9743   0.811   5.484   6.194 -0.5061  0.0565 -1.4259
   98SAPS   HN2 9744   0.755   5.330   6.251  0.5528 -1.6608 -0.8897
   98SAPS   HN3 9745   0.863   5.351   6.116 -1.7406 -0.9544 -3.4110
   98SAPS   C12 9746   0.671   5.378   6.071 -0.2814 -0.1904 -0.0695
   98SAPS  H12A 9747   0.591   5.436   6.116 -1.2250 -0.8305 -0.9000
   98SAPS   C13 9748   0.700   5.446   5.936  0.2427  0.5559 -0.3690
   98SAPS  O13A 9749   0.820   5.478   5.898 -0.2337  0.1627  0.1227
   98SAPS  O13B 9750   0.608   5.444   5.852 -0.5622 -1.0590  0.3628
   98SAPS   C11 9751   0.630   5.227   6.054  0.3175  0.0163  1.0230
   98SAPS  H11A 9752   0.719   5.184   6.004  1.0765  2.7114 -0.0260
   98SAPS  H11B 9753   0.545   5.214   5.985 -0.0678 -3.4218  2.0444
   98SAPS     P 9754   0.551   5.015   6.179 -0.2160 -0.0687 -0.2374
   98SAPS   O13 9755   0.484   4.984   6.314  0.4366  0.0872  0.2946
   98SAPS   O14 9756   0.463   4.982   6.070 -0.0594 -0.1686  0.0732
   98SAPS   O12 9757   0.595   5.164   6.175  0.2057 -0.0678  0.9779
   98SAPS   O11 9758   0.687   4.931   6.172  0.6235  0.1606  0.2620
   98SAPS    C1 9759   0.809   4.987   6.216 -0.1774 -0.3335  0.5615
   98SAPS    HA 9760   0.884   4.977   6.135 -0.5022  1.7437 -0.0320
   98SAPS    HB 9761   0.794   5.097   6.224 -0.1879 -0.3898  1.2718
   98SAPS    C2 9762   0.856   4.935   6.345 -0.3324 -0.2419 -0.4442
   98SAPS    HS 9763   0.867   4.825   6.336 -0.7195 -0.4550  1.5933
   98SAPS   O21 9764   0.775   4.983   6.454  0.2512 -0.1837  0.1130
   98SAPS   C21 9765   0.698   4.886   6.498 -0.4306 -0.7123 -0.4477
   98SAPS   O22 9766   0.707   4.767   6.471 -0.3424  0.5173 -0.3453
   98SAPS   C22 9767   0.606   4.941   6.613 -0.1426 -0.2190 -0.2261
   98SAPS   H2R 9768   0.659   4.932   6.710 -3.2123 -2.0912  1.3772
   98SAPS   H2S 9769   0.589   5.048   6.590 -0.3347 -0.1698  0.1496
   98SAPS    C3 9770   1.002   4.980   6.377  0.1010 -0.2757  0.9580
   98SAPS    HX 9771   1.009   5.091   6.373  0.3682 -0.3176  0.0149
   98SAPS    HY 9772   1.072   4.949   6.296  1.1562  2.1000  0.9080
   98SAPS   O31 9773   1.048   4.932   6.505  0.0499 -0.2173  0.2193
   98SAPS   C31 9774   1.081   4.808   6.511 -0.1904 -0.0977 -0.6659
   98SAPS   O32 9775   1.068   4.730   6.418  0.6148  0.1439  1.0131
   98SAPS   C32 9776   1.148   4.776   6.651 -0.9714  0.2713  0.0550
   98SAPS   H2X 9777   1.197   4.869   6.686 -0.0912  0.4592 -1.6166
   98SAPS   H2Y 9778   1.223   4.698   6.622 -2.1061 -1.5815  1.9654
   98SAPS   C23 9779   0.482   4.857   6.627  0.5496 -0.1504 -0.4212
   98SAPS   H3R 9780   0.511   4.750   6.634  0.4360 -0.1668 -0.1998
   98SAPS   H3S 9781   0.414   4.861   6.539 -1.8806 -0.6695  1.3810
   98SAPS   C24 9782   0.411   4.903   6.760 -0.0521  0.4364 -0.4814
   98SAPS   H4R 9783   0.357   4.997   6.737 -1.1082  0.0380  0.3068
   98SAPS   H4S 9784   0.483   4.938   6.838  0.2861 -0.0062 -0.5942
   98SAPS   C25 9785   0.298   4.816   6.812 -0.0901  0.1184 -0.2201
   98SAPS   H5R 9786   0.216   4.785   6.747 -0.4992  0.9708 -0.1161
   98SAPS   C26 9787   0.284   4.766   6.933 -0.4220  0.8409 -0.8549
   98SAPS   H6R 9788   0.207   4.692   6.957  2.6997 -2.4102 -0.4842
   98SAPS   C27 9789   0.370   4.806   7.049  0.5850 -0.5389  0.1185
   98SAPS   H7R 9790   0.301   4.849   7.125 -0.2952  0.9796 -1.4924
   98SAPS   H7S 9791   0.435   4.895   7.032 -1.6227  0.8326 -1.4832
   98SAPS   C28 9792   0.457   4.692   7.099 -0.4000  0.3652  0.5884
   98SAPS   H8R 9793   0.499   4.622   7.026  1.1947  2.8149 -0.8926
   98SAPS   C29 9794   0.492   4.660   7.222 -0.2818 -0.1479  0.3950
   98SAPS   H9R 9795   0.562   4.576   7.230  0.9094  0.8847  1.1852
   98SAPS  C210 9796   0.462   4.731   7.357  0.6406  0.2984  0.2079
   98SAPS  H10R 9797   0.504   4.673   7.442 -1.0012 -0.6741  0.3795
   98SAPS  H10S 9798   0.352   4.723   7.373  0.3805 -0.3526 -1.6943
   98SAPS  C211 9799   0.491   4.879   7.362 -0.4330 -0.1449  0.4492
   98SAPS  H11R 9800   0.506   4.936   7.269  2.6279  3.8002  3.1794
   98SAPS  C212 9801   0.500   4.953   7.474  0.3575 -0.0373 -0.2171
   98SAPS  H12R 9802   0.492   5.062   7.461 -0.2019 -0.0714 -0.1682
   98SAPS  C213 9803   0.471   4.904   7.617  0.1660 -0.1328 -0.2243
   98SAPS  H13R 9804   0.556   4.843   7.653  0.1557 -0.9542 -1.5574
   98SAPS  H13S 9805   0.383   4.836   7.612 -1.0321  1.3921 -0.4230
   98SAPS  C214 9806   0.454   5.006   7.723 -0.1712  0.5406 -0.4201
   98SAPS  H14R 9807   0.451   5.107   7.680  2.6244  0.1194 -1.6805
   98SAPS  C215 9808   0.446   4.984   7.858  0.3052  0.2932  0.0943
   98SAPS  H15R 9809   0.448   5.077   7.917 -1.9056  0.8679 -0.6677
   98SAPS  C216 9810   0.455   4.846   7.921  0.0147 -0.2065  0.3752
   98SAPS  H16R 9811   0.543   4.842   7.989 -0.5900 -1.2052  1.1221
   98SAPS  H16S 9812   0.465   4.765   7.846  1.5374 -1.5801  2.0177
   98SAPS  C217 9813   0.321   4.820   8.004  0.3702  0.6865  0.8926
   98SAPS  H17R 9814   0.300   4.711   8.009  2.4297  0.2107 -0.3087
   98SAPS  H17S 9815   0.243   4.853   7.932 -1.2141 -1.0199  1.7768
   98SAPS  C218 9816   0.325   4.892   8.139 -0.5476  0.0522 -0.2169
   98SAPS  H18R 9817   0.318   5.003   8.129  0.0385  0.0231 -0.9819
   98SAPS  H18S 9818   0.401   4.865   8.216  1.0587 -1.6086 -2.3134
   98SAPS  C219 9819   0.192   4.853   8.210 -0.1599  0.3002  0.2670
   98SAPS  H19R 9820   0.210   4.743   8.221  0.2259  0.2503 -0.8268
   98SAPS  H19S 9821   0.113   4.877   8.137  0.0965 -0.7148 -0.3586
   98SAPS  C220 9822   0.182   4.912   8.352 -0.0847 -0.3987  0.2028
   98SAPS  H20R 9823   0.158   5.020   8.344  2.2075  0.0153 -1.7100
   98SAPS  H20S 9824   0.280   4.901   8.403 -0.3672  2.4107  1.4371
   98SAPS  H20T 9825   0.107   4.850   8.404 -1.1591  0.8848  0.2023
   98SAPS   C33 9826   1.044   4.717   6.739  0.2347 -0.5748  0.1861
   98SAPS   H3X 9827   1.100   4.682   6.828 -1.5083 -1.3984  0.9836
   98SAPS   H3Y 9828   0.993   4.632   6.689 -0.9083  0.3877 -0.3180
   98SAPS   C34 9829   0.940   4.822   6.777  0.0835  0.1545 -0.3636
   98SAPS   H4X 9830   0.871   4.784   6.855  1.1194  0.0860  0.5295
   98SAPS   H4Y 9831   0.880   4.865   6.693 -1.6946 -1.0361  0.2525
   98SAPS   C35 9832   0.999   4.952   6.834  0.2760 -0.5127 -0.3434
   98SAPS   H5X 9833   1.038   5.019   6.755  1.4682 -1.5101 -0.6109
   98SAPS   H5Y 9834   1.079   4.921   6.905  0.2388 -1.6488 -0.7862
   98SAPS   C36 9835   0.905   5.041   6.923 -0.1571 -0.4464  0.6752
   98SAPS   H6X 9836   0.827   5.064   6.847  0.8320  2.2329  0.4347
   98SAPS   H6Y 9837   0.958   5.134   6.950  1.4350 -0.4705 -2.1254
   98SAPS   C37 9838   0.833   4.987   7.046  0.4300  0.1870 -0.4146
   98SAPS   H7X 9839   0.784   4.891   7.021 -0.2630  0.0569  1.4096
   98SAPS   H7Y 9840   0.750   5.057   7.067 -1.6248 -1.5639 -2.4400
   98SAPS   C38 9841   0.922   4.978   7.171 -0.3254 -0.1097 -0.2450
   98SAPS   H8X 9842   0.992   5.064   7.177 -0.1325 -0.3988  2.1574
   98SAPS   H8Y 9843   0.977   4.883   7.157  0.0565  0.3649 -2.1822
   98SAPS   C39 9844   0.846   4.973   7.301 -0.0564 -0.6727 -0.5171
   98SAPS   H9X 9845   0.767   4.895   7.310 -0.8591  0.2051  0.1457
   98SAPS   H9Y 9846   0.789   5.067   7.317  0.8426 -0.2920  0.4677
   98SAPS  C310 9847   0.936   4.946   7.422 -0.2124  0.2043  0.1229
   98SAPS  H10X 9848   1.006   5.032   7.429  0.4912 -0.2790 -0.9659
   98SAPS  H10Y 9849   0.998   4.855   7.410 -1.0458 -0.6916  2.3914
   98SAPS  C311 9850   0.847   4.930   7.548 -0.1238 -0.9402 -0.7773
   98SAPS  H11X 9851   0.796   4.831   7.548 -0.5315 -0.7570  1.4765
   98SAPS  H11Y 9852   0.764   5.005   7.546  0.7018 -0.0498 -2.7227
   98SAPS  C312 9853   0.934   4.952   7.668 -0.0309 -0.1912 -0.3046
   98SAPS  H12X 9854   0.978   5.053   7.678  0.1051 -0.3033  0.2436
   98SAPS  H12Y 9855   1.023   4.887   7.657  0.1373 -0.2511  1.2417
   98SAPS  C313 9856   0.863   4.922   7.806  0.2868 -0.5161  0.6379
   98SAPS  H13X 9857   0.823   4.819   7.806  0.5404 -0.6959 -3.0593
   98SAPS  H13Y 9858   0.779   4.996   7.812  0.0375 -0.6274 -1.0562
   98SAPS  C314 9859   0.941   4.942   7.936 -0.5773  0.8330 -0.3746
   98SAPS  H14X 9860   1.008   5.030   7.923  0.0248  0.2198 -1.5278
   98SAPS  H14Y 9861   0.996   4.848   7.956 -0.9644  0.6547 -0.1449
   98SAPS  C315 9862   0.852   4.962   8.064 -0.0155  0.6000 -0.4551
   98SAPS  H15X 9863   0.791   4.870   8.077 -0.4225  0.5358 -2.6772
   98SAPS  H15Y 9864   0.784   5.047   8.040 -1.2501 -0.0240  0.7654
   98SAPS  C316 9865   0.924   4.998   8.203 -0.1875 -0.1119 -0.0042
   98SAPS  H16X 9866   0.971   4.909   8.250 -1.1126 -2.0337 -2.6290
   98SAPS  H16Y 9867   0.844   5.029   8.275  1.3046  2.8076  0.4652
   98SAPS  C317 9868   1.025   5.122   8.203 -0.0858 -0.0540 -0.0113
   98SAPS  H17X 9869   0.966   5.193   8.140  0.9926  0.8969  0.0434
   98SAPS  H17Y 9870   1.118   5.095   8.150 -0.3180 -3.8949  1.4242
   98SAPS  C318 9871   1.054   5.197   8.345 -0.2327  0.6643  1.1045
   98SAPS  H18X 9872   0.955   5.235   8.379 -0.7453 -0.3994  0.8329
   98SAPS  H18Y 9873   1.125   5.280   8.323  0.9383 -1.0387 -1.7556
   98SAPS  H18Z 9874   1.092   5.125   8.420  0.9566  1.2073  1.0259
   99SAPS     N 9875   0.487   3.252   6.383  0.2610  0.2589 -0.2874
   99SAPS   HN1 9876   0.478   3.356   6.386  0.4455  0.2286  3.6719
   99SAPS   HN2 9877   0.434   3.207   6.460 -0.6398  0.8357 -0.5658
   99SAPS   HN3 9878   0.589   3.231   6.391  0.3371  0.3059 -1.1067
   99SAPS   C12 9879   0.446   3.202   6.246  0.1091 -1.1175 -0.1126
   99SAPS  H12A 9880   0.338   3.203   6.245  0.0945  1.1290  0.9570
   99SAPS   C13 9881   0.501   3.279   6.125  0.4298 -0.2475 -0.0052
   99SAPS  O13A 9882   0.574   3.382   6.139 -0.8081 -0.4508 -0.2224
   99SAPS  O13B 9883   0.482   3.225   6.015 -0.2458 -0.0686 -0.0183
   99SAPS   C11 9884   0.484   3.052   6.236 -0.8456  0.3115  0.1704
   99SAPS  H11A 9885   0.594   3.039   6.243 -0.7166  1.7266  0.9013
   99SAPS  H11B 9886   0.451   3.023   6.134 -1.1230  0.1970  0.2924
   99SAPS     P 9887   0.382   2.828   6.314 -0.1298 -0.2699 -0.3381
   99SAPS   O13 9888   0.240   2.827   6.278  0.1752 -0.6514 -0.1825
   99SAPS   O14 9889   0.486   2.776   6.223  0.0418  0.5963 -0.0382
   99SAPS   O12 9890   0.415   2.978   6.340 -0.8838  0.4697  0.3288
   99SAPS   O11 9891   0.389   2.754   6.459 -0.3118  0.0225 -0.3323
   99SAPS    C1 9892   0.504   2.761   6.544  1.0204 -0.1726  0.2631
   99SAPS    HA 9893   0.601   2.775   6.491  0.1545  3.5418 -0.4581
   99SAPS    HB 9894   0.504   2.852   6.607  2.0678 -0.6252  0.9410
   99SAPS    C2 9895   0.515   2.628   6.630  0.0862  0.7292 -0.0766
   99SAPS    HS 9896   0.532   2.550   6.553  1.4578 -0.0393  0.9971
   99SAPS   O21 9897   0.391   2.614   6.704  0.7213 -0.3583  0.1271
   99SAPS   C21 9898   0.367   2.489   6.754 -0.1069  0.3188 -0.0810
   99SAPS   O22 9899   0.431   2.390   6.712 -0.4662 -0.1328  0.1161
   99SAPS   C22 9900   0.248   2.487   6.857 -0.4885 -0.1726 -0.4650
   99SAPS   H2R 9901   0.294   2.548   6.938 -0.8440 -0.9799  0.3468
   99SAPS   H2S 9902   0.164   2.552   6.823 -0.1540 -0.6942 -2.3299
   99SAPS    C3 9903   0.641   2.630   6.722  0.5065 -0.0940  0.2074
   99SAPS    HX 9904   0.645   2.733   6.764 -1.2345  1.1910 -2.6146
   99SAPS    HY 9905   0.734   2.620   6.663 -0.3402  0.0096 -1.1647
   99SAPS   O31 9906   0.633   2.539   6.833  0.0146  0.0092 -1.0060
   99SAPS   C31 9907   0.704   2.424   6.813  0.3537  0.3176  0.1212
   99SAPS   O32 9908   0.752   2.397   6.703 -0.0700 -0.2654 -0.0096
   99SAPS   C32 9909   0.706   2.334   6.939  0.4647  0.3231 -0.4043
   99SAPS   H2X 9910   0.768   2.389   7.013 -1.1143 -1.5042  2.3522
   99SAPS   H2Y 9911   0.758   2.240   6.910  3.4170  0.6497  3.4082
   99SAPS   C23 9912   0.211   2.334   6.888 -0.1749  0.4823 -0.0804
   99SAPS   H3R 9913   0.306   2.279   6.903  1.2393  2.3946 -1.8902
   99SAPS   H3S 9914   0.153   2.285   6.806 -0.4293 -0.2443  0.5204
   99SAPS   C24 9915   0.136   2.321   7.020 -0.8801 -0.0229  0.2347
   99SAPS   H4R 9916   0.205   2.350   7.102  0.2334 -0.7071 -0.4511
   99SAPS   H4S 9917   0.118   2.215   7.046 -1.0062 -0.7508 -2.7055
   99SAPS   C25 9918   0.007   2.404   7.029  0.5023  0.1406 -0.6216
   99SAPS   H5R 9919   0.013   2.501   6.977  0.3895  0.4601 -0.0420
   99SAPS   C26 9920  -0.107   2.377   7.109 -0.5196 -0.6484 -0.2204
   99SAPS   H6R 9921  -0.183   2.457   7.116  1.6846  1.5058 -0.3200
   99SAPS   C27 9922  -0.120   2.267   7.208 -0.7907 -0.5023 -0.2166
   99SAPS   H7R 9923  -0.103   2.175   7.148  3.2106  0.2189 -0.3472
   99SAPS   H7S 9924  -0.223   2.263   7.250 -0.6639 -2.5436 -0.0486
   99SAPS   C28 9925  -0.033   2.288   7.340 -0.1584 -0.4903 -0.0192
   99SAPS   H8R 9926  -0.040   2.384   7.392  1.2647 -0.3721 -0.0458
   99SAPS   C29 9927   0.052   2.203   7.404 -0.3827 -0.4869 -0.0146
   99SAPS   H9R 9928   0.084   2.235   7.504  1.0895 -0.7673 -0.3959
   99SAPS  C210 9929   0.084   2.063   7.363 -0.4199 -0.1439 -0.1178
   99SAPS  H10R 9930   0.185   2.038   7.403 -0.6964  2.2602  2.1582
   99SAPS  H10S 9931   0.095   2.050   7.253  1.8787 -1.3706  0.2006
   99SAPS  C211 9932  -0.014   1.959   7.398  0.0906 -0.5371 -0.2553
   99SAPS  H11R 9933  -0.098   1.943   7.328 -2.8969  3.4595  2.2134
   99SAPS  C212 9934  -0.003   1.885   7.507  0.4378 -0.3415  0.1827
   99SAPS  H12R 9935  -0.070   1.799   7.524  2.1229 -1.0618  3.4046
   99SAPS  C213 9936   0.098   1.895   7.621 -0.0048 -0.2337 -0.4020
   99SAPS  H13R 9937   0.155   1.990   7.608  1.7397 -0.9083  2.0389
   99SAPS  H13S 9938   0.174   1.815   7.614  0.5950  0.2421  0.5597
   99SAPS  C214 9939   0.014   1.899   7.741 -0.1418  0.8691 -0.1738
   99SAPS  H14R 9940  -0.070   1.971   7.737  0.9198  2.2241  1.1040
   99SAPS  C215 9941   0.050   1.841   7.854  0.2754  0.2466 -0.1141
   99SAPS  H15R 9942  -0.009   1.866   7.943  1.6514  1.2308  0.5499
   99SAPS  C216 9943   0.180   1.765   7.869 -0.1252 -0.1778 -0.1386
   99SAPS  H16R 9944   0.263   1.827   7.830 -0.2554  1.6637  2.3366
   99SAPS  H16S 9945   0.177   1.663   7.825 -0.6181 -0.8827  1.4715
   99SAPS  C217 9946   0.202   1.755   8.022 -1.0364 -0.8283  0.0364
   99SAPS  H17R 9947   0.113   1.707   8.068 -0.3088 -1.4364  0.8315
   99SAPS  H17S 9948   0.198   1.848   8.082 -0.2163 -0.0004 -1.1775
   99SAPS  C218 9949   0.321   1.662   8.058 -0.3331 -0.0019  0.3258
   99SAPS  H18R 9950   0.417   1.705   8.022  0.2949 -0.7043  1.1509
   99SAPS  H18S 9951   0.303   1.560   8.018 -0.0294 -0.0173  0.2261
   99SAPS  C219 9952   0.334   1.645   8.210 -0.0333  0.6039  0.0820
   99SAPS  H19R 9953   0.233   1.612   8.243 -0.8079  2.3862 -0.4100
   99SAPS  H19S 9954   0.331   1.747   8.255 -4.1603 -0.4459  2.4946
   99SAPS  C220 9955   0.447   1.555   8.255 -0.3336 -0.6834  0.4425
   99SAPS  H20R 9956   0.545   1.586   8.213 -0.9536  1.3517  0.4304
   99SAPS  H20S 9957   0.422   1.453   8.220 -1.0695 -0.3142 -0.1226
   99SAPS  H20T 9958   0.463   1.549   8.365  3.3136 -1.7339 -0.1027
   99SAPS   C33 9959   0.574   2.320   7.027 -0.6299  0.1754 -0.4271
   99SAPS   H3X 9960   0.509   2.258   6.962 -0.7708 -0.9956  0.8022
   99SAPS   H3Y 9961   0.542   2.425   7.046  1.9526  0.7729  0.8833
   99SAPS   C34 9962   0.611   2.247   7.161 -0.3119 -0.2393  0.8883
   99SAPS   H4X 9963   0.681   2.301   7.228  1.2043 -2.1484  0.9039
   99SAPS   H4Y 9964   0.661   2.154   7.124 -2.0120 -1.0703  0.6560
   99SAPS   C35 9965   0.494   2.198   7.245  0.6327 -0.1314  0.3584
   99SAPS   H5X 9966   0.528   2.111   7.303 -3.2514 -1.2857  1.0687
   99SAPS   H5Y 9967   0.427   2.148   7.172  1.6171  0.1603 -0.7608
   99SAPS   C36 9968   0.418   2.288   7.351 -0.7189  0.4823 -0.3720
   99SAPS   H6X 9969   0.340   2.234   7.408 -1.3194  0.7307 -0.9589
   99SAPS   H6Y 9970   0.370   2.376   7.304  0.7588  0.6635 -1.5751
   99SAPS   C37 9971   0.511   2.343   7.461  0.5647  0.6709 -0.1504
   99SAPS   H7X 9972   0.567   2.418   7.402  1.7071  1.1639  1.5356
   99SAPS   H7Y 9973   0.582   2.264   7.496  0.1838  0.6270  0.5317
   99SAPS   C38 9974   0.434   2.406   7.577  0.0767 -0.2697 -0.2995
   99SAPS   H8X 9975   0.371   2.490   7.539 -0.9183  0.4679  2.8655
   99SAPS   H8Y 9976   0.512   2.447   7.644 -0.8241  0.3870  0.3628
   99SAPS   C39 9977   0.363   2.307   7.667 -0.3169  0.1773  0.4138
   99SAPS   H9X 9978   0.442   2.251   7.721  1.5469  1.8769 -0.4946
   99SAPS   H9Y 9979   0.301   2.239   7.605  0.7137 -0.3306 -0.0701
   99SAPS  C310 9980   0.270   2.374   7.769  0.6270 -0.1771  0.5106
   99SAPS  H10X 9981   0.169   2.329   7.763  0.7463 -0.3148 -0.4371
   99SAPS  H10Y 9982   0.240   2.477   7.740 -1.0497 -1.5500 -2.8995
   99SAPS  C311 9983   0.323   2.393   7.913  0.0584  0.4923 -0.0097
   99SAPS  H11X 9984   0.423   2.441   7.907 -0.5219  1.5916 -1.2085
   99SAPS  H11Y 9985   0.336   2.295   7.963 -2.8965  0.1374  0.1786
   99SAPS  C312 9986   0.220   2.476   7.994  0.1646 -0.1083 -0.4383
   99SAPS  H12X 9987   0.125   2.420   8.010  0.1228  0.1107  0.0974
   99SAPS  H12Y 9988   0.208   2.565   7.930  0.5949  0.5022  0.3239
   99SAPS  C313 9989   0.282   2.511   8.135 -0.1507  0.3861  0.7798
   99SAPS  H13X 9990   0.377   2.569   8.135  1.3716 -2.0630  1.4193
   99SAPS  H13Y 9991   0.305   2.410   8.174 -0.0818  0.3429  0.6281
   99SAPS  C314 9992   0.177   2.573   8.227  0.9406 -0.6354 -0.4636
   99SAPS  H14X 9993   0.085   2.511   8.226 -0.7790  1.7886  1.1092
   99SAPS  H14Y 9994   0.142   2.672   8.192 -0.5713 -2.5169 -4.5708
   99SAPS  C315 9995   0.220   2.598   8.368  0.3369  0.2941 -0.3790
   99SAPS  H15X 9996   0.256   2.501   8.409 -1.1916 -0.1116  0.0466
   99SAPS  H15Y 9997   0.127   2.608   8.427  1.1385 -2.6124  1.5111
   99SAPS  C316 9998   0.320   2.707   8.388 -0.8747 -0.4280 -0.3590
   99SAPS  H16X 9999   0.266   2.791   8.340 -1.9369 -0.8346  0.0961
   99SAPS  H16Y10000   0.412   2.679   8.334  1.4836 -0.1771  3.3450
   99SAPS  C31710001   0.357   2.749   8.536  0.2450 -0.1284 -0.2994
   99SAPS  H17X10002   0.395   2.664   8.596 -0.5695 -0.0182  0.3782
   99SAPS  H17Y10003   0.256   2.775   8.575 -0.3492 -0.0538 -1.8387
   99SAPS  C31810004   0.450   2.868   8.538  0.2881  0.5985 -0.2875
   99SAPS  H18X10005   0.429   2.946   8.463 -1.8554 -0.7161 -1.0816
   99SAPS  H18Y10006   0.552   2.823   8.531 -0.6093 -1.4980 -0.1582
   99SAPS  H18Z10007   0.435   2.926   8.632 -2.2770  0.3882 -0.5510
  100SAPS     N10008   3.605   3.860   6.110 -0.2254  0.1646  0.1442
  100SAPS   HN110009   3.659   3.832   6.194  2.9282  0.0269 -1.8405
  100SAPS   HN210010   3.511   3.884   6.149 -0.2558  1.0925 -0.4707
  100SAPS   HN310011   3.582   3.782   6.045 -2.1070 -0.2756  1.3003
  100SAPS   C1210012   3.666   3.975   6.033  0.2683  0.0742  0.5775
  100SAPS  H12A10013   3.750   3.932   5.982  1.9992  3.7656  0.1501
  100SAPS   C1310014   3.574   4.023   5.915  0.1509 -0.6959 -0.2838
  100SAPS  O13A10015   3.480   3.950   5.873  0.2788  0.0589 -0.8225
  100SAPS  O13B10016   3.624   4.113   5.844  0.0694  0.4987  0.4119
  100SAPS   C1110017   3.709   4.081   6.134 -0.0895  0.4857  0.1042
  100SAPS  H11A10018   3.746   4.172   6.083  0.7738  0.4789  0.7144
  100SAPS  H11B10019   3.791   4.042   6.198 -1.0356 -1.0418  0.4099
  100SAPS     P10020   3.617   4.190   6.351  0.2624 -0.0894  0.0036
  100SAPS   O1310021   3.728   4.131   6.422  0.5144 -0.2373 -0.4999
  100SAPS   O1410022   3.622   4.335   6.329 -0.7597 -0.3033  0.6066
  100SAPS   O1210023   3.597   4.109   6.218  0.1992 -0.3371  0.0718
  100SAPS   O1110024   3.479   4.163   6.424 -0.4401  0.1495 -0.0907
  100SAPS    C110025   3.460   4.036   6.498 -0.5608 -0.2566  0.3663
  100SAPS    HA10026   3.364   3.988   6.468 -1.1040  1.4711 -0.7060
  100SAPS    HB10027   3.539   3.963   6.468  0.5853  0.8486  0.6534
  100SAPS    C210028   3.457   4.048   6.654 -0.3907 -0.0903 -0.0284
  100SAPS    HS10029   3.434   3.945   6.688  0.6892 -0.9433 -1.7598
  100SAPS   O2110030   3.365   4.146   6.703 -0.0193 -0.0123  0.1666
  100SAPS   C2110031   3.238   4.127   6.665  0.3789  0.1954  0.3861
  100SAPS   O2210032   3.193   4.030   6.609 -0.2970 -0.2308 -0.4559
  100SAPS   C2210033   3.150   4.245   6.709 -0.5099 -0.4935  0.0428
  100SAPS   H2R10034   3.175   4.263   6.816 -0.5548 -0.0696 -0.0151
  100SAPS   H2S10035   3.188   4.330   6.647  1.3502 -0.3136  1.3904
  100SAPS    C310036   3.602   4.092   6.708  0.1775  0.0781 -0.1442
  100SAPS    HX10037   3.624   4.195   6.675 -0.6130 -0.8018 -3.5280
  100SAPS    HY10038   3.673   4.031   6.647  1.5040  0.5855  0.8625
  100SAPS   O3110039   3.613   4.078   6.855 -0.4533 -0.1041  0.2442
  100SAPS   C3110040   3.739   4.048   6.889  0.1366  0.1912  0.6315
  100SAPS   O3210041   3.835   4.068   6.817  0.1598  0.4212 -0.3168
  100SAPS   C3210042   3.752   4.015   7.037  0.1840 -0.3669  0.1623
  100SAPS   H2X10043   3.700   3.920   7.062 -0.7079  0.7441  2.7601
  100SAPS   H2Y10044   3.720   4.099   7.103  0.6973  0.8362 -1.0852
  100SAPS   C2310045   3.002   4.222   6.685 -0.7357  0.0542  0.6513
  100SAPS   H3R10046   2.989   4.162   6.592  1.6254 -1.1617  1.0816
  100SAPS   H3S10047   2.954   4.321   6.665 -0.1289 -0.0282 -1.3198
  100SAPS   C2410048   2.929   4.164   6.807 -0.5752 -0.2116 -0.0169
  100SAPS   H4R10049   2.830   4.132   6.769  0.5515 -2.1048 -1.3983
  100SAPS   H4S10050   2.917   4.235   6.892 -0.6585 -1.5039  1.0720
  100SAPS   C2510051   2.994   4.038   6.855  0.5399 -0.1772  0.3236
  100SAPS   H5R10052   2.991   3.969   6.768 -0.4591  1.3513 -0.8847
  100SAPS   C2610053   3.050   4.012   6.971  0.2554 -0.5822  0.6882
  100SAPS   H6R10054   3.093   3.913   6.992  0.6417 -0.4202  0.6561
  100SAPS   C2710055   3.053   4.119   7.084  0.0172  0.2738 -0.1756
  100SAPS   H7R10056   3.057   4.222   7.041 -2.3858 -0.0448 -1.2352
  100SAPS   H7S10057   3.150   4.107   7.137  0.7991 -0.7916 -1.8072
  100SAPS   C2810058   2.933   4.107   7.176 -0.0767  0.5026  0.2857
  100SAPS   H8R10059   2.830   4.129   7.142 -0.5581  1.8394  2.5459
  100SAPS   C2910060   2.937   4.053   7.298 -0.7310  0.0613  0.5292
  100SAPS   H9R10061   2.835   4.042   7.339 -0.7578 -0.5550  0.2986
  100SAPS  C21010062   3.054   4.006   7.384 -0.7070 -0.8505 -0.3257
  100SAPS  H10R10063   3.064   4.070   7.475 -2.8548  0.3280 -0.8731
  100SAPS  H10S10064   3.153   4.029   7.340 -0.8033 -0.0664 -0.1431
  100SAPS  C21110065   3.054   3.863   7.418  0.4604 -0.4990 -0.5134
  100SAPS  H11R10066   3.031   3.793   7.336  2.2090 -0.2605 -1.2304
  100SAPS  C21210067   3.076   3.814   7.538 -0.6069  0.0858  0.0520
  100SAPS  H12R10068   3.066   3.705   7.549 -1.1591  0.1353  0.0442
  100SAPS  C21310069   3.112   3.877   7.668  0.2727 -0.1961 -0.5218
  100SAPS  H13R10070   3.031   3.947   7.698  1.9328  2.8811 -2.9359
  100SAPS  H13S10071   3.197   3.946   7.649 -0.8950  1.3473 -0.2304
  100SAPS  C21410072   3.158   3.784   7.777 -0.0810  0.1398  0.3642
  100SAPS  H14R10073   3.238   3.712   7.751  0.2616  1.0658 -1.1916
  100SAPS  C21510074   3.116   3.782   7.905  0.0076  0.0150  0.4575
  100SAPS  H15R10075   3.162   3.699   7.960 -1.3585 -2.6321 -2.2582
  100SAPS  C21610076   3.022   3.871   7.988 -0.1552  0.2952  0.0968
  100SAPS  H16R10077   2.966   3.935   7.916 -0.2567 -0.4392 -0.4951
  100SAPS  H16S10078   3.085   3.941   8.046  2.2996 -1.2364 -0.6438
  100SAPS  C21710079   2.920   3.801   8.081  0.1193  0.7023 -0.3620
  100SAPS  H17R10080   2.865   3.743   8.004 -1.5911  0.1929  1.2090
  100SAPS  H17S10081   2.866   3.889   8.124  1.5138  0.1669  2.5979
  100SAPS  C21810082   2.977   3.710   8.189 -0.5912  1.2425  0.3162
  100SAPS  H18R10083   3.034   3.762   8.269  0.0836  1.4997 -0.3245
  100SAPS  H18S10084   3.050   3.645   8.135 -3.5170 -0.8625 -1.2531
  100SAPS  C21910085   2.867   3.620   8.253 -0.1758 -0.6225 -0.5893
  100SAPS  H19R10086   2.803   3.566   8.181 -0.6537 -1.6629  0.5854
  100SAPS  H19S10087   2.796   3.689   8.304  1.7776  0.1081  1.2160
  100SAPS  C22010088   2.908   3.526   8.367  0.2572 -0.1674  0.3538
  100SAPS  H20R10089   2.827   3.459   8.404  0.8205 -0.7254  0.5888
  100SAPS  H20S10090   2.948   3.580   8.456  3.0790  0.9385 -1.5000
  100SAPS  H20T10091   2.989   3.457   8.334  1.0527  1.0410 -0.2635
  100SAPS   C3310092   3.895   3.988   7.088 -0.0023 -0.4171  0.2783
  100SAPS   H3X10093   3.962   4.069   7.053  0.8342 -1.8414 -1.5101
  100SAPS   H3Y10094   3.930   3.891   7.045 -1.3720 -0.9995  0.4444
  100SAPS   C3410095   3.924   3.995   7.242  0.0390  0.2147  0.1066
  100SAPS   H4X10096   4.034   3.988   7.255 -0.1088 -0.6206  0.9873
  100SAPS   H4Y10097   3.866   3.915   7.294 -0.7395  0.9555  0.3868
  100SAPS   C3510098   3.904   4.140   7.303  0.1654  0.3968  0.4116
  100SAPS   H5X10099   3.802   4.172   7.274  0.8613  2.2898 -0.0538
  100SAPS   H5Y10100   3.977   4.212   7.261  0.6005 -0.8946 -1.0930
  100SAPS   C3610101   3.911   4.152   7.453  0.5178  0.0362 -0.1567
  100SAPS   H6X10102   3.821   4.107   7.501 -0.1583  0.3325 -1.1137
  100SAPS   H6Y10103   3.919   4.256   7.490  0.5038 -0.5433  1.5152
  100SAPS   C3710104   4.039   4.079   7.506 -0.0340  0.1774 -0.3475
  100SAPS   H7X10105   4.121   4.121   7.445  1.7715 -1.5174  0.8705
  100SAPS   H7Y10106   4.026   3.970   7.495  2.4124 -0.1063 -0.6450
  100SAPS   C3810107   4.074   4.123   7.658 -0.0485  1.1362  0.3362
  100SAPS   H8X10108   4.126   4.221   7.652  2.0294 -0.0467 -1.4373
  100SAPS   H8Y10109   4.148   4.050   7.697  0.4728  0.8379 -1.1780
  100SAPS   C3910110   3.961   4.120   7.757  0.3213 -0.4284  0.1905
  100SAPS   H9X10111   3.901   4.033   7.724 -0.6734 -0.4518  2.0128
  100SAPS   H9Y10112   3.904   4.216   7.753  0.5344 -0.3157 -0.2105
  100SAPS  C31010113   4.017   4.089   7.896 -0.1050 -0.1604  0.2013
  100SAPS  H10X10114   4.071   3.992   7.884  0.0369 -0.0897  0.2725
  100SAPS  H10Y10115   3.937   4.079   7.973  1.4038 -0.7751  1.7309
  100SAPS  C31110116   4.122   4.189   7.952 -0.1675 -0.0362 -0.0308
  100SAPS  H11X10117   4.193   4.238   7.882 -0.6357  0.9316  0.1696
  100SAPS  H11Y10118   4.191   4.136   8.021 -0.1995  0.7223  0.5895
  100SAPS  C31210119   4.057   4.305   8.016 -0.2286  1.0305  0.6850
  100SAPS  H12X10120   3.996   4.274   8.103  1.7073 -0.4863  1.5480
  100SAPS  H12Y10121   3.993   4.353   7.939  0.2055  1.4035  0.5520
  100SAPS  C31310122   4.151   4.411   8.077 -1.0357 -0.2294  0.3294
  100SAPS  H13X10123   4.185   4.497   8.014 -1.4181  1.5400  2.4666
  100SAPS  H13Y10124   4.243   4.352   8.094  0.5988  1.9451 -0.7892
  100SAPS  C31410125   4.086   4.466   8.209  0.2778 -0.2207  0.4580
  100SAPS  H14X10126   4.087   4.378   8.277  1.1446 -2.2300 -2.0485
  100SAPS  H14Y10127   3.985   4.500   8.178  1.0201  1.0691 -0.6015
  100SAPS  C31510128   4.145   4.589   8.273 -0.0876  0.1135  0.3478
  100SAPS  H15X10129   4.132   4.672   8.199  1.9004  0.5931  0.4968
  100SAPS  H15Y10130   4.246   4.578   8.317 -0.5961 -0.1152  1.4591
  100SAPS  C31610131   4.059   4.628   8.391 -0.6096  0.3203 -0.1649
  100SAPS  H16X10132   4.057   4.553   8.473  1.2793  0.7110  0.2701
  100SAPS  H16Y10133   3.956   4.637   8.350 -0.0161 -0.1268 -1.8059
  100SAPS  C31710134   4.098   4.762   8.463  0.3387 -0.2016 -0.1542
  100SAPS  H17X10135   4.103   4.841   8.384  1.3911 -0.2321 -0.1308
  100SAPS  H17Y10136   4.199   4.757   8.510 -0.5086  2.7784  2.1738
  100SAPS  C31810137   3.992   4.809   8.572  0.0776  0.8800 -0.2333
  100SAPS  H18X10138   3.890   4.791   8.531 -1.3158  0.3801  3.3091
  100SAPS  H18Y10139   4.004   4.915   8.603  0.0885  1.0059 -0.6645
  100SAPS  H18Z10140   4.001   4.745   8.662  0.5476 -0.7924 -1.4532
  101OSM      N10141   2.884   3.709  11.009 -0.2137  0.3732  0.5529
  101OSM    C1510142   2.809   3.675  11.135 -0.1835  0.7687 -1.0684
  101OSM   H15A10143   2.749   3.586  11.122  0.6517 -0.2919  1.7527
  101OSM   H15B10144   2.738   3.748  11.171 -1.2476 -0.5642 -0.4141
  101OSM   H15C10145   2.875   3.647  11.217 -0.3921  2.8115 -0.1879
  101OSM    C1410146   2.986   3.805  11.052 -0.5387 -0.0813  0.1919
  101OSM   H14A10147   3.052   3.828  10.970 -0.0067 -2.0252  0.0411
  101OSM   H14B10148   3.031   3.764  11.141  3.8332  2.3264 -0.7992
  101OSM   H14C10149   2.929   3.893  11.079  0.9150  0.3843  1.8280
  101OSM    C1310150   2.953   3.592  10.958  0.3816 -0.1354  0.5041
  101OSM   H13A10151   3.029   3.605  10.883 -0.3348  1.4311  0.0201
  101OSM   H13B10152   2.888   3.509  10.939  1.4763 -0.9610  0.3204
  101OSM   H13C10153   3.002   3.540  11.039  0.6090 -2.1238 -0.8824
  101OSM    C1210154   2.804   3.763  10.899 -1.0596  1.0121  0.9893
  101OSM   H12A10155   2.736   3.689  10.859  0.7347 -0.9503  1.4840
  101OSM   H12B10156   2.863   3.777  10.809 -0.1886 -1.0318  1.2082
  101OSM    C1110157   2.722   3.895  10.929 -0.0779  0.7079 -0.1966
  101OSM   H11A10158   2.666   3.882  11.024 -0.4910 -0.4403 -0.5842
  101OSM   H11B10159   2.651   3.922  10.848  0.3903  0.8938 -0.5471
  101OSM      P10160   2.881   4.049  10.811 -0.1024  0.1078 -0.0756
  101OSM    O1310161   2.851   4.191  10.791  0.2736 -0.3542 -0.2217
  101OSM    O1410162   3.021   4.014  10.836 -0.3922  0.4692 -0.8158
  101OSM    O1110163   2.822   3.966  10.682 -0.0194 -0.4841  0.4111
  101OSM    O1210164   2.812   4.003  10.939  0.0627  0.1121  0.6721
  101OSM    C1S10165   2.708   4.010  10.606 -0.3264 -0.1990 -0.1825
  101OSM    H1S10166   2.655   4.092  10.658 -0.8245 -0.6113 -0.0296
  101OSM    H1T10167   2.635   3.926  10.600 -0.4350 -0.0630 -0.8298
  101OSM     NF10168   2.626   4.101  10.397  0.1054 -0.1938 -0.7025
  101OSM    HNF10169   2.581   4.036  10.336  0.3068 -1.2762  0.2834
  101OSM    C2S10170   2.745   4.046  10.462  0.4020  0.1644  0.1744
  101OSM    H2S10171   2.818   4.124  10.490 -1.0388  1.1577  1.2291
  101OSM    C3S10172   2.818   3.929  10.389 -0.3037  0.1950 -0.8965
  101OSM    H3S10173   2.744   3.846  10.388 -1.4481  1.1843  0.1041
  101OSM     O310174   2.940   3.887  10.446 -0.5960 -0.2175  0.1194
  101OSM    HO310175   2.951   3.935  10.529 -1.4052 -0.8065  0.5740
  101OSM    C4S10176   2.847   3.971  10.250  0.3920  0.5316  0.3485
  101OSM    H4S10177   2.795   3.911  10.174  1.5918  0.5836 -0.5343
  101OSM    C5S10178   2.937   4.057  10.195 -0.0272 -0.1323  0.2243
  101OSM    H5S10179   3.006   4.108  10.264  0.7588 -2.7813  1.4514
  101OSM    C6S10180   2.953   4.082  10.047  0.2807  0.1890 -0.8184
  101OSM    H6S10181   2.904   4.005   9.984 -1.3608 -0.7931  1.5811
  101OSM    H6T10182   3.063   4.080  10.032  0.1675  2.2760 -2.1674
  101OSM    C7S10183   2.890   4.215  10.008 -0.9216  0.1927  0.6542
  101OSM    H7S10184   2.949   4.291  10.063  0.4336 -0.2736 -0.1269
  101OSM    H7T10185   2.788   4.216  10.051 -0.0717 -1.9111  2.8136
  101OSM    C8S10186   2.882   4.249   9.854 -0.0465  0.0412  0.2009
  101OSM    H8S10187   2.840   4.351   9.846  1.7409  0.8880  1.1857
  101OSM    H8T10188   2.815   4.170   9.814 -3.6292  1.3819  3.2636
  101OSM    C9S10189   3.023   4.227   9.793  0.0908  0.3330 -0.3457
  101OSM    H9S10190   3.061   4.125   9.816 -0.6925 -0.0039 -0.5286
  101OSM    H9T10191   3.087   4.308   9.833  0.9678 -0.2292 -0.5948
  101OSM   C10S10192   3.020   4.246   9.637  0.7882  0.2171  0.0895
  101OSM   H10S10193   2.963   4.336   9.605 -0.0975  0.4779  2.3366
  101OSM   H10T10194   2.972   4.152   9.602  2.8184 -0.4574 -0.9952
  101OSM   C11S10195   3.160   4.249   9.586  0.0313 -0.1222  0.1218
  101OSM   H11S10196   3.218   4.175   9.645  2.7739 -0.7878 -3.3064
  101OSM   H11T10197   3.205   4.349   9.605  1.3587 -0.4420 -1.2544
  101OSM   C12S10198   3.180   4.213   9.437 -0.2455  0.1069 -0.7079
  101OSM   H12S10199   3.143   4.108   9.436 -0.5193  0.2143 -1.9841
  101OSM   H12T10200   3.289   4.210   9.418  0.4018  0.9369  2.5231
  101OSM   C13S10201   3.107   4.295   9.331 -0.1102 -0.5699  0.1273
  101OSM   H13S10202   3.157   4.391   9.307  1.1360 -0.9638  1.0789
  101OSM   H13T10203   3.011   4.333   9.372  1.7854  2.5400  1.8217
  101OSM   C14S10204   3.090   4.229   9.193  0.0374 -0.1170  0.3554
  101OSM   H14S10205   3.046   4.298   9.117  0.6325  0.1855  0.2893
  101OSM   H14T10206   3.007   4.155   9.191 -0.2651  0.1260  2.6592
  101OSM   C15S10207   3.222   4.182   9.131  0.4966  0.4442  0.5402
  101OSM   H15S10208   3.209   4.117   9.042  1.3903  0.9571  0.0309
  101OSM   H15T10209   3.268   4.115   9.206  1.9703  0.2622 -0.5205
  101OSM   C16S10210   3.312   4.300   9.093  0.4635  0.2764 -0.3130
  101OSM   H16S10211   3.416   4.262   9.088  0.1906 -0.6227  0.9109
  101OSM   H16T10212   3.333   4.367   9.179  2.0060 -2.9120  1.8769
  101OSM   C17S10213   3.272   4.380   8.971 -0.3333 -0.2649  0.1928
  101OSM   H17S10214   3.338   4.470   8.972 -0.0999 -0.4355 -0.2463
  101OSM   H17T10215   3.171   4.420   8.998 -0.3787 -0.2230 -0.0445
  101OSM   C18S10216   3.278   4.298   8.845 -0.5122 -0.2003  1.4143
  101OSM   H18S10217   3.218   4.205   8.846 -0.1796 -0.4105  2.2907
  101OSM   H18T10218   3.379   4.255   8.827 -0.4535  0.1751  0.8373
  101OSM   H18U10219   3.242   4.368   8.766 -0.7578 -1.7606  0.1270
  101OSM    C1F10220   2.558   4.214  10.423  0.6630 -0.2624 -0.2232
  101OSM     OF10221   2.599   4.294  10.501  0.7119 -0.8949  0.3140
  101OSM    C2F10222   2.429   4.232  10.355 -0.5102  0.4555 -0.6746
  101OSM    H2F10223   2.364   4.296  10.419 -0.1915  2.2323 -2.0910
  101OSM    H2G10224   2.375   4.137  10.336  0.9713 -1.0589  2.2897
  101OSM    C3F10225   2.453   4.289  10.209 -0.0290  0.1857 -0.0003
  101OSM    H3F10226   2.549   4.343  10.194  0.2213 -1.0689 -3.2968
  101OSM    H3G10227   2.375   4.365  10.187  1.7551  2.0431 -0.0632
  101OSM    C4F10228   2.445   4.184  10.104 -0.4654  0.7074 -0.8758
  101OSM    H4F10229   2.339   4.155  10.090 -1.3534  3.2465  0.3264
  101OSM    H4G10230   2.514   4.098  10.117  0.4110  1.6659  1.0057
  101OSM    C5F10231   2.487   4.248   9.965 -0.2130 -0.4222 -0.1854
  101OSM    H5F10232   2.575   4.316   9.973 -2.0557  2.0100  0.1752
  101OSM    H5G10233   2.402   4.315   9.938  1.0220  0.3620 -2.2787
  101OSM    C6F10234   2.493   4.150   9.848 -0.3626  0.1264  0.5109
  101OSM    H6F10235   2.399   4.091   9.850 -2.0965  2.8216  0.0546
  101OSM    H6G10236   2.594   4.103   9.850  0.3786  1.4222 -3.0397
  101OSM    C7F10237   2.485   4.215   9.704 -0.5706  0.3450 -0.6945
  101OSM    H7F10238   2.510   4.323   9.716  1.0156  0.0965 -1.6140
  101OSM    H7G10239   2.385   4.200   9.659 -0.5003  1.2772 -1.1561
  101OSM    C8F10240   2.588   4.156   9.603  0.1288 -0.3646 -0.4859
  101OSM    H8F10241   2.557   4.062   9.554  0.6583 -1.1516  0.6509
  101OSM    H8G10242   2.676   4.116   9.659 -1.0673 -1.0292  0.9570
  101OSM    C9F10243   2.639   4.255   9.502  0.4297  0.3460  0.0126
  101OSM    H9F10244   2.720   4.315   9.546 -0.6193  1.4210  0.5001
  101OSM   C10F10245   2.606   4.274   9.374 -0.8743  0.4679 -0.4662
  101OSM   H10F10246   2.652   4.361   9.325 -1.0767 -0.1257 -1.7367
  101OSM   C11F10247   2.504   4.195   9.292 -0.2490 -0.0767 -0.0676
  101OSM   H11F10248   2.407   4.247   9.274  1.1861  2.0599 -1.8395
  101OSM   H11G10249   2.480   4.093   9.329  2.2052 -1.4726 -2.2152
  101OSM   C12F10250   2.557   4.167   9.155 -0.4186 -0.4747  0.4394
  101OSM   H12F10251   2.485   4.092   9.117  0.4859 -2.0603  1.8142
  101OSM   H12G10252   2.662   4.131   9.156 -1.2516 -3.0116 -0.7348
  101OSM   C13F10253   2.559   4.277   9.055 -0.0924  0.3696  0.2479
  101OSM   H13F10254   2.589   4.367   9.113  1.6132 -0.2293  0.3045
  101OSM   H13G10255   2.463   4.312   9.011 -0.1702 -0.2306 -0.0689
  101OSM   C14F10256   2.645   4.256   8.922 -0.5423  0.5082 -0.0508
  101OSM   H14F10257   2.645   4.355   8.872  0.7912  1.6667  2.1809
  101OSM   H14G10258   2.601   4.176   8.858  1.2317 -1.4987  1.1615
  101OSM   C15F10259   2.793   4.226   8.940 -0.1055 -0.8386  1.0655
  101OSM   H15F10260   2.813   4.137   9.002  0.9392 -0.8368  0.7315
  101OSM   H15G10261   2.834   4.314   8.994 -1.0101  0.9842 -1.1316
  101OSM   C16F10262   2.853   4.223   8.800 -0.3693  0.5559 -0.2405
  101OSM   H16F10263   2.780   4.186   8.725  0.6385 -1.6929 -0.1487
  101OSM   H16G10264   2.938   4.153   8.789  0.4876  1.8637 -2.1920
  101OSM   C17F10265   2.888   4.357   8.741  0.3221  0.4413  0.1205
  101OSM   H17F10266   2.990   4.390   8.772  1.7657 -1.3057 -2.5101
  101OSM   H17G10267   2.819   4.434   8.781  1.1435 -0.1894  2.9201
  101OSM   C18F10268   2.891   4.354   8.585 -0.4712 -1.1768 -0.3742
  101OSM   H18F10269   2.918   4.454   8.544  1.0006 -2.0072 -1.4727
  101OSM   H18G10270   2.794   4.326   8.536  0.9207 -1.5100 -3.0559
  101OSM   H18H10271   2.970   4.283   8.555  0.5189  0.9814 -3.1421
  102OSM      N10272   2.050   3.349  10.849  0.0494 -0.0424 -0.6257
  102OSM    C1510273   2.130   3.313  10.973  0.6406 -0.7413  0.4596
  102OSM   H15A10274   2.072   3.244  11.033  0.6265 -3.1256 -2.2243
  102OSM   H15B10275   2.153   3.401  11.032 -0.9614 -1.4010  2.1137
  102OSM   H15C10276   2.227   3.270  10.953  1.5518  1.6533 -0.4069
  102OSM    C1410277   2.028   3.224  10.766 -0.0081 -0.2328  0.5095
  102OSM   H14A10278   1.982   3.150  10.829 -1.2072 -1.4345 -1.7418
  102OSM   H14B10279   2.121   3.180  10.734  0.0343 -1.3559  2.1132
  102OSM   H14C10280   1.969   3.242  10.677  2.2458 -1.0135 -1.1714
  102OSM    C1310281   1.915   3.388  10.900 -0.0163 -0.1239 -0.3686
  102OSM   H13A10282   1.922   3.445  10.992 -1.0177 -2.0939  0.9663
  102OSM   H13B10283   1.847   3.305  10.915  0.2614  0.1165  2.6854
  102OSM   H13C10284   1.859   3.449  10.832 -1.2478  0.7244  1.3613
  102OSM    C1210285   2.142   3.445  10.783 -0.4995 -0.1956  0.3846
  102OSM   H12A10286   2.239   3.400  10.764 -0.0415  0.7766  0.3596
  102OSM   H12B10287   2.146   3.524  10.856 -1.6358 -0.5636  0.8515
  102OSM    C1110288   2.108   3.509  10.653  0.0721 -0.2250 -0.5117
  102OSM   H11A10289   2.000   3.535  10.646 -0.2919 -1.3563  0.6435
  102OSM   H11B10290   2.128   3.432  10.575 -1.3295 -0.3972 -0.7249
  102OSM      P10291   2.339   3.597  10.573 -0.1139 -0.0693 -0.1496
  102OSM    O1310292   2.411   3.726  10.559 -0.8612  0.0706 -0.2633
  102OSM    O1410293   2.394   3.493  10.659  0.1748 -0.3017 -0.3508
  102OSM    O1110294   2.323   3.544  10.419  0.2126  0.5279 -0.0017
  102OSM    O1210295   2.189   3.622  10.611 -0.2371  0.3631  0.0181
  102OSM    C1S10296   2.218   3.611  10.345  0.3163 -0.7363  0.6225
  102OSM    H1S10297   2.231   3.720  10.333 -0.7612 -0.5996  0.7023
  102OSM    H1T10298   2.123   3.590  10.398  0.4993 -1.9346  0.4928
  102OSM     NF10299   2.126   3.637  10.125 -0.2078 -0.4312 -0.0957
  102OSM    HNF10300   2.030   3.617  10.111 -0.6304  0.8080  1.0007
  102OSM    C2S10301   2.211   3.547  10.204 -0.7851 -0.3509 -0.5214
  102OSM    H2S10302   2.312   3.546  10.157 -0.0677 -0.7962  1.0103
  102OSM    C3S10303   2.158   3.400  10.217  0.4270  0.3397 -0.2007
  102OSM    H3S10304   2.053   3.404  10.254  0.5584  1.6803  0.0433
  102OSM     O310305   2.246   3.322  10.291 -0.1325 -0.4393 -0.4354
  102OSM    HO310306   2.316   3.383  10.316 -0.9641  0.8687 -1.2289
  102OSM    C4S10307   2.162   3.347  10.076 -0.4045 -0.3355  0.0320
  102OSM    H4S10308   2.260   3.351  10.027  0.3309 -2.7315  1.2370
  102OSM    C5S10309   2.064   3.284  10.007  0.5366  0.4250  0.2344
  102OSM    H5S10310   1.968   3.260  10.056  0.3204  0.7723 -0.0166
  102OSM    C6S10311   2.077   3.228   9.868 -0.0444 -0.3047  0.5278
  102OSM    H6S10312   1.979   3.238   9.818  0.6885  0.4086 -0.8087
  102OSM    H6T10313   2.109   3.122   9.870 -1.3918 -0.7936 -1.8970
  102OSM    C7S10314   2.169   3.308   9.777 -0.3836  0.6394  0.7161
  102OSM    H7S10315   2.272   3.325   9.816 -0.8524  0.3921  2.1008
  102OSM    H7T10316   2.125   3.408   9.760 -0.3729  0.3668 -0.9454
  102OSM    C8S10317   2.196   3.229   9.642  0.6034 -0.2279 -0.3424
  102OSM    H8S10318   2.101   3.222   9.584 -0.6343 -1.3591  1.7472
  102OSM    H8T10319   2.233   3.127   9.665  0.2897  0.0429  1.3983
  102OSM    C9S10320   2.286   3.306   9.549  0.8857 -0.1256 -0.0299
  102OSM    H9S10321   2.349   3.380   9.603  0.3520 -0.9561  1.7596
  102OSM    H9T10322   2.228   3.363   9.473 -0.0720 -0.5493  0.3823
  102OSM   C10S10323   2.361   3.216   9.454 -0.6128  0.0721  0.0535
  102OSM   H10S10324   2.295   3.148   9.396  1.3505 -1.1714 -0.7752
  102OSM   H10T10325   2.433   3.148   9.504 -1.8521 -0.6782  0.8263
  102OSM   C11S10326   2.450   3.301   9.365 -0.1113  0.1864 -0.6742
  102OSM   H11S10327   2.515   3.374   9.418  1.2205 -1.5200  0.1121
  102OSM   H11T10328   2.385   3.357   9.295  0.1042  0.4531 -0.6608
  102OSM   C12S10329   2.538   3.212   9.274  0.0649 -0.4795  0.3184
  102OSM   H12S10330   2.472   3.153   9.206 -2.2345 -0.0159  2.0720
  102OSM   H12T10331   2.617   3.152   9.324  1.2938 -0.0401 -1.0675
  102OSM   C13S10332   2.606   3.310   9.173  0.0733  0.7239  0.5690
  102OSM   H13S10333   2.647   3.400   9.224  0.5880  1.2320 -0.7139
  102OSM   H13T10334   2.523   3.352   9.113  1.1935 -0.0816 -1.5753
  102OSM   C14S10335   2.714   3.245   9.087 -0.1503  0.3956 -0.4182
  102OSM   H14S10336   2.723   3.140   9.121  2.5342  0.4766 -0.7768
  102OSM   H14T10337   2.812   3.292   9.110 -0.2166 -0.3811  1.4715
  102OSM   C15S10338   2.680   3.270   8.939  0.4941 -0.7064  0.2564
  102OSM   H15S10339   2.647   3.375   8.925  0.3671 -0.9090 -1.0349
  102OSM   H15T10340   2.594   3.214   8.896  0.0550 -0.6023  0.9945
  102OSM   C16S10341   2.814   3.256   8.857 -0.2284 -0.1785 -0.1507
  102OSM   H16S10342   2.830   3.147   8.841 -2.5617 -0.5070 -0.3064
  102OSM   H16T10343   2.901   3.281   8.922  0.8859  1.3316 -2.1966
  102OSM   C17S10344   2.823   3.324   8.722  0.0712  0.9318  0.1535
  102OSM   H17S10345   2.741   3.300   8.651 -1.2344  1.6712  1.3757
  102OSM   H17T10346   2.919   3.302   8.671  0.0656  1.6101 -0.1569
  102OSM   C18S10347   2.810   3.479   8.736 -0.0217  0.7168 -0.4358
  102OSM   H18S10348   2.903   3.522   8.779  0.1337  1.9127 -1.9421
  102OSM   H18T10349   2.732   3.513   8.807  0.8645 -0.8740  1.3394
  102OSM   H18U10350   2.796   3.522   8.635  1.5096  1.0638 -0.5122
  102OSM    C1F10351   2.173   3.753  10.083  0.1681 -0.4360  0.0485
  102OSM     OF10352   2.286   3.788  10.110 -0.6588  0.1018  0.2899
  102OSM    C2F10353   2.074   3.847  10.016 -0.6693  0.8411  0.9551
  102OSM    H2F10354   2.032   3.909  10.098 -2.1399 -1.6022  2.1218
  102OSM    H2G10355   2.000   3.777   9.972  0.7301  0.5011 -0.9225
  102OSM    C3F10356   2.152   3.926   9.907  0.7687 -0.1151 -0.1222
  102OSM    H3F10357   2.228   3.985   9.962 -0.2726 -0.1174  1.3501
  102OSM    H3G10358   2.082   4.003   9.866 -0.3184  0.1519  2.2005
  102OSM    C4F10359   2.212   3.838   9.799 -0.2940 -0.3527 -0.3530
  102OSM    H4F10360   2.300   3.781   9.833  0.8039  0.5078 -1.7040
  102OSM    H4G10361   2.248   3.903   9.716 -0.6300 -0.8473 -0.8904
  102OSM    C5F10362   2.122   3.734   9.735 -0.1687 -0.5978  0.2119
  102OSM    H5F10363   2.035   3.793   9.698  1.5103  0.3614 -2.4377
  102OSM    H5G10364   2.095   3.650   9.802 -0.0747 -1.7694 -1.1745
  102OSM    C6F10365   2.187   3.670   9.611  0.2243  0.2811 -0.9433
  102OSM    H6F10366   2.128   3.584   9.573 -1.9508  0.7769  1.1605
  102OSM    H6G10367   2.280   3.618   9.642 -0.0269  1.4246  1.8835
  102OSM    C7F10368   2.217   3.773   9.505  0.5646 -0.1676  0.5117
  102OSM    H7F10369   2.313   3.829   9.516  0.3217  0.7667 -1.8538
  102OSM    H7G10370   2.132   3.845   9.503  0.4188 -0.2706  2.1021
  102OSM    C8F10371   2.241   3.706   9.364  0.0862  0.5474  0.4912
  102OSM    H8F10372   2.140   3.684   9.324  0.2219  1.4228 -0.3497
  102OSM    H8G10373   2.302   3.615   9.385  1.0794  0.1705 -3.5359
  102OSM    C9F10374   2.329   3.771   9.253  0.7793 -0.3413 -0.2110
  102OSM    H9F10375   2.437   3.756   9.263  1.3588  3.0681 -0.4896
  102OSM   C10F10376   2.288   3.851   9.159 -0.7405  0.1670 -0.0066
  102OSM   H10F10377   2.370   3.899   9.102 -0.2140 -1.0645 -0.3046
  102OSM   C11F10378   2.143   3.888   9.142  0.3721 -0.1683 -0.3072
  102OSM   H11F10379   2.084   3.875   9.235  0.6601 -0.1593 -0.1223
  102OSM   H11G10380   2.091   3.820   9.070  0.0778 -0.7590  0.4521
  102OSM   C12F10381   2.131   4.030   9.092 -0.3992 -0.1708  0.3219
  102OSM   H12F10382   2.176   4.098   9.167  0.7352 -0.4941 -0.0484
  102OSM   H12G10383   2.024   4.056   9.080 -0.5522 -0.2886  1.3770
  102OSM   C13F10384   2.186   4.047   8.947  0.4813  0.8011 -0.1314
  102OSM   H13F10385   2.133   3.975   8.882  1.0919  0.2103  0.0217
  102OSM   H13G10386   2.295   4.027   8.947  1.0057  3.4567 -1.8449
  102OSM   C14F10387   2.168   4.185   8.885  0.3316  0.3301  0.1561
  102OSM   H14F10388   2.234   4.255   8.942  2.4455  0.0307 -1.8617
  102OSM   H14G10389   2.063   4.220   8.892  0.7412  1.1648  3.1651
  102OSM   C15F10390   2.217   4.173   8.743  1.0706  0.5755  0.3590
  102OSM   H15F10391   2.136   4.115   8.695  0.7751  2.4426 -1.5128
  102OSM   H15G10392   2.318   4.126   8.742  0.6616 -0.3606 -2.7417
  102OSM   C16F10393   2.242   4.306   8.663  0.5695 -0.1505  0.7159
  102OSM   H16F10394   2.328   4.348   8.719 -1.0057  2.4558  1.2537
  102OSM   H16G10395   2.151   4.369   8.662  0.4549 -0.2626  2.3485
  102OSM   C17F10396   2.277   4.283   8.511  0.5678  0.2772  0.0709
  102OSM   H17F10397   2.297   4.381   8.462 -1.8237  0.6653 -0.1870
  102OSM   H17G10398   2.187   4.246   8.459  0.9439  0.2396 -0.5612
  102OSM   C18F10399   2.395   4.194   8.475  0.2425  0.3107  0.3095
  102OSM   H18F10400   2.392   4.104   8.539 -0.8156  0.1903  0.0985
  102OSM   H18G10401   2.493   4.241   8.497  1.0199 -1.7106  1.2746
  102OSM   H18H10402   2.394   4.168   8.367  0.4432  0.7397  0.2000
  103OSM      N10403   2.869   0.019  10.914  0.1091  0.0179 -0.1486
  103OSM    C1510404   2.907  -0.064  10.794  0.2775  0.0677  0.0084
  103OSM   H15A10405   3.013  -0.085  10.791  1.2741  4.4817  0.9499
  103OSM   H15B10406   2.892  -0.018  10.697  2.1344  2.6088  0.8611
  103OSM   H15C10407   2.850  -0.156  10.793 -0.2940  0.4192 -0.9248
  103OSM    C1410408   2.728   0.067  10.901 -0.5250 -0.2728 -0.0210
  103OSM   H14A10409   2.679   0.102  10.990 -1.7103  0.5539 -0.9678
  103OSM   H14B10410   2.667  -0.009  10.852  1.5324 -3.0247  1.5504
  103OSM   H14C10411   2.730   0.157  10.842 -1.1951 -1.0732 -1.3008
  103OSM    C1310412   2.874  -0.075  11.030 -0.4532  0.1694 -0.0926
  103OSM   H13A10413   2.885  -0.008  11.113 -1.7591  0.3553 -0.0652
  103OSM   H13B10414   2.954  -0.148  11.033 -0.1117  0.4879 -1.3263
  103OSM   H13C10415   2.782  -0.130  11.047 -0.3633  0.8332  2.6643
  103OSM    C1210416   2.964   0.136  10.932 -0.5305  0.7285 -0.5584
  103OSM   H12A10417   2.910   0.203  10.997 -1.0333  0.5436 -0.7855
  103OSM   H12B10418   2.967   0.192  10.840 -3.3810  2.5854  0.4088
  103OSM    C1110419   3.112   0.103  10.992 -0.1998  0.3776  0.8548
  103OSM   H11A10420   3.100   0.064  11.095 -0.8009 -0.2297  0.5644
  103OSM   H11B10421   3.158   0.204  10.991  0.8928 -0.1181 -1.3896
  103OSM      P10422   3.296  -0.084  10.969 -0.5797 -0.2335  0.8156
  103OSM    O1310423   3.425  -0.018  10.982  0.3680 -0.3041 -0.2666
  103OSM    O1410424   3.245  -0.151  11.090 -0.3445 -0.4059 -0.2780
  103OSM    O1110425   3.311  -0.199  10.861  0.2897  0.5496 -0.1381
  103OSM    O1210426   3.184   0.010  10.914  0.1743  0.6772  0.8683
  103OSM    C1S10427   3.233  -0.197  10.745  0.1698  0.0091  0.0222
  103OSM    H1S10428   3.237  -0.102  10.688 -0.2542  0.3000  0.4777
  103OSM    H1T10429   3.125  -0.211  10.765  0.4987 -0.3754  1.6023
  103OSM     NF10430   3.226  -0.289  10.523  0.1134 -0.1149  0.1799
  103OSM    HNF10431   3.149  -0.350  10.508  1.6570 -1.7073 -1.4920
  103OSM    C2S10432   3.288  -0.303  10.647  0.1015  0.3034 -0.3816
  103OSM    H2S10433   3.397  -0.283  10.642  0.2284 -0.1149  0.5975
  103OSM    C3S10434   3.263  -0.445  10.705  0.1381  0.0281 -0.5416
  103OSM    H3S10435   3.155  -0.467  10.717  0.4312 -1.6595 -0.9195
  103OSM     O310436   3.301  -0.468  10.843  0.3125  0.0270  0.2134
  103OSM    HO310437   3.305  -0.376  10.868 -0.5964  0.6571 -1.8701
  103OSM    C4S10438   3.330  -0.546  10.610 -0.6391  0.4028  0.3412
  103OSM    H4S10439   3.263  -0.583  10.531  0.4880  0.8402 -0.8322
  103OSM    C5S10440   3.452  -0.600  10.616  0.9359 -0.1335  0.3731
  103OSM    H5S10441   3.508  -0.549  10.696 -2.0241  0.3501  2.2356
  103OSM    C6S10442   3.528  -0.700  10.527 -0.1637 -0.5285 -0.6499
  103OSM    H6S10443   3.563  -0.785  10.590 -0.2914  0.7715  1.2094
  103OSM    H6T10444   3.609  -0.647  10.472 -1.8586  1.1279 -1.5821
  103OSM    C7S10445   3.441  -0.749  10.413 -0.4471  0.1905  0.2725
  103OSM    H7S10446   3.397  -0.666  10.355 -0.4982  0.0606  0.1257
  103OSM    H7T10447   3.355  -0.809  10.452 -2.1706  0.7004 -2.6147
  103OSM    C8S10448   3.516  -0.835  10.312  0.1828 -0.1977 -0.1106
  103OSM    H8S10449   3.579  -0.904  10.372 -2.7185 -1.6784  1.3311
  103OSM    H8T10450   3.581  -0.767  10.252 -0.2625  0.6623  0.3888
  103OSM    C9S10451   3.415  -0.920  10.220  0.0577  0.2827 -0.1679
  103OSM    H9S10452   3.329  -0.856  10.190  1.3390  2.2573  0.2478
  103OSM    H9T10453   3.373  -1.002  10.280 -0.3648  0.8042  0.2520
  103OSM   C10S10454   3.492  -0.984  10.107  0.4385  0.0627  0.0141
  103OSM   H10S10455   3.528  -1.084  10.139 -0.9140  0.3463  2.5630
  103OSM   H10T10456   3.581  -0.922  10.082 -0.3539  1.7893  1.3845
  103OSM   C11S10457   3.391  -1.022   9.997 -0.6358  0.0606 -0.0242
  103OSM   H11S10458   3.336  -0.944   9.940 -0.4699 -0.0973 -0.4030
  103OSM   H11T10459   3.326  -1.096  10.050 -2.3654  0.0087 -2.1249
  103OSM   C12S10460   3.470  -1.091   9.887 -0.4079 -0.2166  0.2681
  103OSM   H12S10461   3.510  -1.185   9.930 -1.2105 -0.5002  0.3973
  103OSM   H12T10462   3.552  -1.019   9.864 -0.9786  0.4966  0.4515
  103OSM   C13S10463   3.384  -1.124   9.767 -0.3509  0.5966  0.5952
  103OSM   H13S10464   3.353  -1.029   9.717 -0.8495  0.1458  0.0355
  103OSM   H13T10465   3.286  -1.160   9.807 -2.1430  1.2466 -2.9861
  103OSM   C14S10466   3.443  -1.218   9.658  0.5287  1.0034  0.1721
  103OSM   H14S10467   3.472  -1.315   9.704  0.8225  1.1097  0.2115
  103OSM   H14T10468   3.533  -1.168   9.616 -0.5125  1.1913 -1.9033
  103OSM   C15S10469   3.331  -1.236   9.559  0.3436 -0.0496  0.2782
  103OSM   H15S10470   3.317  -1.158   9.481  0.9392 -1.9747 -1.8225
  103OSM   H15T10471   3.238  -1.247   9.618  0.5325  3.4284  1.3479
  103OSM   C16S10472   3.338  -1.363   9.472 -0.0881  0.5460  0.5710
  103OSM   H16S10473   3.298  -1.453   9.524 -1.5317  0.8989  0.0917
  103OSM   H16T10474   3.443  -1.374   9.437 -0.3561  1.6216 -0.6252
  103OSM   C17S10475   3.253  -1.346   9.341 -0.1339  0.0366 -0.2737
  103OSM   H17S10476   3.297  -1.262   9.283  2.5460 -2.3719 -1.8231
  103OSM   H17T10477   3.154  -1.307   9.374  0.5082  2.9260 -1.5544
  103OSM   C18S10478   3.241  -1.463   9.236 -0.4210  0.1552  0.0895
  103OSM   H18S10479   3.345  -1.493   9.210 -0.0147  0.3695  1.4480
  103OSM   H18T10480   3.206  -1.428   9.136 -0.0097  2.8753  0.8557
  103OSM   H18U10481   3.182  -1.544   9.283  0.6525 -0.5054  0.3155
  103OSM    C1F10482   3.234  -0.180  10.436 -0.6769  0.0230 -0.0670
  103OSM     OF10483   3.329  -0.101  10.453  0.1273 -0.0684 -0.1009
  103OSM    C2F10484   3.126  -0.166  10.332  0.4231 -0.2384  0.1856
  103OSM    H2F10485   3.050  -0.092  10.365  0.4657  0.0500 -0.3635
  103OSM    H2G10486   3.081  -0.266  10.317 -0.7812  0.3761 -0.3048
  103OSM    C3F10487   3.199  -0.133  10.202 -0.0313 -0.0210  0.2933
  103OSM    H3F10488   3.279  -0.206  10.177 -0.5116 -0.0768 -1.1238
  103OSM    H3G10489   3.241  -0.030  10.210  3.0094 -1.2182  0.3068
  103OSM    C4F10490   3.098  -0.147  10.080 -0.3602 -1.0600  0.4674
  103OSM    H4F10491   3.012  -0.084  10.112 -0.1009  0.7826 -2.3510
  103OSM    H4G10492   3.073  -0.255  10.068  1.1921 -1.5261  1.3030
  103OSM    C5F10493   3.159  -0.089   9.958  0.3581  0.1511 -0.1041
  103OSM    H5F10494   3.213   0.007   9.972 -2.0878  1.9704 -2.5771
  103OSM    H5G10495   3.084  -0.052   9.884  0.6510 -1.3958 -1.2067
  103OSM    C6F10496   3.242  -0.188   9.882 -0.1203 -0.2676  0.5722
  103OSM    H6F10497   3.171  -0.267   9.851 -0.1380 -0.6215  1.4923
  103OSM    H6G10498   3.316  -0.233   9.952 -0.3529 -0.4671  0.6890
  103OSM    C7F10499   3.315  -0.133   9.757  0.0899 -0.2318 -0.1552
  103OSM    H7F10500   3.373  -0.045   9.792 -0.9045  0.2103  0.3979
  103OSM    H7G10501   3.247  -0.101   9.675  0.9326 -0.2070 -0.8482
  103OSM    C8F10502   3.425  -0.231   9.701 -0.8874 -0.1699  0.0955
  103OSM    H8F10503   3.358  -0.315   9.673 -2.2355  0.5225  1.2227
  103OSM    H8G10504   3.487  -0.276   9.781  0.1878 -1.3949 -1.3916
  103OSM    C9F10505   3.501  -0.164   9.587 -0.0621  0.0055 -0.4049
  103OSM    H9F10506   3.576  -0.086   9.607  2.1976 -1.9263 -1.1619
  103OSM   C10F10507   3.478  -0.182   9.455  0.2233 -0.5444  0.1336
  103OSM   H10F10508   3.554  -0.141   9.387 -0.1730 -0.2536 -0.1363
  103OSM   C11F10509   3.378  -0.282   9.402 -0.1890  0.2698  0.3081
  103OSM   H11F10510   3.273  -0.247   9.391  0.3054  1.3212 -1.3485
  103OSM   H11G10511   3.371  -0.367   9.472  0.5024  1.6723  2.1265
  103OSM   C12F10512   3.420  -0.342   9.269  0.0532 -0.2547  0.1104
  103OSM   H12F10513   3.362  -0.437   9.265 -3.3592  1.6838  0.9376
  103OSM   H12G10514   3.529  -0.352   9.254  0.4747 -0.5710  3.0400
  103OSM   C13F10515   3.357  -0.259   9.161  0.4853  0.3391 -0.5819
  103OSM   H13F10516   3.252  -0.233   9.184  0.5038 -2.7762  3.6129
  103OSM   H13G10517   3.398  -0.156   9.153 -0.9547  1.0095  0.4500
  103OSM   C14F10518   3.360  -0.325   9.026 -0.4385 -0.1418  0.5071
  103OSM   H14F10519   3.340  -0.434   9.042 -1.9239 -0.0859 -0.8627
  103OSM   H14G10520   3.464  -0.311   8.991 -0.2278  1.8581  1.8805
  103OSM   C15F10521   3.261  -0.261   8.928  0.1428 -0.1281 -0.8499
  103OSM   H15F10522   3.264  -0.150   8.933 -1.1690 -0.1733  2.3284
  103OSM   H15G10523   3.155  -0.281   8.954  0.5484 -1.0099  0.1719
  103OSM   C16F10524   3.281  -0.293   8.780 -0.1387 -0.3700  0.2810
  103OSM   H16F10525   3.218  -0.215   8.732  1.9258  1.4180  0.3806
  103OSM   H16G10526   3.243  -0.396   8.762 -2.1866  0.1245  1.6202
  103OSM   C17F10527   3.424  -0.276   8.723 -0.1479 -0.1576  0.4138
  103OSM   H17F10528   3.489  -0.345   8.781  0.4525 -0.7153 -0.8888
  103OSM   H17G10529   3.461  -0.174   8.746 -3.7595  1.1213  0.9015
  103OSM   C18F10530   3.432  -0.314   8.570 -0.6628 -0.0429 -0.9566
  103OSM   H18F10531   3.534  -0.327   8.529 -0.1665  1.2461 -0.1489
  103OSM   H18G10532   3.376  -0.234   8.517  0.5132  0.8116 -0.9209
  103OSM   H18H10533   3.368  -0.404   8.555  0.2296 -1.1885  1.7788
  104OSM      N10534   1.284   5.867  10.962 -0.3407  0.1598  0.0048
  104OSM    C1510535   1.403   5.809  11.031 -0.3198 -0.2803 -0.2373
  104OSM   H15A10536   1.414   5.848  11.131 -3.2719 -2.1202  0.8706
  104OSM   H15B10537   1.491   5.837  10.975 -1.3385  0.4805 -1.4910
  104OSM   H15C10538   1.396   5.702  11.038  1.4476 -0.3489  0.8160
  104OSM    C1410539   1.168   5.789  11.019 -0.2081  0.0500  0.6344
  104OSM   H14A10540   1.175   5.682  11.009 -0.8686  0.1695 -1.2903
  104OSM   H14B10541   1.082   5.818  10.961 -1.0951 -1.1227  1.3381
  104OSM   H14C10542   1.148   5.807  11.124  0.1394 -1.5909  0.9869
  104OSM    C1310543   1.263   6.016  10.993  0.5353 -0.7652 -0.0663
  104OSM   H13A10544   1.347   6.081  10.971  0.5885 -0.9864 -0.5253
  104OSM   H13B10545   1.233   6.030  11.096 -0.9262  1.6985 -0.7595
  104OSM   H13C10546   1.168   6.036  10.946 -0.1583 -0.3140  1.4891
  104OSM    C1210547   1.306   5.844  10.812  0.1081 -0.4904 -0.0637
  104OSM   H12A10548   1.302   5.739  10.784 -3.1839 -0.1922 -0.8165
  104OSM   H12B10549   1.405   5.879  10.784 -0.2598  2.6901  2.3430
  104OSM    C1110550   1.208   5.915  10.717 -0.1758 -0.5450  0.1011
  104OSM   H11A10551   1.238   5.897  10.612  0.6567  2.2896 -0.1931
  104OSM   H11B10552   1.219   6.025  10.730  1.0557 -0.9509  2.7747
  104OSM      P10553   0.994   5.763  10.687 -0.3225  0.4037 -0.1007
  104OSM    O1310554   1.093   5.649  10.675  0.0415 -0.5093 -0.3533
  104OSM    O1410555   0.872   5.742  10.768 -0.4562 -0.5445  0.4461
  104OSM    O1110556   0.947   5.796  10.547  0.2214 -0.3181 -0.1279
  104OSM    O1210557   1.067   5.889  10.743 -0.4819  0.2503 -0.3176
  104OSM    C1S10558   0.888   5.924  10.524 -0.0652 -0.7279  0.8291
  104OSM    H1S10559   0.952   6.006  10.562  2.3132 -1.4203 -1.5576
  104OSM    H1T10560   0.788   5.934  10.572 -0.4017  0.6912 -0.1418
  104OSM     NF10561   0.796   6.091  10.368  0.2852 -0.1840 -0.3036
  104OSM    HNF10562   0.697   6.095  10.358  0.1690  0.1846  0.9805
  104OSM    C2S10563   0.855   5.958  10.374 -0.0451  0.0944  0.0209
  104OSM    H2S10564   0.938   5.973  10.302 -1.8506  0.6900 -1.9629
  104OSM    C3S10565   0.782   5.841  10.302  0.2880 -0.7944 -0.3391
  104OSM    H3S10566   0.692   5.815  10.362 -2.5427  4.6957 -1.9328
  104OSM     O310567   0.847   5.717  10.293 -0.4821 -0.2132  0.6002
  104OSM    HO310568   0.914   5.726  10.362  1.1466  0.0961 -0.9785
  104OSM    C4S10569   0.741   5.879  10.162 -0.8051  0.0402  0.6634
  104OSM    H4S10570   0.828   5.895  10.098 -0.2681 -0.9591  1.1299
  104OSM    C5S10571   0.612   5.904  10.124  0.6539 -0.5758  0.8288
  104OSM    H5S10572   0.529   5.883  10.193 -3.0372 -1.3944 -3.6417
  104OSM    C6S10573   0.569   5.948   9.980  0.8263 -0.4546 -0.0924
  104OSM    H6S10574   0.526   6.050   9.973  1.4900 -0.2193 -0.7383
  104OSM    H6T10575   0.484   5.880   9.959 -1.3904  2.6799 -1.5897
  104OSM    C7S10576   0.677   5.947   9.871 -0.2100 -0.3545 -0.1275
  104OSM    H7S10577   0.714   5.843   9.862 -1.5855 -0.8693 -0.0450
  104OSM    H7T10578   0.768   6.006   9.891 -0.0680 -0.3535 -0.7674
  104OSM    C8S10579   0.619   5.989   9.738 -0.0196  0.4989 -0.7047
  104OSM    H8S10580   0.569   6.086   9.758 -0.1744 -0.4219  3.7478
  104OSM    H8T10581   0.543   5.918   9.699  0.2761 -1.4512  2.1142
  104OSM    C9S10582   0.734   6.012   9.633 -0.0027  0.3381 -0.2249
  104OSM    H9S10583   0.769   5.914   9.593  0.3179  0.2311  0.3132
  104OSM    H9T10584   0.823   6.066   9.671 -0.9365  1.9228 -0.2351
  104OSM   C10S10585   0.667   6.081   9.512 -0.1822  0.8745 -0.3509
  104OSM   H10S10586   0.609   6.172   9.539  1.8700  1.5793  1.8315
  104OSM   H10T10587   0.598   6.007   9.467  0.2908  0.9857 -1.2778
  104OSM   C11S10588   0.770   6.127   9.396  0.1345  0.1731 -0.2238
  104OSM   H11S10589   0.832   6.047   9.351 -1.2336 -0.6482 -0.7085
  104OSM   H11T10590   0.837   6.202   9.442 -2.3082  2.6614 -0.5817
  104OSM   C12S10591   0.699   6.216   9.281  0.6785  0.4343 -0.0096
  104OSM   H12S10592   0.681   6.313   9.332 -0.8864 -0.1674  0.6136
  104OSM   H12T10593   0.597   6.176   9.263  1.4277 -0.6002 -2.2368
  104OSM   C13S10594   0.764   6.232   9.147 -0.1130 -0.1507 -0.1491
  104OSM   H13S10595   0.770   6.136   9.092  0.4312 -0.8837  1.1772
  104OSM   H13T10596   0.866   6.270   9.169 -0.0767 -0.3068 -0.0526
  104OSM   C14S10597   0.687   6.342   9.073 -0.7411  0.1222 -0.2783
  104OSM   H14S10598   0.692   6.434   9.135  1.1020 -1.2721  1.7392
  104OSM   H14T10599   0.583   6.304   9.067 -0.6917  0.0440 -0.6227
  104OSM   C15S10600   0.735   6.374   8.933 -0.0858 -0.9805 -0.1036
  104OSM   H15S10601   0.840   6.409   8.928  0.3505 -2.0847  0.9281
  104OSM   H15T10602   0.677   6.461   8.895  1.0668 -0.1247  0.0881
  104OSM   C16S10603   0.692   6.275   8.830  0.5599  0.4293  0.0503
  104OSM   H16S10604   0.582   6.273   8.814  0.5185  2.4558 -0.1534
  104OSM   H16T10605   0.725   6.175   8.863 -0.9204 -0.3910 -0.9017
  104OSM   C17S10606   0.764   6.293   8.697 -0.6599 -0.0910 -0.1796
  104OSM   H17S10607   0.870   6.309   8.725 -1.0554  2.2837  0.0314
  104OSM   H17T10608   0.729   6.390   8.657 -0.6817  1.0481  2.4988
  104OSM   C18S10609   0.748   6.170   8.604  0.1907 -0.4790 -0.5412
  104OSM   H18S10610   0.794   6.078   8.647  2.3240  0.5320 -0.5822
  104OSM   H18T10611   0.806   6.193   8.512 -1.8588  1.1591 -1.4367
  104OSM   H18U10612   0.643   6.152   8.572 -0.1509 -1.1409  0.8922
  104OSM    C1F10613   0.863   6.206  10.390  0.3773  0.8366 -0.3160
  104OSM     OF10614   0.983   6.205  10.426 -0.0348  0.7825 -0.1511
  104OSM    C2F10615   0.783   6.334  10.366  0.2142 -0.3634 -0.3567
  104OSM    H2F10616   0.814   6.406  10.445  0.2925 -2.2857  1.3966
  104OSM    H2G10617   0.680   6.301  10.388  1.2136 -2.6630  1.1008
  104OSM    C3F10618   0.786   6.403  10.236 -0.2445 -0.9516 -0.1130
  104OSM    H3F10619   0.883   6.453  10.218 -0.6580  0.5860  1.8471
  104OSM    H3G10620   0.707   6.480  10.242 -1.7813 -2.6276  2.5874
  104OSM    C4F10621   0.760   6.312  10.116 -0.0044 -0.1176  0.8612
  104OSM    H4F10622   0.659   6.267  10.119 -0.4043  0.6266 -0.7336
  104OSM    H4G10623   0.834   6.229  10.114 -0.2760 -0.3561  0.6952
  104OSM    C5F10624   0.770   6.386   9.973 -1.1286 -0.3342  1.4109
  104OSM    H5F10625   0.874   6.418   9.954 -0.6574 -1.6821  1.6841
  104OSM    H5G10626   0.710   6.478   9.991 -0.5752  0.4053 -0.4271
  104OSM    C6F10627   0.744   6.310   9.840  1.0524 -0.0691 -0.8175
  104OSM    H6F10628   0.640   6.269   9.842  1.2329 -0.5911 -1.8862
  104OSM    H6G10629   0.829   6.240   9.823 -0.4764 -2.7867  2.0522
  104OSM    C7F10630   0.741   6.406   9.717 -0.4731 -0.6090 -0.1432
  104OSM    H7F10631   0.671   6.491   9.727 -0.3815 -0.6390  0.8553
  104OSM    H7G10632   0.701   6.345   9.633  0.5722 -0.4807 -0.7500
  104OSM    C8F10633   0.878   6.465   9.668 -0.5894  1.0346  0.4465
  104OSM    H8F10634   0.926   6.526   9.748 -1.9213  2.2158  0.3744
  104OSM    H8G10635   0.860   6.545   9.593 -0.0707  0.1153 -0.6777
  104OSM    C9F10636   0.975   6.363   9.613 -0.4235 -0.3649 -0.1465
  104OSM    H9F10637   1.024   6.282   9.669  1.5066  1.2741  0.5954
  104OSM   C10F10638   1.022   6.373   9.484 -0.1499 -0.5918  0.4154
  104OSM   H10F10639   1.082   6.292   9.440 -0.9354 -1.9271  1.7615
  104OSM   C11F10640   0.986   6.475   9.384  0.1062 -0.1376  0.8172
  104OSM   H11F10641   0.981   6.570   9.443 -1.4371  1.1087 -1.2568
  104OSM   H11G10642   0.880   6.470   9.352  0.5162 -2.6037 -0.2526
  104OSM   C12F10643   1.081   6.482   9.268 -0.4043 -0.2545  0.2979
  104OSM   H12F10644   1.077   6.384   9.217 -3.4055 -0.3738  0.7023
  104OSM   H12G10645   1.186   6.493   9.303 -0.7069  1.5515  0.7118
  104OSM   C13F10646   1.049   6.599   9.169  0.0256 -0.3597  0.4208
  104OSM   H13F10647   1.082   6.700   9.200 -0.4852  1.0697 -3.4080
  104OSM   H13G10648   0.939   6.605   9.153 -0.0601  2.1612  1.7525
  104OSM   C14F10649   1.100   6.576   9.026  0.1837  0.0384  1.0628
  104OSM   H14F10650   1.063   6.480   8.985  1.5284 -0.1902  0.3342
  104OSM   H14G10651   1.209   6.590   9.040  0.0482 -0.6835  2.9336
  104OSM   C15F10652   1.067   6.696   8.934  0.4632 -0.1165  0.3114
  104OSM   H15F10653   1.075   6.790   8.993 -2.9621  0.4130  0.0559
  104OSM   H15G10654   0.961   6.687   8.903  0.2891 -1.5289  1.2790
  104OSM   C16F10655   1.158   6.703   8.805  0.0265  0.6217  0.0876
  104OSM   H16F10656   1.260   6.700   8.848 -0.6620 -0.1558  1.7262
  104OSM   H16G10657   1.145   6.801   8.755 -0.7339  0.5079  0.0484
  104OSM   C17F10658   1.145   6.587   8.704  0.3364  0.1268  0.0394
  104OSM   H17F10659   1.044   6.593   8.658  0.6244  4.2081 -0.2147
  104OSM   H17G10660   1.172   6.496   8.762  1.3191 -0.6491 -1.5960
  104OSM   C18F10661   1.244   6.614   8.592 -0.3159  0.1336  0.4009
  104OSM   H18F10662   1.240   6.528   8.522  0.4614  0.1467  0.3298
  104OSM   H18G10663   1.342   6.613   8.646 -1.4200 -1.7588  2.4704
  104OSM   H18H10664   1.225   6.704   8.530 -0.0653  0.3450  0.6263
  105OSM      N10665   0.662   4.775  10.778  0.1620 -0.6199  0.3040
  105OSM    C1510666   0.811   4.806  10.783 -0.5674 -0.1072 -0.4286
  105OSM   H15A10667   0.848   4.840  10.687  0.0926 -0.9219 -0.4679
  105OSM   H15B10668   0.859   4.716  10.816  0.1999 -0.0108 -1.2548
  105OSM   H15C10669   0.825   4.889  10.851 -2.8057 -0.6905  0.7930
  105OSM    C1410670   0.626   4.699  10.653 -0.0475 -0.5177 -0.1703
  105OSM   H14A10671   0.665   4.761  10.574 -0.6042  0.6697  0.4801
  105OSM   H14B10672   0.519   4.697  10.636  0.0860 -1.8897 -1.0002
  105OSM   H14C10673   0.672   4.601  10.650 -1.8625 -1.4305  0.5007
  105OSM    C1310674   0.622   4.692  10.897 -0.5913  0.4697 -0.1795
  105OSM   H13A10675   0.673   4.597  10.903 -2.7785 -0.5927  3.8175
  105OSM   H13B10676   0.516   4.674  10.892 -0.3908 -0.6641 -0.6335
  105OSM   H13C10677   0.648   4.739  10.990  0.6476  0.2648 -0.4167
  105OSM    C1210678   0.586   4.908  10.768  0.4429  0.3452  0.2870
  105OSM   H12A10679   0.590   4.948  10.868  0.8811 -0.1218  0.4611
  105OSM   H12B10680   0.482   4.882  10.753  1.0393 -0.5111 -2.6437
  105OSM    C1110681   0.622   5.021  10.674  0.2853  0.5828  0.2360
  105OSM   H11A10682   0.538   5.092  10.654  0.9134  1.3111  0.1470
  105OSM   H11B10683   0.655   4.993  10.572 -1.6651  0.5827 -0.4123
  105OSM      P10684   0.719   5.212  10.833  0.2858 -0.1880  0.0692
  105OSM    O1310685   0.594   5.179  10.901 -0.1139  0.3038 -0.0423
  105OSM    O1410686   0.847   5.214  10.909  0.1631 -0.1630 -0.1597
  105OSM    O1110687   0.705   5.344  10.752  0.4851 -0.0789  0.2491
  105OSM    O1210688   0.734   5.101  10.723 -0.3645  0.5707 -0.5363
  105OSM    C1S10689   0.799   5.399  10.652  0.4608 -0.0229  0.0584
  105OSM    H1S10690   0.902   5.358  10.661  0.0090 -1.7428 -2.1164
  105OSM    H1T10691   0.797   5.510  10.662 -2.3888  0.3732 -3.7769
  105OSM     NF10692   0.839   5.453  10.429  0.1196 -0.3587  0.3405
  105OSM    HNF10693   0.813   5.544  10.396  0.7959  0.2193  1.3800
  105OSM    C2S10694   0.741   5.385  10.512  1.5918 -0.5318  0.1439
  105OSM    H2S10695   0.739   5.278  10.483 -1.7945 -0.3321 -0.5268
  105OSM    C3S10696   0.599   5.436  10.491 -0.1551 -0.8599  0.7881
  105OSM    H3S10697   0.589   5.538  10.532 -0.8522  0.0511 -1.5980
  105OSM     O310698   0.502   5.366  10.570 -0.2677 -0.0150 -0.4359
  105OSM    HO310699   0.556   5.324  10.637  0.8604  2.1165  0.0451
  105OSM    C4S10700   0.559   5.426  10.348 -0.0645  0.2557  0.4761
  105OSM    H4S10701   0.566   5.322  10.311 -0.0688  0.7847 -1.0290
  105OSM    C5S10702   0.523   5.532  10.268 -0.1642  0.1436 -0.5941
  105OSM    H5S10703   0.508   5.630  10.315  1.1110  1.0438 -2.0504
  105OSM    C6S10704   0.510   5.519  10.118  0.2308 -0.6042  0.1468
  105OSM    H6S10705   0.573   5.593  10.064  1.0789 -1.8324 -0.5758
  105OSM    H6T10706   0.402   5.539  10.097  0.0934  1.0112  2.2993
  105OSM    C7S10707   0.559   5.387  10.056 -0.6179 -0.7563 -0.4186
  105OSM    H7S10708   0.503   5.307  10.110  2.8951 -2.3693  1.0413
  105OSM    H7T10709   0.668   5.377  10.076 -0.9194  0.5505  2.1367
  105OSM    C8S10710   0.551   5.380   9.904 -0.0355 -0.1324 -0.2106
  105OSM    H8S10711   0.635   5.434   9.854 -1.4496  0.1103 -2.3855
  105OSM    H8T10712   0.466   5.436   9.861 -1.2656 -1.9057 -0.1145
  105OSM    C9S10713   0.542   5.226   9.845 -1.0364 -0.1850 -0.3393
  105OSM    H9S10714   0.436   5.193   9.849 -1.1350 -0.0383 -1.4626
  105OSM    H9T10715   0.608   5.165   9.910 -1.8415 -1.1706 -0.4405
  105OSM   C10S10716   0.580   5.221   9.692  0.8125 -0.1257 -0.4313
  105OSM   H10S10717   0.588   5.114   9.663  0.8205 -1.1318  3.0489
  105OSM   H10T10718   0.677   5.274   9.679  0.5894  0.8679  1.8370
  105OSM   C11S10719   0.491   5.291   9.589  0.2578  0.1580 -0.6192
  105OSM   H11S10720   0.508   5.401   9.592  0.8873  0.0712 -1.0318
  105OSM   H11T10721   0.386   5.264   9.612 -0.0067  1.7611  0.1470
  105OSM   C12S10722   0.507   5.238   9.448 -0.0232 -0.0397 -0.1630
  105OSM   H12S10723   0.434   5.155   9.442  0.2934 -0.2149 -1.5180
  105OSM   H12T10724   0.611   5.210   9.420  0.0288  0.5867 -0.6152
  105OSM   C13S10725   0.448   5.335   9.344 -0.3551 -0.4467  0.1632
  105OSM   H13S10726   0.497   5.435   9.344 -1.1405 -0.0429 -1.7833
  105OSM   H13T10727   0.341   5.358   9.362 -0.2049  2.4315 -2.3293
  105OSM   C14S10728   0.467   5.277   9.203  0.1917 -0.0326  0.2447
  105OSM   H14S10729   0.408   5.184   9.190  0.4795  0.1466 -2.5524
  105OSM   H14T10730   0.574   5.256   9.182  0.1399  1.1542 -1.2401
  105OSM   C15S10731   0.423   5.376   9.098  0.9911 -0.4417 -0.0648
  105OSM   H15S10732   0.506   5.450   9.096  0.7110 -0.1454 -3.3499
  105OSM   H15T10733   0.324   5.424   9.117  1.6207  0.8742 -0.0147
  105OSM   C16S10734   0.404   5.323   8.954  0.1612  0.2469  0.2544
  105OSM   H16S10735   0.356   5.223   8.956 -0.5580  0.5770 -0.2380
  105OSM   H16T10736   0.503   5.321   8.905 -0.2885 -0.2914 -0.6523
  105OSM   C17S10737   0.311   5.409   8.868  0.5725  0.2756  0.0389
  105OSM   H17S10738   0.350   5.512   8.857  0.0141  0.5513  0.6033
  105OSM   H17T10739   0.208   5.409   8.910  0.1722  0.3575 -0.9451
  105OSM   C18S10740   0.314   5.354   8.723 -0.7826 -0.5860  0.1567
  105OSM   H18S10741   0.405   5.386   8.668 -0.5050  1.7765  1.9187
  105OSM   H18T10742   0.232   5.405   8.667  0.3159  2.6065  1.3646
  105OSM   H18U10743   0.289   5.245   8.720 -1.8095 -0.3376 -2.3034
  105OSM    C1F10744   0.962   5.396  10.408 -0.2834  0.0547 -0.3999
  105OSM     OF10745   0.981   5.280  10.431  0.9481  0.2649 -0.0336
  105OSM    C2F10746   1.076   5.483  10.351 -0.1604  0.9071  0.7662
  105OSM    H2F10747   1.164   5.460  10.414  0.8366  0.1501 -0.8857
  105OSM    H2G10748   1.055   5.592  10.362 -0.7569  0.7797  0.9052
  105OSM    C3F10749   1.113   5.445  10.209  0.6980  0.8067 -0.6380
  105OSM    H3F10750   1.134   5.336  10.204 -2.7919  0.0156  0.3999
  105OSM    H3G10751   1.202   5.501  10.173  3.0858 -0.6950  2.6860
  105OSM    C4F10752   0.994   5.469  10.107  0.2370 -0.0486  0.4689
  105OSM    H4F10753   0.968   5.576  10.118 -0.2288 -0.0947 -0.1628
  105OSM    H4G10754   0.906   5.415  10.147 -0.9195  0.7466 -0.9922
  105OSM    C5F10755   1.026   5.437   9.961  0.3113 -0.2599 -0.3252
  105OSM    H5F10756   1.072   5.336   9.956  0.8893 -0.1479  2.2751
  105OSM    H5G10757   1.090   5.517   9.918 -0.4393  0.0533 -0.8815
  105OSM    C6F10758   0.907   5.438   9.865 -0.6795  0.5890  0.2909
  105OSM    H6F10759   0.844   5.529   9.864  0.7928  1.6384  1.6633
  105OSM    H6G10760   0.842   5.354   9.897  0.7752 -0.8914 -0.5540
  105OSM    C7F10761   0.956   5.407   9.721  0.7456  0.6490 -1.1117
  105OSM    H7F10762   0.906   5.315   9.683 -1.2554  1.0724  0.4689
  105OSM    H7G10763   1.065   5.384   9.720  0.8918  1.1586  1.0785
  105OSM    C8F10764   0.931   5.520   9.624 -0.4193  0.0763 -0.5289
  105OSM    H8F10765   0.992   5.494   9.535  2.8405 -2.1377  2.2437
  105OSM    H8G10766   0.972   5.618   9.658  1.4486  0.3160 -3.2615
  105OSM    C9F10767   0.784   5.545   9.585 -0.3232 -0.1431 -0.5616
  105OSM    H9F10768   0.717   5.536   9.671  1.8662 -0.9161  1.1075
  105OSM   C10F10769   0.730   5.583   9.467  0.0154  0.4753  0.3946
  105OSM   H10F10770   0.620   5.587   9.460 -0.0147 -0.4756  0.2082
  105OSM   C11F10771   0.799   5.613   9.338 -0.0415 -0.1037  0.4483
  105OSM   H11F10772   0.811   5.517   9.282 -0.8228 -0.5637  1.0599
  105OSM   H11G10773   0.899   5.658   9.353  0.3518 -0.6141 -0.5479
  105OSM   C12F10774   0.714   5.702   9.242 -0.0114 -0.2613  0.5574
  105OSM   H12F10775   0.727   5.808   9.273 -3.3416  0.9305 -1.9199
  105OSM   H12G10776   0.605   5.686   9.250 -0.2513  0.2268 -1.5645
  105OSM   C13F10777   0.751   5.692   9.094  0.6709 -0.4827  0.1803
  105OSM   H13F10778   0.763   5.583   9.077  0.4127 -0.2068 -1.9828
  105OSM   H13G10779   0.837   5.760   9.076 -0.4863  0.7122 -0.9098
  105OSM   C14F10780   0.637   5.726   8.990 -0.0263  0.4946 -0.3326
  105OSM   H14F10781   0.593   5.823   9.020  1.0823  1.2394 -1.0717
  105OSM   H14G10782   0.569   5.638   8.983  1.6664 -0.9219  0.6797
  105OSM   C15F10783   0.701   5.746   8.856 -0.5174  0.5469  0.0666
  105OSM   H15F10784   0.790   5.811   8.871  0.9168 -1.1087 -0.9582
  105OSM   H15G10785   0.636   5.810   8.792  0.6111  2.7995  1.1173
  105OSM   C16F10786   0.743   5.617   8.781 -0.5119  0.2877  0.1825
  105OSM   H16F10787   0.647   5.567   8.755 -0.9901 -0.0843  2.5817
  105OSM   H16G10788   0.805   5.558   8.850 -0.5675  0.6530  0.5449
  105OSM   C17F10789   0.835   5.640   8.662  0.0482 -0.0588 -0.1856
  105OSM   H17F10790   0.887   5.548   8.628 -0.4332 -0.7483  0.9008
  105OSM   H17G10791   0.917   5.707   8.694 -2.3808  2.4175  1.1037
  105OSM   C18F10792   0.771   5.703   8.538 -0.0882  0.0386  0.8101
  105OSM   H18F10793   0.743   5.811   8.542 -0.4119 -0.0353  0.5879
  105OSM   H18G10794   0.671   5.656   8.527 -0.6225  1.4250 -0.3970
  105OSM   H18H10795   0.825   5.683   8.443 -2.3529  2.8023 -1.1690
  106OSM      N10796   1.957   3.964  10.751 -0.0203 -0.3068 -0.4341
  106OSM    C1510797   2.021   3.850  10.682  0.0986 -0.2661 -0.2784
  106OSM   H15A10798   1.986   3.767  10.741 -1.5834  0.9668  0.5015
  106OSM   H15B10799   2.127   3.829  10.686  0.1285 -0.3328 -1.2752
  106OSM   H15C10800   1.986   3.828  10.583  0.2476  0.1675 -0.4297
  106OSM    C1410801   2.002   3.968  10.895  0.1671 -0.6323  0.0975
  106OSM   H14A10802   1.959   3.884  10.948  0.3934 -2.9457 -3.2081
  106OSM   H14B10803   1.959   4.050  10.950 -0.0377 -0.1752 -0.7407
  106OSM   H14C10804   2.108   3.976  10.914  0.7765  2.6764 -4.0115
  106OSM    C1310805   2.006   4.082  10.678  0.0754  0.6618 -0.1730
  106OSM   H13A10806   1.966   4.084  10.578  0.3433 -2.0652 -0.3701
  106OSM   H13B10807   2.114   4.083  10.679  0.1583 -1.9865 -1.8207
  106OSM   H13C10808   1.968   4.172  10.725 -1.0337  0.5738 -0.8962
  106OSM    C1210809   1.806   3.948  10.745 -0.7739 -0.3396  0.0538
  106OSM   H12A10810   1.763   4.035  10.793 -1.4022 -1.4318  1.5192
  106OSM   H12B10811   1.784   3.865  10.811 -1.1074 -0.7010 -0.5081
  106OSM    C1110812   1.742   3.909  10.606  0.4617 -0.2527 -0.6354
  106OSM   H11A10813   1.799   3.964  10.529  0.4931  1.1566  0.3781
  106OSM   H11B10814   1.636   3.939  10.604  0.4423 -0.2854 -0.2389
  106OSM      P10815   1.684   3.645  10.655  0.0380  0.2121  0.1895
  106OSM    O1310816   1.750   3.646  10.788 -0.0165 -0.1890  0.0824
  106OSM    O1410817   1.540   3.634  10.646  0.0870  0.5247  0.9655
  106OSM    O1110818   1.754   3.525  10.573  0.3679  0.1881 -0.6109
  106OSM    O1210819   1.749   3.767  10.582 -0.3960 -0.3896 -0.1347
  106OSM    C1S10820   1.687   3.495  10.449 -0.7810  0.8596  0.2694
  106OSM    H1S10821   1.670   3.589  10.391  1.8444 -1.0529 -3.8676
  106OSM    H1T10822   1.590   3.447  10.470 -2.1639  2.1763 -2.7077
  106OSM     NF10823   1.730   3.382  10.226 -0.1385  0.4910 -0.9634
  106OSM    HNF10824   1.673   3.303  10.205 -0.9388 -0.1077  3.0540
  106OSM    C2S10825   1.773   3.397  10.370  0.4181 -0.1798 -0.1441
  106OSM    H2S10826   1.880   3.428  10.363 -0.0425  1.2122 -1.3195
  106OSM    C3S10827   1.770   3.264  10.443  0.1615 -0.1982  0.2436
  106OSM    H3S10828   1.666   3.227  10.456 -0.7245  1.1780 -2.5236
  106OSM     O310829   1.821   3.276  10.574  0.1944 -0.0382 -0.1738
  106OSM    HO310830   1.807   3.369  10.593  0.5671 -0.4226  2.1236
  106OSM    C4S10831   1.850   3.157  10.371  0.7591  0.4776 -0.1777
  106OSM    H4S10832   1.959   3.178  10.372  0.2872  3.1841  0.5752
  106OSM    C5S10833   1.801   3.038  10.327 -0.4057 -0.2161 -0.0636
  106OSM    H5S10834   1.697   3.005  10.341 -0.3562 -0.1840  0.3816
  106OSM    C6S10835   1.890   2.941  10.252 -0.1961  0.3170 -0.0068
  106OSM    H6S10836   1.875   2.835  10.283  1.9624  0.3786  1.3440
  106OSM    H6T10837   1.999   2.950  10.270  0.0532 -3.0708  0.4696
  106OSM    C7S10838   1.867   2.949  10.099  0.1594 -0.5081  0.1977
  106OSM    H7S10839   1.905   3.051  10.076 -0.3285  0.0908  2.0026
  106OSM    H7T10840   1.764   2.938  10.059  0.6593  0.5871 -1.4831
  106OSM    C8S10841   1.970   2.864  10.017 -0.0699 -0.7612  0.4626
  106OSM    H8S10842   1.968   2.758  10.050  1.6130 -2.1032 -3.4181
  106OSM    H8T10843   2.070   2.909  10.035  0.1130 -1.5157  1.3975
  106OSM    C9S10844   1.931   2.868   9.865  0.8091 -0.0219  0.3563
  106OSM    H9S10845   1.924   2.975   9.833 -1.1361  0.0025  0.7980
  106OSM    H9T10846   1.826   2.833   9.851  0.7819 -0.0207  0.5633
  106OSM   C10S10847   2.041   2.803   9.789 -0.0927 -0.2138  0.7312
  106OSM   H10S10848   2.049   2.693   9.802 -2.4461 -0.8301 -2.3118
  106OSM   H10T10849   2.140   2.847   9.814 -0.0456  0.4490 -0.5471
  106OSM   C11S10850   2.014   2.822   9.636  0.4082 -0.4957  0.4672
  106OSM   H11S10851   1.985   2.927   9.615  2.2793 -0.2332 -0.9329
  106OSM   H11T10852   1.933   2.757   9.597  0.9606 -0.3724 -0.9191
  106OSM   C12S10853   2.133   2.821   9.542  0.4350  0.1963 -0.7105
  106OSM   H12S10854   2.163   2.717   9.519 -0.8320 -0.8865  2.2356
  106OSM   H12T10855   2.221   2.854   9.602  0.5709 -0.0517 -0.7727
  106OSM   C13S10856   2.116   2.882   9.401 -0.4165  0.5431  0.2519
  106OSM   H13S10857   2.095   2.990   9.410  1.3437  1.0123 -1.0752
  106OSM   H13T10858   2.035   2.831   9.345  2.1165 -3.4269 -0.0403
  106OSM   C14S10859   2.247   2.868   9.313  0.3168  0.1809  0.2879
  106OSM   H14S10860   2.280   2.762   9.313  3.4167  1.0870  1.5133
  106OSM   H14T10861   2.335   2.910   9.366 -0.0648  1.6327 -0.2077
  106OSM   C15S10862   2.241   2.918   9.169  0.3726 -0.9288 -0.0513
  106OSM   H15S10863   2.223   3.028   9.162  0.0765 -0.8680  1.4340
  106OSM   H15T10864   2.166   2.864   9.108  0.6133  0.4959 -1.6454
  106OSM   C16S10865   2.372   2.899   9.092  0.0576 -0.3745  0.0708
  106OSM   H16S10866   2.411   2.796   9.099  2.5779  0.5332 -0.2993
  106OSM   H16T10867   2.452   2.951   9.148 -0.3409  0.1450  0.1664
  106OSM   C17S10868   2.380   2.942   8.949  0.6095  0.8198 -0.2244
  106OSM   H17S10869   2.484   2.920   8.914  0.5352 -0.6757  0.4455
  106OSM   H17T10870   2.363   3.052   8.956  1.7370  1.0191 -0.4617
  106OSM   C18S10871   2.276   2.886   8.850 -0.6225  0.0197  0.2287
  106OSM   H18S10872   2.170   2.913   8.870  0.1367  1.7523  2.0739
  106OSM   H18T10873   2.286   2.776   8.836 -0.0095  0.1688 -0.5339
  106OSM   H18U10874   2.298   2.914   8.745 -1.0281 -0.1366  0.1024
  106OSM    C1F10875   1.739   3.472  10.126  0.0982 -1.3889 -0.1128
  106OSM     OF10876   1.810   3.570  10.137 -0.3001  0.4346  0.0515
  106OSM    C2F10877   1.646   3.441  10.009 -0.5513 -0.0402  0.4027
  106OSM    H2F10878   1.538   3.467  10.022 -0.3015  1.2718 -0.1125
  106OSM    H2G10879   1.652   3.331   9.992  0.2918 -0.2743  2.2012
  106OSM    C3F10880   1.703   3.511   9.888  0.4386 -0.3223  0.1111
  106OSM    H3F10881   1.803   3.466   9.871  0.0411 -0.2946 -2.5233
  106OSM    H3G10882   1.715   3.620   9.906  1.1111 -0.5404  0.9999
  106OSM    C4F10883   1.612   3.492   9.769  0.0508  0.3556 -0.8145
  106OSM    H4F10884   1.521   3.553   9.785  0.1261  0.2424  0.0582
  106OSM    H4G10885   1.587   3.385   9.751 -0.0855 -0.0695  1.7073
  106OSM    C5F10886   1.672   3.541   9.625 -0.1949  0.2397 -0.2099
  106OSM    H5F10887   1.606   3.500   9.545 -0.5127 -1.2873  0.8285
  106OSM    H5G10888   1.766   3.481   9.618  1.4815  2.3266  3.1633
  106OSM    C6F10889   1.716   3.684   9.607 -0.3988 -0.0000  0.4033
  106OSM    H6F10890   1.779   3.726   9.689  0.0608  1.4324 -0.6467
  106OSM    H6G10891   1.622   3.744   9.608  0.4151  1.3786 -1.4151
  106OSM    C7F10892   1.788   3.718   9.474 -0.8354  0.0116  0.8912
  106OSM    H7F10893   1.727   3.675   9.391  0.5409  0.1428 -0.2069
  106OSM    H7G10894   1.885   3.663   9.476 -1.4970 -1.2476 -0.3220
  106OSM    C8F10895   1.799   3.871   9.450  0.4672 -0.1268 -0.7417
  106OSM    H8F10896   1.893   3.909   9.497 -0.2936 -0.2714  0.9390
  106OSM    H8G10897   1.714   3.925   9.497  1.4909  0.1397  0.8787
  106OSM    C9F10898   1.802   3.899   9.302  0.5761  0.0458 -1.0183
  106OSM    H9F10899   1.843   3.814   9.246  1.4614 -1.6503  2.0582
  106OSM   C10F10900   1.760   4.008   9.235  0.8220  0.3578 -0.3457
  106OSM   H10F10901   1.751   4.020   9.126 -1.2339  0.5605 -0.1701
  106OSM   C11F10902   1.713   4.129   9.310  0.5833 -0.7276  0.0117
  106OSM   H11F10903   1.703   4.119   9.420  0.5292  1.9748  0.2889
  106OSM   H11G10904   1.610   4.164   9.286  0.5586 -0.2396  0.7909
  106OSM   C12F10905   1.805   4.248   9.295 -0.5691 -0.4337 -0.2554
  106OSM   H12F10906   1.828   4.279   9.191 -1.8963  1.1859 -0.0802
  106OSM   H12G10907   1.901   4.219   9.341 -1.4699 -0.7424  1.4736
  106OSM   C13F10908   1.739   4.364   9.379  0.9766  0.3392 -0.1304
  106OSM   H13F10909   1.801   4.456   9.378  0.9327  0.3593 -1.0862
  106OSM   H13G10910   1.744   4.339   9.487 -0.1243 -1.4810 -0.4748
  106OSM   C14F10911   1.585   4.402   9.351  0.3810 -0.1372 -0.5280
  106OSM   H14F10912   1.562   4.487   9.419 -0.2637 -0.9837  0.3155
  106OSM   H14G10913   1.530   4.314   9.388  0.4110  0.2141  0.3738
  106OSM   C15F10914   1.560   4.447   9.209  0.2844  0.4225 -0.2348
  106OSM   H15F10915   1.588   4.376   9.129 -0.7382 -1.7551  1.2732
  106OSM   H15G10916   1.624   4.535   9.184  0.8494 -0.3904 -1.6988
  106OSM   C16F10917   1.414   4.484   9.182 -0.1085  0.3866 -0.4544
  106OSM   H16F10918   1.359   4.542   9.258 -0.4855 -1.6578  0.8876
  106OSM   H16G10919   1.357   4.389   9.174 -1.6392  1.2108  0.5491
  106OSM   C17F10920   1.375   4.562   9.055  0.2437  0.7267 -0.4111
  106OSM   H17F10921   1.403   4.501   8.967 -1.9715 -0.9824  0.0313
  106OSM   H17G10922   1.441   4.652   9.054 -2.0273  2.4393 -0.7774
  106OSM   C18F10923   1.227   4.608   9.053 -0.4277  0.3699 -0.9540
  106OSM   H18F10924   1.202   4.675   9.139 -0.2999 -1.0215  0.1828
  106OSM   H18G10925   1.166   4.516   9.058  0.9436 -0.4503  1.8029
  106OSM   H18H10926   1.204   4.670   8.963 -2.0982  1.4072  0.1509
  107OSM      N10927   1.975   1.264  10.875  0.2429 -0.3164  0.0969
  107OSM    C1510928   2.070   1.274  10.996  0.5168 -0.6004  0.3812
  107OSM   H15A10929   2.111   1.178  11.025  0.3709 -0.1302  2.1671
  107OSM   H15B10930   2.025   1.318  11.083  0.2256 -1.7948  0.8421
  107OSM   H15C10931   2.151   1.342  10.975 -1.4088  1.2566 -1.2362
  107OSM    C1410932   1.859   1.174  10.907  0.1345  0.0298 -0.1062
  107OSM   H14A10933   1.819   1.136  10.814 -1.3228  0.2222  0.4211
  107OSM   H14B10934   1.780   1.222  10.964  0.5218  0.0341  0.4330
  107OSM   H14C10935   1.898   1.087  10.958 -1.3759 -0.8393 -0.3921
  107OSM    C1310936   1.922   1.406  10.854  0.0363  0.7187  0.0493
  107OSM   H13A10937   1.854   1.411  10.770  0.0165 -2.9282 -0.2532
  107OSM   H13B10938   2.003   1.477  10.843  1.1207 -0.5747 -0.4669
  107OSM   H13C10939   1.866   1.441  10.940 -1.7813 -0.3967 -0.6538
  107OSM    C1210940   2.051   1.220  10.754 -0.8367  0.0492 -0.5657
  107OSM   H12A10941   1.978   1.186  10.682 -2.1469  0.9205  0.3270
  107OSM   H12B10942   2.108   1.133  10.780  1.0687  1.7037  1.0309
  107OSM    C1110943   2.142   1.331  10.689 -0.3826  0.3400  0.0263
  107OSM   H11A10944   2.078   1.420  10.667 -1.3161 -0.4722 -0.5911
  107OSM   H11B10945   2.185   1.293  10.594  1.0815  1.2100  0.3237
  107OSM      P10946   2.378   1.285  10.782  0.0485 -0.2251 -0.5177
  107OSM    O1310947   2.486   1.382  10.822  0.4817 -0.2273 -0.5377
  107OSM    O1410948   2.358   1.163  10.861  0.4680 -0.3720 -0.3215
  107OSM    O1110949   2.406   1.243  10.636 -0.5393  0.2457 -0.1572
  107OSM    O1210950   2.251   1.364  10.775 -0.2654 -0.2018 -0.2698
  107OSM    C1S10951   2.450   1.106  10.614  0.1882 -0.3190 -0.0945
  107OSM    H1S10952   2.360   1.042  10.611  0.8445 -1.2725  0.1708
  107OSM    H1T10953   2.507   1.060  10.697  0.2096  0.5599  0.3841
  107OSM     NF10954   2.585   0.949  10.479  0.5366  0.0104 -0.4762
  107OSM    HNF10955   2.681   0.940  10.504  0.7210  1.0698 -0.7737
  107OSM    C2S10956   2.532   1.085  10.485  0.0695 -0.0921 -0.0507
  107OSM    H2S10957   2.469   1.108  10.397 -1.3593  1.0779  1.2493
  107OSM    C3S10958   2.644   1.197  10.488  0.3099  0.3537 -0.4498
  107OSM    H3S10959   2.717   1.176  10.569  1.6601 -0.8695 -1.9397
  107OSM     O310960   2.616   1.336  10.518  0.6956 -0.8591  0.4764
  107OSM    HO310961   2.527   1.334  10.554  0.6402 -0.0293  0.4036
  107OSM    C4S10962   2.718   1.190  10.358 -0.4188  0.4483  0.4925
  107OSM    H4S10963   2.810   1.130  10.358 -0.9538 -0.3897  1.5172
  107OSM    C5S10964   2.679   1.249  10.240  0.2944 -0.3902  0.6140
  107OSM    H5S10965   2.589   1.313  10.245  0.5234  0.1493 -1.5012
  107OSM    C6S10966   2.738   1.229  10.108 -0.3770 -0.3294 -0.2970
  107OSM    H6S10967   2.694   1.303  10.038 -3.7151 -1.9656 -0.0200
  107OSM    H6T10968   2.701   1.130  10.077 -1.4952  0.1619 -0.5445
  107OSM    C7S10969   2.893   1.213  10.084 -0.2662 -0.3754  0.4630
  107OSM    H7S10970   2.920   1.116  10.131 -1.0622 -0.7615  0.1470
  107OSM    H7T10971   2.941   1.291  10.146  1.3849 -0.1957 -0.9748
  107OSM    C8S10972   2.937   1.213   9.935 -0.1079  0.0131  0.8313
  107OSM    H8S10973   2.872   1.169   9.857  3.4985  1.2255 -3.0393
  107OSM    H8T10974   3.032   1.156   9.933 -0.6251 -0.8226 -0.2447
  107OSM    C9S10975   2.958   1.360   9.901  0.6699  0.1153  0.2896
  107OSM    H9S10976   3.046   1.390   9.961  0.6512  1.0789 -0.1595
  107OSM    H9T10977   2.869   1.412   9.943  0.1458 -0.6277  0.1277
  107OSM   C10S10978   2.975   1.374   9.754 -0.2287 -0.4400  0.0108
  107OSM   H10S10979   2.951   1.480   9.730  2.1121  0.5965  1.9721
  107OSM   H10T10980   2.904   1.307   9.702 -1.7338  1.5753 -0.5662
  107OSM   C11S10981   3.120   1.333   9.703  0.0756 -0.6941  0.2831
  107OSM   H11S10982   3.160   1.261   9.777  1.0558 -1.0771 -0.6107
  107OSM   H11T10983   3.188   1.421   9.708 -1.5138  0.6556 -1.2467
  107OSM   C12S10984   3.125   1.282   9.560  0.1703  0.0870  0.3447
  107OSM   H12S10985   3.051   1.201   9.546  0.6041 -0.1224 -0.7971
  107OSM   H12T10986   3.225   1.238   9.540  1.1026  1.5475  1.6277
  107OSM   C13S10987   3.088   1.391   9.454  0.4624  0.3635  0.3981
  107OSM   H13S10988   3.157   1.478   9.466  0.5536  0.5905 -1.6065
  107OSM   H13T10989   2.981   1.422   9.453 -0.0796 -1.4740  0.1069
  107OSM   C14S10990   3.134   1.338   9.314 -0.5383  0.1992  0.4810
  107OSM   H14S10991   3.239   1.303   9.322 -0.2981  0.9708  0.7546
  107OSM   H14T10992   3.148   1.433   9.258  0.5292  2.2653  4.1158
  107OSM   C15S10993   3.042   1.240   9.239 -0.8456 -0.3532 -0.4463
  107OSM   H15S10994   2.940   1.279   9.216 -0.4761  0.3867 -0.8269
  107OSM   H15T10995   3.046   1.141   9.288  2.4767 -0.0416 -0.0109
  107OSM   C16S10996   3.104   1.220   9.097 -0.5996  0.1002  0.4394
  107OSM   H16S10997   3.213   1.196   9.093 -0.6563 -0.5103  2.1290
  107OSM   H16T10998   3.087   1.317   9.044 -0.5362  0.2830  0.7507
  107OSM   C17S10999   3.032   1.114   9.009 -0.3253 -0.2071 -0.1613
  107OSM   H17S11000   2.924   1.110   9.034 -0.5540 -0.3176 -1.1354
  107OSM   H17T11001   3.065   1.010   9.029 -1.4561 -1.0909 -2.5979
  107OSM   C18S11002   3.046   1.130   8.859  0.6745  0.1474 -0.4285
  107OSM   H18S11003   3.024   1.232   8.821  0.8975  0.7730  1.0802
  107OSM   H18T11004   2.971   1.063   8.812 -1.3825  2.2737 -0.2864
  107OSM   H18U11005   3.142   1.087   8.824  0.9967 -0.6477  1.3397
  107OSM    C1F11006   2.511   0.846  10.455  0.1416 -0.8873  0.7257
  107OSM     OF11007   2.389   0.858  10.453 -0.7302 -0.0664 -0.2899
  107OSM    C2F11008   2.572   0.720  10.436 -0.8987  0.3547  0.0187
  107OSM    H2F11009   2.512   0.640  10.484  1.0428 -0.6029  0.9004
  107OSM    H2G11010   2.673   0.721  10.482 -1.2025 -0.8633  0.7295
  107OSM    C3F11011   2.587   0.693  10.284 -0.2200  0.9250  0.1667
  107OSM    H3F11012   2.486   0.707  10.242 -0.8548 -0.9667  1.0036
  107OSM    H3G11013   2.619   0.589  10.262 -0.9356  0.6769  0.2953
  107OSM    C4F11014   2.682   0.789  10.211  0.7337 -0.8689  0.3615
  107OSM    H4F11015   2.779   0.805  10.263  1.0706 -0.5233 -0.3714
  107OSM    H4G11016   2.627   0.886  10.203 -2.0710 -2.5542 -1.6267
  107OSM    C5F11017   2.700   0.739  10.067 -0.3366 -0.0979  0.7855
  107OSM    H5F11018   2.602   0.703  10.029 -1.1569  2.6761  0.1833
  107OSM    H5G11019   2.766   0.649  10.070  0.5082  0.4029 -1.4753
  107OSM    C6F11020   2.764   0.843   9.976  0.5876  0.8043 -0.3732
  107OSM    H6F11021   2.845   0.894  10.032 -0.4528 -0.1535  2.0595
  107OSM    H6G11022   2.695   0.924   9.944 -0.3107 -0.0678 -0.6830
  107OSM    C7F11023   2.820   0.783   9.842 -0.1625 -0.0798  0.5314
  107OSM    H7F11024   2.742   0.742   9.774 -1.0614 -0.9287  2.0275
  107OSM    H7G11025   2.875   0.692   9.876 -0.6732 -0.4871  0.2860
  107OSM    C8F11026   2.902   0.891   9.766  0.0217 -0.2533 -0.5367
  107OSM    H8F11027   2.993   0.903   9.827  0.9855  0.0046 -2.0009
  107OSM    H8G11028   2.851   0.990   9.763 -0.2689 -0.3881 -0.1712
  107OSM    C9F11029   2.950   0.832   9.641 -0.5271 -0.6522 -0.2413
  107OSM    H9F11030   3.022   0.749   9.654  0.4241 -0.2676 -2.8509
  107OSM   C10F11031   2.914   0.851   9.513 -0.6257 -0.1366 -0.1565
  107OSM   H10F11032   2.972   0.790   9.442 -1.6252  0.3590 -1.4097
  107OSM   C11F11033   2.809   0.946   9.461 -0.5467 -0.2766 -0.3554
  107OSM   H11F11034   2.856   1.024   9.397 -1.1350 -1.2419 -1.9793
  107OSM   H11G11035   2.750   0.993   9.542  1.1613 -0.9899  1.3463
  107OSM   C12F11036   2.710   0.866   9.365 -0.1127  0.1844 -0.3526
  107OSM   H12F11037   2.629   0.938   9.342 -2.4586 -2.6628 -1.1602
  107OSM   H12G11038   2.662   0.779   9.414  0.6089  1.3259  2.5086
  107OSM   C13F11039   2.770   0.819   9.237 -0.1937  0.2317 -0.0675
  107OSM   H13F11040   2.840   0.735   9.258 -1.2188 -0.5792  0.1714
  107OSM   H13G11041   2.834   0.897   9.192  0.9133 -0.3286  0.5301
  107OSM   C14F11042   2.677   0.768   9.122 -0.4433 -0.6149  0.0701
  107OSM   H14F11043   2.598   0.838   9.086 -3.7496 -3.1453  2.0716
  107OSM   H14G11044   2.615   0.690   9.171 -0.6370 -1.0173 -0.8182
  107OSM   C15F11045   2.757   0.710   9.007 -0.3644 -0.2542  0.3400
  107OSM   H15F11046   2.697   0.654   8.933  3.0291 -2.1155 -1.1074
  107OSM   H15G11047   2.822   0.626   9.040 -0.8430 -0.8033 -0.1088
  107OSM   C16F11048   2.849   0.806   8.928 -0.3255 -0.1267  0.3551
  107OSM   H16F11049   2.943   0.829   8.983 -1.3003  2.3494  1.0472
  107OSM   H16G11050   2.798   0.904   8.914  0.3003 -0.0075 -1.1788
  107OSM   C17F11051   2.885   0.738   8.791  0.3812 -0.1229  0.3673
  107OSM   H17F11052   2.896   0.628   8.808 -0.2409 -0.2523 -0.0428
  107OSM   H17G11053   2.987   0.777   8.772  2.0280 -3.1685  2.4555
  107OSM   C18F11054   2.784   0.760   8.681  1.0523 -0.4354  0.0637
  107OSM   H18F11055   2.686   0.715   8.710 -0.2068  1.3300 -1.2869
  107OSM   H18G11056   2.831   0.719   8.588 -1.9176  1.0062 -2.1709
  107OSM   H18H11057   2.775   0.870   8.666 -1.8140 -0.7932 -1.2676
  108OSM      N11058   6.153   5.209  11.090 -0.5003  0.6536 -0.3905
  108OSM    C1511059   6.003   5.239  11.099 -0.0512  0.6999  0.4456
  108OSM   H15A11060   5.992   5.320  11.170  0.2208 -0.5125  1.9074
  108OSM   H15B11061   5.959   5.150  11.141  0.5055  0.4304  0.4715
  108OSM   H15C11062   5.962   5.262  11.002  1.2849 -2.3988 -0.9529
  108OSM    C1411063   6.205   5.170  11.230  0.1313  0.0738 -0.3837
  108OSM   H14A11064   6.302   5.123  11.219 -0.9368 -1.6883 -2.3376
  108OSM   H14B11065   6.144   5.101  11.287  0.1593 -0.4935 -1.0367
  108OSM   H14C11066   6.217   5.252  11.300  0.6128  0.9562 -1.4815
  108OSM    C1311067   6.179   5.084  10.998 -0.1533 -0.6093  0.2938
  108OSM   H13A11068   6.167   4.995  11.058  1.7750 -0.7644  0.4826
  108OSM   H13B11069   6.281   5.097  10.964 -1.1057 -1.1342 -2.8332
  108OSM   H13C11070   6.119   5.097  10.910 -2.7891 -1.9463  1.8285
  108OSM    C1211071   6.230   5.329  11.046  0.0532 -0.3706  0.1255
  108OSM   H12A11072   6.195   5.416  11.099  0.0297  0.0972 -0.6483
  108OSM   H12B11073   6.214   5.352  10.941 -0.4680 -0.5868  0.1589
  108OSM    C1111074   6.388   5.318  11.066 -0.4360  0.2872  0.4234
  108OSM   H11A11075   6.428   5.216  11.048 -3.2840 -0.9678  1.1339
  108OSM   H11B11076   6.398   5.338  11.174 -0.2094  0.2501  0.4088
  108OSM      P11077   6.528   5.391  10.852  0.0603 -0.3124  0.1558
  108OSM    O1311078   6.528   5.508  10.766 -0.1821  0.0779  0.4212
  108OSM    O1411079   6.656   5.343  10.884 -0.6454  0.0793 -0.7008
  108OSM    O1111080   6.440   5.282  10.784  0.0937 -0.0112  0.2682
  108OSM    O1211081   6.450   5.430  10.991 -0.7888 -0.4412  1.2895
  108OSM    C1S11082   6.324   5.320  10.701 -0.1880 -0.3068  0.5257
  108OSM    H1S11083   6.293   5.427  10.695 -0.5686 -0.5336 -2.3949
  108OSM    H1T11084   6.238   5.268  10.747 -0.4863  0.2574  0.6181
  108OSM     NF11085   6.212   5.302  10.474 -0.7561  0.2181  0.3448
  108OSM    HNF11086   6.153   5.230  10.438  0.4172 -1.0603  0.8956
  108OSM    C2S11087   6.335   5.268  10.553  0.3270 -0.2428  0.1161
  108OSM    H2S11088   6.419   5.327  10.509 -0.4264  2.3584  2.0132
  108OSM    C3S11089   6.369   5.118  10.551 -0.2404 -0.0666  0.3457
  108OSM    H3S11090   6.287   5.059  10.597 -1.4384  0.5844 -0.9237
  108OSM     O311091   6.486   5.090  10.626 -0.2332 -0.5768  0.0011
  108OSM    HO311092   6.499   5.176  10.666  1.8708  0.4994 -2.8634
  108OSM    C4S11093   6.396   5.087  10.410  0.5178 -0.3479 -0.1441
  108OSM    H4S11094   6.504   5.102  10.392  0.6076  0.5771  1.0793
  108OSM    C5S11095   6.327   5.028  10.316  0.1748  0.3372  0.2372
  108OSM    H5S11096   6.230   4.980  10.336  0.5192 -1.2823 -1.7759
  108OSM    C6S11097   6.375   5.000  10.176  0.9226  0.2478 -1.0765
  108OSM    H6S11098   6.381   4.892  10.154 -4.4282 -0.4160 -0.0441
  108OSM    H6T11099   6.464   5.058  10.144  0.7887  0.6630 -0.7154
  108OSM    C7S11100   6.266   5.048  10.088 -0.1748 -0.5660 -0.3249
  108OSM    H7S11101   6.245   5.157  10.088 -4.2014 -1.2567 -2.1781
  108OSM    H7T11102   6.167   5.002  10.112 -0.6726  0.0683 -1.1409
  108OSM    C8S11103   6.298   5.014   9.942 -0.2345 -0.1497 -0.5207
  108OSM    H8S11104   6.314   4.905   9.930 -2.3313 -0.2054 -3.2672
  108OSM    H8T11105   6.379   5.081   9.904 -0.8541  0.1149 -1.3861
  108OSM    C9S11106   6.177   5.042   9.847 -0.3150  0.9939 -0.3974
  108OSM    H9S11107   6.122   5.132   9.880  0.6927  1.4707 -0.0054
  108OSM    H9T11108   6.096   4.967   9.858  1.7506 -1.0889  1.0710
  108OSM   C10S11109   6.224   5.060   9.695 -0.1805  0.0389  0.0365
  108OSM   H10S11110   6.283   4.970   9.666  0.5573 -0.3826  2.7216
  108OSM   H10T11111   6.283   5.152   9.677  0.4654 -0.1637  1.0756
  108OSM   C11S11112   6.106   5.049   9.600  0.5326 -0.1095 -0.0026
  108OSM   H11S11113   6.033   5.131   9.616  1.2438  0.1892  1.8188
  108OSM   H11T11114   6.045   4.958   9.619 -0.5269  0.4430 -0.6680
  108OSM   C12S11115   6.155   5.066   9.451 -0.2444 -0.3262  1.0194
  108OSM   H12S11116   6.218   4.981   9.416 -2.5370 -1.4544 -0.5750
  108OSM   H12T11117   6.224   5.151   9.435  0.1345 -1.0712 -1.6599
  108OSM   C13S11118   6.047   5.100   9.346 -0.1664 -0.0250 -0.1669
  108OSM   H13S11119   6.081   5.139   9.247 -3.6179  1.6946 -0.7333
  108OSM   H13T11120   5.985   5.184   9.383 -1.2253 -0.1161 -1.6714
  108OSM   C14S11121   5.952   4.982   9.316  0.6666 -0.2752 -0.0809
  108OSM   H14S11122   5.885   4.973   9.404 -0.6977 -0.4806 -1.1301
  108OSM   H14T11123   6.012   4.889   9.316  0.4072 -0.5260 -4.5960
  108OSM   C15S11124   5.872   5.001   9.191 -0.2324  0.4993 -0.3027
  108OSM   H15S11125   5.843   4.901   9.154 -0.7282  0.4183  0.2872
  108OSM   H15T11126   5.934   5.039   9.108 -0.1379 -0.1766 -0.5414
  108OSM   C16S11127   5.748   5.094   9.210  0.1407 -0.0454 -0.1925
  108OSM   H16S11128   5.788   5.186   9.259 -2.5649  0.5464  1.0125
  108OSM   H16T11129   5.672   5.048   9.278 -0.3648  1.0093 -0.0263
  108OSM   C17S11130   5.667   5.119   9.073 -0.2856 -0.3991  0.2967
  108OSM   H17S11131   5.747   5.152   9.003 -1.9493  3.0113 -0.1191
  108OSM   H17T11132   5.601   5.208   9.085  0.7112  0.1387  2.0113
  108OSM   C18S11133   5.594   4.996   9.014 -0.3339 -0.0025 -0.3268
  108OSM   H18S11134   5.673   4.921   8.991 -0.1178 -0.6372  2.2472
  108OSM   H18T11135   5.548   5.036   8.921 -3.3082  0.8782  1.4228
  108OSM   H18U11136   5.518   4.955   9.084  1.4357 -2.0292  0.4588
  108OSM    C1F11137   6.180   5.429  10.453 -0.3734 -0.1130 -0.2327
  108OSM     OF11138   6.256   5.520  10.485 -0.0806  0.0468 -0.7424
  108OSM    C2F11139   6.041   5.456  10.404 -0.0788  0.0676  0.1823
  108OSM    H2F11140   6.031   5.567  10.402 -0.3312  0.0442  0.0707
  108OSM    H2G11141   5.977   5.392  10.468 -2.3004  0.9243 -1.1151
  108OSM    C3F11142   6.008   5.403  10.265 -0.2529  0.2218 -0.0885
  108OSM    H3F11143   5.897   5.411  10.259 -0.0108  2.8759 -1.8019
  108OSM    H3G11144   6.023   5.293  10.272 -1.8479  0.0795  1.3612
  108OSM    C4F11145   6.088   5.451  10.151  0.0226  0.5103  0.1551
  108OSM    H4F11146   6.195   5.427  10.168 -0.5084 -1.5511  0.7695
  108OSM    H4G11147   6.074   5.561  10.144 -1.5499  0.5132  2.6963
  108OSM    C5F11148   6.028   5.389  10.024 -0.7520 -0.0829  0.6686
  108OSM    H5F11149   5.920   5.415  10.026 -1.1590 -1.7167  0.4431
  108OSM    H5G11150   6.033   5.279  10.036 -1.0855 -0.2324 -0.5183
  108OSM    C6F11151   6.081   5.460   9.897 -0.2013  0.1820  0.3140
  108OSM    H6F11152   6.186   5.437   9.871 -0.6716 -0.6340 -0.9517
  108OSM    H6G11153   6.062   5.568   9.913  2.2976  0.6477  0.2383
  108OSM    C7F11154   5.995   5.417   9.776 -0.1609 -0.4205  0.1528
  108OSM    H7F11155   5.888   5.442   9.796  0.2117 -0.1860  1.9175
  108OSM    H7G11156   6.015   5.309   9.762  0.4596 -0.3513  0.4751
  108OSM    C8F11157   6.039   5.474   9.640  0.3179 -0.1058 -0.9716
  108OSM    H8F11158   6.011   5.409   9.555  2.1319 -1.7415 -0.3800
  108OSM    H8G11159   6.149   5.456   9.647  0.6560  1.9783 -0.6721
  108OSM    C9F11160   5.992   5.615   9.616 -0.1739 -0.5960  0.8115
  108OSM    H9F11161   6.004   5.679   9.705  1.4167 -1.5025  1.2808
  108OSM   C10F11162   5.928   5.661   9.510  0.8421  0.1420  0.3139
  108OSM   H10F11163   5.877   5.758   9.514 -0.2242 -0.3016 -1.8494
  108OSM   C11F11164   5.906   5.595   9.374 -0.2941 -0.4427 -0.7058
  108OSM   H11F11165   5.821   5.634   9.314 -2.2491  0.2422  2.3709
  108OSM   H11G11166   5.888   5.487   9.394  0.6879 -0.4141  0.4008
  108OSM   C12F11167   6.038   5.588   9.291 -0.3040 -0.3297 -0.0752
  108OSM   H12F11168   6.114   5.537   9.354  0.2242 -1.2418 -1.4202
  108OSM   H12G11169   6.066   5.691   9.260 -1.4852  0.2236  0.6741
  108OSM   C13F11170   6.019   5.498   9.168  0.9599 -0.6061  0.0216
  108OSM   H13F11171   6.008   5.388   9.181  0.9271 -0.7702 -1.3203
  108OSM   H13G11172   6.119   5.504   9.119  2.0767  2.7487  2.5170
  108OSM   C14F11173   5.911   5.537   9.060 -0.3322 -0.9684 -0.4754
  108OSM   H14F11174   5.944   5.631   9.013  0.3708  0.1083  2.0888
  108OSM   H14G11175   5.810   5.540   9.106 -1.1003 -0.4423 -2.1680
  108OSM   C15F11176   5.898   5.438   8.943  0.3400 -0.2367 -0.3380
  108OSM   H15F11177   5.888   5.333   8.978 -2.0644  1.1005  3.3553
  108OSM   H15G11178   5.997   5.447   8.894  0.9573  0.5970  1.0556
  108OSM   C16F11179   5.791   5.459   8.827  0.1776 -0.0142 -0.6186
  108OSM   H16F11180   5.693   5.440   8.874  0.3610  0.1649 -0.1587
  108OSM   H16G11181   5.801   5.385   8.745  0.2857 -0.1957 -0.4436
  108OSM   C17F11182   5.783   5.602   8.767 -0.0294 -0.1747  0.0772
  108OSM   H17F11183   5.885   5.640   8.743 -0.5184 -0.5764 -2.7283
  108OSM   H17G11184   5.753   5.669   8.850 -2.8182 -2.7440  1.2326
  108OSM   C18F11185   5.679   5.611   8.645  0.0531  0.4340 -0.0808
  108OSM   H18F11186   5.580   5.580   8.683 -0.3919  1.4981 -0.3411
  108OSM   H18G11187   5.713   5.540   8.566 -1.2112 -1.0057  0.6607
  108OSM   H18H11188   5.678   5.717   8.612 -0.7790 -0.1100 -1.8995
  109OSM      N11189   0.060   5.759  10.818  0.0821 -0.1964  0.1755
  109OSM    C1511190   0.169   5.694  10.739 -0.0730 -0.0945 -0.2059
  109OSM   H15A11191   0.262   5.676  10.789  0.5391 -0.8395 -1.5836
  109OSM   H15B11192   0.193   5.751  10.650  0.0754 -1.3864 -0.9933
  109OSM   H15C11193   0.133   5.603  10.695 -4.2841  1.7775 -0.9230
  109OSM    C1411194  -0.053   5.783  10.724  0.4590  0.7007  0.7874
  109OSM   H14A11195  -0.030   5.845  10.639 -0.9369  1.0261  0.6327
  109OSM   H14B11196  -0.118   5.845  10.786  1.6111  0.5171  2.2005
  109OSM   H14C11197  -0.100   5.691  10.695  2.0773  0.3122 -0.6128
  109OSM    C1311198   0.008   5.663  10.922 -0.4465 -0.6732  0.2539
  109OSM   H13A11199   0.095   5.613  10.964  1.0233  0.6997 -1.0836
  109OSM   H13B11200  -0.042   5.587  10.865 -1.2216  1.1278 -1.5160
  109OSM   H13C11201  -0.058   5.701  10.999 -1.2740  0.5644 -1.0381
  109OSM    C1211202   0.087   5.892  10.887 -0.0262 -0.0697  0.0131
  109OSM   H12A11203   0.181   5.887  10.940  1.3026  4.3742 -1.6703
  109OSM   H12B11204   0.020   5.923  10.966 -0.6796 -2.7200  0.5517
  109OSM    C1111205   0.111   6.013  10.795 -0.1557 -0.2195 -0.0593
  109OSM   H11A11206   0.191   5.978  10.726  1.2806 -1.6456  2.2597
  109OSM   H11B11207   0.152   6.102  10.847  0.6618  0.7515 -2.2953
  109OSM      P11208  -0.097   6.178  10.732 -0.1644  0.0070 -0.3894
  109OSM    O1311209  -0.223   6.126  10.800 -0.5511 -0.8205  0.3404
  109OSM    O1411210  -0.035   6.298  10.796  0.4755 -0.9338 -0.4148
  109OSM    O1111211  -0.115   6.205  10.581  0.4276 -0.0344  0.4290
  109OSM    O1211212   0.006   6.054  10.712 -0.0983  0.1689 -0.7722
  109OSM    C1S11213  -0.002   6.248  10.513  0.3688 -0.1301 -0.3397
  109OSM    H1S11214   0.080   6.173  10.516  1.3921  0.9870  0.1467
  109OSM    H1T11215   0.033   6.345  10.555 -3.0729  1.4398 -0.9384
  109OSM     NF11216   0.080   6.363  10.300  0.6403  0.3419  0.0436
  109OSM    HNF11217   0.072   6.462  10.289  2.4712  0.4076 -0.9708
  109OSM    C2S11218  -0.030   6.289  10.360 -0.3320  0.5116 -0.0758
  109OSM    H2S11219  -0.040   6.199  10.296  2.3372  0.0355  0.1037
  109OSM    C3S11220  -0.163   6.373  10.343  0.0092  0.5976  0.0447
  109OSM    H3S11221  -0.152   6.466  10.404 -3.1472 -0.5083  2.4658
  109OSM     O311222  -0.280   6.313  10.404  0.7799  0.1539  0.1529
  109OSM    HO311223  -0.249   6.238  10.455 -1.0857  1.0070  2.6567
  109OSM    C4S11224  -0.181   6.406  10.197  0.0922 -0.6823 -0.1208
  109OSM    H4S11225  -0.114   6.488  10.165 -2.3517  1.3869 -0.0635
  109OSM    C5S11226  -0.255   6.340  10.103 -0.4325  0.1748  0.7524
  109OSM    H5S11227  -0.327   6.260  10.129 -0.1665 -0.2525  0.1762
  109OSM    C6S11228  -0.272   6.385   9.960  0.0318 -0.0120  0.7308
  109OSM    H6S11229  -0.383   6.382   9.947  0.0898 -2.0576  0.5601
  109OSM    H6T11230  -0.222   6.311   9.894  1.6121  0.3437  1.5099
  109OSM    C7S11231  -0.204   6.517   9.913 -0.5123 -0.1710 -0.2461
  109OSM    H7S11232  -0.094   6.499   9.916 -0.4383  0.4385  2.2727
  109OSM    H7T11233  -0.219   6.587   9.998  1.0539 -0.0564 -0.0449
  109OSM    C8S11234  -0.255   6.570   9.783  0.3879  0.1184 -0.1851
  109OSM    H8S11235  -0.210   6.672   9.787  1.8105 -0.4484 -1.1509
  109OSM    H8T11236  -0.364   6.581   9.801  0.5093 -1.8734  1.9778
  109OSM    C9S11237  -0.216   6.483   9.670 -0.3196  0.5149 -0.2320
  109OSM    H9S11238  -0.251   6.380   9.692 -0.7330  0.7312  0.1535
  109OSM    H9T11239  -0.105   6.494   9.664 -0.0846 -1.1731  0.6974
  109OSM   C10S11240  -0.266   6.528   9.536  0.2078  0.0590  0.9627
  109OSM   H10S11241  -0.246   6.635   9.513  1.0036 -0.2374  0.2667
  109OSM   H10T11242  -0.376   6.515   9.539  0.2272 -0.5770 -0.4876
  109OSM   C11S11243  -0.213   6.444   9.420 -0.3560 -0.1730 -0.2022
  109OSM   H11S11244  -0.230   6.340   9.454 -0.6576  0.1426  0.6258
  109OSM   H11T11245  -0.109   6.485   9.416 -2.0777  4.4371 -0.8735
  109OSM   C12S11246  -0.283   6.461   9.281  0.1292  0.0904  0.0471
  109OSM   H12S11247  -0.271   6.569   9.257  0.9960 -0.3410 -1.4918
  109OSM   H12T11248  -0.391   6.436   9.282  0.3729 -1.0560 -1.3132
  109OSM   C13S11249  -0.224   6.388   9.167 -0.3428 -0.2484  0.5832
  109OSM   H13S11250  -0.222   6.278   9.185 -1.6313 -0.3718 -0.0128
  109OSM   H13T11251  -0.118   6.420   9.157  0.1374 -1.4194  1.7641
  109OSM   C14S11252  -0.291   6.423   9.034  0.7473  0.6259  0.1811
  109OSM   H14S11253  -0.315   6.531   9.037 -2.5743 -0.0916  1.4428
  109OSM   H14T11254  -0.384   6.364   9.043  0.5430  0.7039 -1.4459
  109OSM   C15S11255  -0.206   6.398   8.908  0.0611 -0.5982  0.4552
  109OSM   H15S11256  -0.112   6.456   8.904 -0.2610 -0.2227 -2.3453
  109OSM   H15T11257  -0.261   6.430   8.817  0.0482  0.9916  1.0055
  109OSM   C16S11258  -0.187   6.242   8.892  0.4057 -0.3678  0.2000
  109OSM   H16S11259  -0.293   6.213   8.877  0.3442 -0.2840  0.4638
  109OSM   H16T11260  -0.142   6.188   8.978  1.0916 -1.1869 -0.6559
  109OSM   C17S11261  -0.093   6.228   8.773  0.2895 -0.2506  0.1254
  109OSM   H17S11262   0.009   6.256   8.806  0.5543  1.1509 -1.8162
  109OSM   H17T11263  -0.107   6.309   8.698 -0.1195 -0.1014  0.3625
  109OSM   C18S11264  -0.098   6.090   8.700  0.4044 -0.3856 -0.0772
  109OSM   H18S11265  -0.065   6.006   8.764  1.2394  0.8539  1.1411
  109OSM   H18T11266  -0.035   6.090   8.608 -0.5725 -2.4536 -0.7814
  109OSM   H18U11267  -0.201   6.073   8.662 -0.6560 -0.1983  2.6157
  109OSM    C1F11268   0.200   6.308  10.274 -1.0017  0.3980  0.2712
  109OSM     OF11269   0.210   6.189  10.279  0.4187 -0.6223  0.0039
  109OSM    C2F11270   0.314   6.406  10.240  0.2026  0.7242  0.5914
  109OSM    H2F11271   0.385   6.409  10.325  2.7051  1.4776 -1.4640
  109OSM    H2G11272   0.268   6.506  10.224  1.2433  2.0275  4.9910
  109OSM    C3F11273   0.392   6.367  10.108  0.4364  0.6717  0.2838
  109OSM    H3F11274   0.426   6.261  10.113  1.1154  0.7988 -1.1707
  109OSM    H3G11275   0.481   6.433  10.107  0.1076  1.1182 -0.7256
  109OSM    C4F11276   0.308   6.410   9.988 -0.1609 -0.1562 -0.0177
  109OSM    H4F11277   0.262   6.510   9.999  0.8668  0.2005  1.1585
  109OSM    H4G11278   0.229   6.332   9.982 -0.3829  0.1056 -0.5298
  109OSM    C5F11279   0.394   6.404   9.859  0.5103  0.1763  0.2865
  109OSM    H5F11280   0.416   6.296   9.848 -1.0223  0.0047 -1.3010
  109OSM    H5G11281   0.488   6.463   9.865  0.6156 -0.0212  0.6030
  109OSM    C6F11282   0.303   6.439   9.736  0.2699  0.1919  0.0099
  109OSM    H6F11283   0.271   6.545   9.746  0.7391  0.2845  0.5833
  109OSM    H6G11284   0.213   6.374   9.733 -0.0524  0.6775 -0.9425
  109OSM    C7F11285   0.385   6.410   9.605 -0.2897  0.7612  0.1634
  109OSM    H7F11286   0.394   6.299   9.604 -0.0260  0.7888 -0.7862
  109OSM    H7G11287   0.489   6.449   9.614  0.1434 -0.1971 -0.5359
  109OSM    C8F11288   0.323   6.457   9.480  0.8400 -0.1905  0.3794
  109OSM    H8F11289   0.387   6.460   9.389  0.9554  0.8236  0.4847
  109OSM    H8G11290   0.305   6.566   9.489  1.2470 -0.2730  2.4826
  109OSM    C9F11291   0.190   6.400   9.453  0.7709 -0.3398 -0.2254
  109OSM    H9F11292   0.128   6.413   9.543  2.9017 -0.4328  1.2987
  109OSM   C10F11293   0.137   6.355   9.334  0.7823  0.2733  0.2883
  109OSM   H10F11294   0.038   6.308   9.333  1.3123 -0.9324  1.6737
  109OSM   C11F11295   0.202   6.347   9.201 -0.1124 -0.2459  0.3920
  109OSM   H11F11296   0.146   6.276   9.137  0.9744  1.8310 -3.0449
  109OSM   H11G11297   0.301   6.298   9.213  0.5919  0.7806 -1.1296
  109OSM   C12F11298   0.212   6.482   9.128  0.6011 -0.1271 -0.6823
  109OSM   H12F11299   0.265   6.558   9.189 -0.9550  0.8941 -0.5640
  109OSM   H12G11300   0.116   6.535   9.110  0.9322  0.4156 -0.8616
  109OSM   C13F11301   0.280   6.478   8.990  0.1846 -0.1164  0.3162
  109OSM   H13F11302   0.234   6.394   8.935 -2.7826  0.7976  1.3421
  109OSM   H13G11303   0.391   6.464   8.992  0.1469 -0.3916  0.5694
  109OSM   C14F11304   0.232   6.599   8.902  0.2215 -0.2724 -0.4248
  109OSM   H14F11305   0.281   6.688   8.946 -1.5671  1.4998 -1.9216
  109OSM   H14G11306   0.121   6.599   8.914  0.2302  2.2445 -0.2243
  109OSM   C15F11307   0.278   6.584   8.751  0.4500  0.1699  0.6280
  109OSM   H15F11308   0.255   6.685   8.711 -3.3258 -0.1167  1.9147
  109OSM   H15G11309   0.214   6.505   8.706  0.9256  0.7499 -1.0983
  109OSM   C16F11310   0.426   6.563   8.707 -0.0852 -0.4770 -0.0504
  109OSM   H16F11311   0.469   6.473   8.757  1.5152 -0.3205 -1.1167
  109OSM   H16G11312   0.483   6.642   8.760 -0.6554  1.7881 -2.7005
  109OSM   C17F11313   0.450   6.580   8.560 -0.8735 -0.6120  0.0925
  109OSM   H17F11314   0.558   6.571   8.535 -0.5133  1.0636  1.0087
  109OSM   H17G11315   0.418   6.685   8.543 -1.8851 -1.1037 -1.1053
  109OSM   C18F11316   0.359   6.488   8.466  0.7353 -0.2232  0.3095
  109OSM   H18F11317   0.374   6.382   8.497 -3.5557 -0.8139  0.6730
  109OSM   H18G11318   0.393   6.508   8.362  1.8193 -1.1039  0.4782
  109OSM   H18H11319   0.250   6.509   8.472  0.4234 -1.7632  0.3915
  110OSM      N11320   2.126   5.716  10.781 -0.2523 -0.5955 -0.6701
  110OSM    C1511321   2.201   5.789  10.676 -0.2977 -0.2257 -0.0036
  110OSM   H15A11322   2.294   5.830  10.711  0.3211 -3.0484  1.8247
  110OSM   H15B11323   2.139   5.864  10.628 -0.0607 -2.0255 -3.2944
  110OSM   H15C11324   2.231   5.711  10.608 -0.1558  1.2937 -1.7196
  110OSM    C1411325   2.216   5.662  10.893 -0.0455 -0.1228 -0.0100
  110OSM   H14A11326   2.245   5.743  10.959  1.4704  0.6378 -1.5571
  110OSM   H14B11327   2.305   5.617  10.851  0.0149  0.1947 -0.2305
  110OSM   H14C11328   2.158   5.597  10.955 -0.7095 -0.4364 -0.9492
  110OSM    C1311329   2.043   5.821  10.849 -0.2521 -0.0928  0.4702
  110OSM   H13A11330   2.020   5.778  10.945  0.2214 -2.4234 -0.4390
  110OSM   H13B11331   1.952   5.830  10.793 -1.3635  1.5485  2.4419
  110OSM   H13C11332   2.096   5.915  10.864 -0.1533 -0.2133  0.8770
  110OSM    C1211333   2.037   5.606  10.718 -0.7293 -0.7345  0.0055
  110OSM   H12A11334   1.985   5.554  10.797 -0.1583 -2.6628 -0.8680
  110OSM   H12B11335   2.095   5.529  10.670  0.0080  0.4055 -0.9533
  110OSM    C1111336   1.925   5.658  10.623 -0.2567  0.3215 -0.0698
  110OSM   H11A11337   1.881   5.561  10.591 -1.0684  0.5653  0.2847
  110OSM   H11B11338   1.969   5.712  10.537  0.6303  1.0061  0.8023
  110OSM      P11339   1.697   5.684  10.757  0.0065 -0.0303 -0.2571
  110OSM    O1311340   1.741   5.587  10.866  0.3702  0.0538 -0.0213
  110OSM    O1411341   1.618   5.802  10.800 -0.1476  0.1885 -1.1754
  110OSM    O1111342   1.617   5.613  10.644 -0.2999 -0.7693  0.3889
  110OSM    O1211343   1.826   5.737  10.684 -0.3454 -0.3288 -0.2296
  110OSM    C1S11344   1.493   5.660  10.593 -0.4068 -0.1902  0.5299
  110OSM    H1S11345   1.460   5.761  10.625 -1.2895 -0.2975 -0.0390
  110OSM    H1T11346   1.416   5.585  10.623 -0.1971 -0.4548  0.4125
  110OSM     NF11347   1.367   5.704  10.384  0.2022 -0.1252 -0.3242
  110OSM    HNF11348   1.291   5.643  10.360 -0.7464  1.6099 -1.8549
  110OSM    C2S11349   1.492   5.660  10.441  0.2575  1.1894 -0.0327
  110OSM    H2S11350   1.572   5.732  10.412  1.1300 -0.1258 -0.9470
  110OSM    C3S11351   1.526   5.518  10.387 -0.2534  0.9138 -0.3064
  110OSM    H3S11352   1.441   5.458  10.427  0.9423  0.4891  1.6942
  110OSM     O311353   1.652   5.473  10.438 -0.3314  0.4821  0.3866
  110OSM    HO311354   1.677   5.536  10.506 -2.8847  0.8472  1.0387
  110OSM    C4S11355   1.528   5.508  10.239  0.2999 -0.3274  0.3360
  110OSM    H4S11356   1.613   5.561  10.194  0.7175  0.7167  2.2520
  110OSM    C5S11357   1.447   5.427  10.170 -0.0694 -0.0493 -0.1719
  110OSM    H5S11358   1.385   5.354  10.224  2.1250 -1.9999 -0.2193
  110OSM    C6S11359   1.450   5.407  10.018  0.3258 -0.5120  0.0349
  110OSM    H6S11360   1.540   5.447   9.967  0.3102 -0.5275 -0.0039
  110OSM    H6T11361   1.364   5.457   9.968 -1.5944 -0.2241  3.4796
  110OSM    C7S11362   1.440   5.259   9.968  0.5320  0.1823 -0.3093
  110OSM    H7S11363   1.342   5.216   9.998  1.0046 -0.2839  0.5950
  110OSM    H7T11364   1.525   5.205  10.015 -1.0897 -1.5741  0.6935
  110OSM    C8S11365   1.462   5.249   9.814 -0.0178  0.7715  0.0862
  110OSM    H8S11366   1.470   5.140   9.794  0.3925  0.8742 -0.3181
  110OSM    H8T11367   1.565   5.290   9.805  0.6854 -1.1318 -0.7836
  110OSM    C9S11368   1.359   5.308   9.722  0.4651 -0.3245 -0.3502
  110OSM    H9S11369   1.381   5.417   9.718 -0.6457 -0.1090 -0.8710
  110OSM    H9T11370   1.254   5.290   9.752  0.4485  0.5165  0.1272
  110OSM   C10S11371   1.377   5.244   9.584  0.7338  0.0401 -0.6177
  110OSM   H10S11372   1.355   5.135   9.585  2.8725 -0.4172 -1.5106
  110OSM   H10T11373   1.483   5.243   9.551  0.9911  1.2037  0.1574
  110OSM   C11S11374   1.293   5.304   9.470  0.4990  0.0950 -0.9901
  110OSM   H11S11375   1.189   5.324   9.503  0.6420 -3.1924  1.7027
  110OSM   H11T11376   1.279   5.229   9.389  0.8997  0.3594 -1.3108
  110OSM   C12S11377   1.342   5.431   9.402  0.6503 -0.6998  0.0201
  110OSM   H12S11378   1.442   5.392   9.371  0.5161 -0.3709 -0.8457
  110OSM   H12T11379   1.354   5.524   9.461  1.5656 -1.4970  1.1010
  110OSM   C13S11380   1.250   5.460   9.278  0.6682  0.3072 -0.3307
  110OSM   H13S11381   1.176   5.541   9.289 -0.0928 -0.2300 -1.4108
  110OSM   H13T11382   1.189   5.368   9.264 -1.1253  1.5248 -0.6631
  110OSM   C14S11383   1.325   5.482   9.144  0.2177 -0.0471  0.3825
  110OSM   H14S11384   1.401   5.406   9.116  0.2593  0.2786 -0.4207
  110OSM   H14T11385   1.384   5.576   9.153  0.8561 -0.5692  1.8227
  110OSM   C15S11386   1.227   5.506   9.031 -0.2445 -1.1368 -0.3106
  110OSM   H15S11387   1.144   5.563   9.076 -0.9237 -0.9216 -1.8205
  110OSM   H15T11388   1.192   5.405   8.999  1.4380 -1.4180 -1.3763
  110OSM   C16S11389   1.294   5.564   8.904 -0.1093  0.1217 -0.1728
  110OSM   H16S11390   1.374   5.498   8.865  0.1264  0.4139 -0.1827
  110OSM   H16T11391   1.348   5.658   8.925  0.1075 -0.1863  0.6724
  110OSM   C17S11392   1.195   5.588   8.792  0.1146 -0.0057  0.6428
  110OSM   H17S11393   1.251   5.626   8.704  1.0841 -1.7477  0.4906
  110OSM   H17T11394   1.123   5.665   8.827 -0.5479 -1.5032  2.6840
  110OSM   C18S11395   1.121   5.459   8.747 -0.1670  0.2187  0.1021
  110OSM   H18S11396   1.068   5.485   8.653 -0.9979  0.6866  0.6897
  110OSM   H18T11397   1.056   5.406   8.820 -1.6659  1.5010 -0.2538
  110OSM   H18U11398   1.199   5.387   8.715 -2.4037 -1.8423 -0.9387
  110OSM    C1F11399   1.337   5.831  10.373  0.4784  0.4740  0.5041
  110OSM     OF11400   1.414   5.910  10.422  0.2689 -0.2894  0.4346
  110OSM    C2F11401   1.208   5.859  10.310 -0.7368 -0.5221 -0.9573
  110OSM    H2F11402   1.174   5.964  10.323  1.0769  0.0722 -0.8862
  110OSM    H2G11403   1.121   5.796  10.340 -1.3270 -0.1687 -1.8882
  110OSM    C3F11404   1.224   5.846  10.153  0.1327 -0.7065 -0.2875
  110OSM    H3F11405   1.265   5.746  10.130 -0.0625 -0.6904 -0.7001
  110OSM    H3G11406   1.302   5.921  10.129 -0.7443  0.9088  1.7163
  110OSM    C4F11407   1.096   5.874  10.080 -0.4434 -0.1158 -0.3546
  110OSM    H4F11408   1.070   5.982  10.084  2.1562  0.5307  0.0640
  110OSM    H4G11409   1.021   5.819  10.141 -1.6665  1.2158 -0.6353
  110OSM    C5F11410   1.110   5.815   9.938  0.1618  0.3327  0.0464
  110OSM    H5F11411   1.011   5.779   9.903  0.7577  0.0213 -1.3736
  110OSM    H5G11412   1.183   5.732   9.931 -0.7765 -0.3845 -1.8871
  110OSM    C6F11413   1.163   5.909   9.832 -0.5757 -0.1089 -0.2592
  110OSM    H6F11414   1.263   5.947   9.862  0.2914 -0.8691 -2.0880
  110OSM    H6G11415   1.091   5.993   9.826 -0.4591  0.0853  0.9530
  110OSM    C7F11416   1.190   5.832   9.708 -0.3388  0.3481  0.0563
  110OSM    H7F11417   1.098   5.771   9.690  1.8724 -3.8659  2.1059
  110OSM    H7G11418   1.266   5.754   9.729  0.2831  0.7830 -0.5885
  110OSM    C8F11419   1.235   5.922   9.591 -0.5822 -0.7580 -0.0197
  110OSM    H8F11420   1.324   5.968   9.639 -0.7397  0.3279 -0.7611
  110OSM    H8G11421   1.176   6.016   9.579  2.1052  0.8213 -1.3551
  110OSM    C9F11422   1.262   5.852   9.460 -0.2441 -0.0802 -0.0155
  110OSM    H9F11423   1.339   5.774   9.461  0.3712  0.5002 -1.0906
  110OSM   C10F11424   1.206   5.865   9.339 -0.0124  0.0722  0.2883
  110OSM   H10F11425   1.235   5.800   9.255 -0.5926 -3.0096  2.3547
  110OSM   C11F11426   1.084   5.949   9.305 -0.3518 -0.2239 -0.4629
  110OSM   H11F11427   1.026   5.954   9.399 -2.3508 -2.9037 -1.4729
  110OSM   H11G11428   1.013   5.897   9.237  2.8435 -2.9454 -1.8887
  110OSM   C12F11429   1.113   6.084   9.242 -0.4299 -0.1666  0.2361
  110OSM   H12F11430   1.197   6.136   9.292  1.0266 -1.4323 -0.8227
  110OSM   H12G11431   1.023   6.147   9.258 -0.4587 -0.0531 -0.3342
  110OSM   C13F11432   1.157   6.073   9.096 -0.7628 -0.4247  0.6990
  110OSM   H13F11433   1.253   6.018   9.104 -0.2983  0.2739  0.0328
  110OSM   H13G11434   1.180   6.174   9.054 -0.4160 -1.5691 -1.9373
  110OSM   C14F11435   1.062   5.996   9.004 -0.0565 -0.0423 -0.5674
  110OSM   H14F11436   0.953   6.016   9.016 -0.8823 -3.2773 -2.2746
  110OSM   H14G11437   1.081   5.890   9.028 -0.4345  0.1729  0.7473
  110OSM   C15F11438   1.107   6.020   8.859  0.6151  0.1803  0.0370
  110OSM   H15F11439   1.081   6.122   8.825  0.6000  1.6686  4.2211
  110OSM   H15G11440   1.043   5.952   8.798  1.8621 -0.7002 -0.2941
  110OSM   C16F11441   1.261   5.994   8.839 -0.3070  0.4859  0.5091
  110OSM   H16F11442   1.293   5.900   8.889  0.4319  0.5250  0.1210
  110OSM   H16G11443   1.310   6.076   8.895 -1.1495  2.3814 -1.4679
  110OSM   C17F11444   1.295   5.991   8.691 -0.6668  0.7021 -0.2209
  110OSM   H17F11445   1.251   6.073   8.631 -0.6278 -0.3312 -1.6994
  110OSM   H17G11446   1.243   5.899   8.656  2.5751 -2.3424  2.5468
  110OSM   C18F11447   1.451   5.982   8.679  0.7128 -0.5025  0.0242
  110OSM   H18F11448   1.495   5.901   8.741 -0.4487 -1.3139 -0.2019
  110OSM   H18G11449   1.486   6.080   8.718  1.2696 -1.2480  1.4393
  110OSM   H18H11450   1.486   5.988   8.573  2.8392 -1.8936  0.5926
  111OSM      N11451   2.107   2.216  11.187 -0.0110  0.1481 -0.3535
  111OSM    C1511452   2.251   2.256  11.203  0.4982 -0.0523  0.3488
  111OSM   H15A11453   2.303   2.263  11.108 -1.0499  2.0582 -0.3946
  111OSM   H15B11454   2.310   2.196  11.271  1.3580  1.8709  1.3205
  111OSM   H15C11455   2.248   2.355  11.245  0.3045  0.8834 -1.7666
  111OSM    C1411456   2.106   2.089  11.131 -0.4930  0.1029 -0.3898
  111OSM   H14A11457   2.088   2.082  11.025  0.9292  0.5511 -0.6707
  111OSM   H14B11458   2.022   2.031  11.169 -0.4775  0.7415  0.6464
  111OSM   H14C11459   2.202   2.047  11.156 -1.9690 -2.7523  0.7613
  111OSM    C1311460   2.051   2.205  11.328  0.2577  0.9524  0.5562
  111OSM   H13A11461   1.948   2.172  11.322  0.3228  1.0085 -1.1401
  111OSM   H13B11462   2.067   2.294  11.387  0.5697  0.8735  0.5911
  111OSM   H13C11463   2.110   2.129  11.378 -0.8548  1.0013  1.9681
  111OSM    C1211464   2.030   2.327  11.115 -0.2572 -0.1016  0.2332
  111OSM   H12A11465   2.046   2.425  11.158  1.9682  0.3038 -1.4195
  111OSM   H12B11466   1.926   2.300  11.128  0.3700 -2.0856  1.3445
  111OSM    C1111467   2.062   2.342  10.963  0.8206  1.0237  0.1592
  111OSM   H11A11468   1.986   2.416  10.931  1.7073  0.8168 -2.5451
  111OSM   H11B11469   2.044   2.245  10.913 -1.3620  1.0140  0.9061
  111OSM      P11470   2.231   2.542  10.901 -0.4453 -0.3190 -0.0303
  111OSM    O1311471   2.151   2.645  10.966  0.5583  0.0221 -0.2745
  111OSM    O1411472   2.383   2.558  10.916  0.0454 -0.3663  0.6300
  111OSM    O1111473   2.203   2.541  10.743  0.8210 -0.4644  0.2759
  111OSM    O1211474   2.192   2.399  10.944 -0.2175 -0.1974 -0.7130
  111OSM    C1S11475   2.228   2.412  10.686 -0.6559  0.4514 -0.7488
  111OSM    H1S11476   2.167   2.333  10.735  1.5842 -0.7173  0.2461
  111OSM    H1T11477   2.328   2.367  10.707 -1.3369 -0.7349  0.0064
  111OSM     NF11478   2.234   2.279  10.477  0.3161 -0.0767 -0.4443
  111OSM    HNF11479   2.325   2.247  10.453  0.7906  0.9497 -0.0388
  111OSM    C2S11480   2.214   2.413  10.527  0.0424  0.1939  0.0556
  111OSM    H2S11481   2.115   2.459  10.506  0.1883  0.4174 -0.1559
  111OSM    C3S11482   2.326   2.509  10.473  0.1080  0.4394  0.1347
  111OSM    H3S11483   2.423   2.456  10.486  0.1608  0.3263 -0.6947
  111OSM     O311484   2.332   2.639  10.527  0.7788 -0.0508 -0.3029
  111OSM    HO311485   2.265   2.640  10.596  1.8132  0.5676  0.7158
  111OSM    C4S11486   2.330   2.507  10.321  0.8882 -0.5425  0.2914
  111OSM    H4S11487   2.395   2.432  10.276  0.2907  1.0386 -3.3767
  111OSM    C5S11488   2.271   2.599  10.233  0.3505  0.5816  0.0875
  111OSM    H5S11489   2.212   2.675  10.286  3.5066  3.7063 -0.6607
  111OSM    C6S11490   2.268   2.607  10.085  0.0305 -0.2780 -0.0694
  111OSM    H6S11491   2.298   2.709  10.051  2.1416 -0.7326  0.3235
  111OSM    H6T11492   2.165   2.606  10.043 -0.6755  1.1077  1.6014
  111OSM    C7S11493   2.353   2.505  10.016 -0.1219 -0.2975  0.2991
  111OSM    H7S11494   2.308   2.404  10.031  0.3193 -0.3654  1.1722
  111OSM    H7T11495   2.454   2.508  10.061  0.4442  0.7432 -1.0216
  111OSM    C8S11496   2.349   2.529   9.862  0.7132  0.0637  0.0374
  111OSM    H8S11497   2.402   2.626   9.852  1.1127  0.1363  2.5275
  111OSM    H8T11498   2.246   2.524   9.822  1.0122  2.3237 -1.1020
  111OSM    C9S11499   2.436   2.432   9.783  0.0395 -0.6507  0.2851
  111OSM    H9S11500   2.401   2.327   9.793  1.4316 -1.1461  0.0079
  111OSM    H9T11501   2.541   2.432   9.816  0.4152  1.9579 -0.8194
  111OSM   C10S11502   2.431   2.466   9.641  0.0642  0.2845  0.9137
  111OSM   H10S11503   2.493   2.554   9.613 -0.8992 -0.0079 -2.4411
  111OSM   H10T11504   2.330   2.499   9.608  0.2356 -0.0083  0.0871
  111OSM   C11S11505   2.471   2.345   9.556 -0.1460 -0.2194  0.5172
  111OSM   H11S11506   2.380   2.294   9.520 -0.1579 -1.0448  1.6884
  111OSM   H11T11507   2.524   2.273   9.621  0.4291  0.0578  0.3592
  111OSM   C12S11508   2.569   2.372   9.430 -0.3234 -0.2646  0.1616
  111OSM   H12S11509   2.674   2.372   9.468  1.0956 -1.0243 -3.5507
  111OSM   H12T11510   2.533   2.471   9.395  0.5490 -0.0367 -0.1104
  111OSM   C13S11511   2.553   2.263   9.316  0.0812  0.2667  0.0890
  111OSM   H13S11512   2.453   2.276   9.268  0.2260 -1.5892 -0.7961
  111OSM   H13T11513   2.554   2.158   9.354 -1.1550  0.2128 -0.0240
  111OSM   C14S11514   2.670   2.273   9.220 -0.5534 -0.3499 -0.1466
  111OSM   H14S11515   2.764   2.241   9.268 -0.2125  2.9163  1.5467
  111OSM   H14T11516   2.694   2.379   9.197 -0.1509 -0.2225  0.8489
  111OSM   C15S11517   2.639   2.207   9.087  0.8926  0.0239  0.3533
  111OSM   H15S11518   2.564   2.272   9.036  0.5787  1.5115  2.6356
  111OSM   H15T11519   2.591   2.109   9.105  0.6239  0.0440 -0.2401
  111OSM   C16S11520   2.759   2.180   8.988  0.5865 -0.5079  0.5169
  111OSM   H16S11521   2.744   2.080   8.942  1.9944  0.1950 -1.5065
  111OSM   H16T11522   2.855   2.174   9.044 -0.4380  0.0849  2.4158
  111OSM   C17S11523   2.761   2.280   8.874 -0.3460  0.7510  0.3289
  111OSM   H17S11524   2.749   2.384   8.912  2.1393  0.4768  1.9720
  111OSM   H17T11525   2.674   2.258   8.809 -1.2501  4.5223  0.1509
  111OSM   C18S11526   2.885   2.278   8.780  0.4153  0.1129  0.1530
  111OSM   H18S11527   2.904   2.177   8.739  3.1706  0.9112 -0.6779
  111OSM   H18T11528   2.971   2.306   8.844  1.1042 -0.7964 -0.3605
  111OSM   H18U11529   2.870   2.352   8.698  0.1419  0.1574  0.2446
  111OSM    C1F11530   2.138   2.185  10.477  0.4536 -0.6633  0.5540
  111OSM     OF11531   2.032   2.203  10.533  0.2327  0.6833 -0.1922
  111OSM    C2F11532   2.158   2.060  10.396 -0.4070 -0.4592  0.2362
  111OSM    H2F11533   2.089   1.983  10.437 -1.8073  0.8764  0.4409
  111OSM    H2G11534   2.260   2.026  10.423  0.6854  3.6450  1.6715
  111OSM    C3F11535   2.141   2.092  10.246 -0.3262  0.7994 -0.2726
  111OSM    H3F11536   2.227   2.160  10.229 -0.2075  1.3490  2.2617
  111OSM    H3G11537   2.040   2.133  10.226  0.0275  0.6770 -2.4743
  111OSM    C4F11538   2.163   1.961  10.163 -0.3106 -0.9204  0.5630
  111OSM    H4F11539   2.072   1.951  10.099 -0.4375  1.7411  0.2692
  111OSM    H4G11540   2.170   1.865  10.218  1.1229 -0.7350  0.7082
  111OSM    C5F11541   2.273   1.977  10.050  0.2225  1.0166  0.7049
  111OSM    H5F11542   2.367   1.936  10.091 -0.5560  0.2691  1.7642
  111OSM    H5G11543   2.281   2.086  10.029 -0.4770  0.7405 -1.1353
  111OSM    C6F11544   2.234   1.903   9.917  0.0988  0.2389  0.3187
  111OSM    H6F11545   2.126   1.897   9.892  0.0441  3.4836 -0.3878
  111OSM    H6G11546   2.279   1.802   9.932  1.4073  0.7413 -0.0786
  111OSM    C7F11547   2.308   1.959   9.790 -0.2377 -0.1222  0.1708
  111OSM    H7F11548   2.416   1.970   9.817 -0.6239  0.3949  1.5190
  111OSM    H7G11549   2.268   2.062   9.779  0.3971  0.0661 -0.4274
  111OSM    C8F11550   2.287   1.869   9.669  0.6105  0.1759  0.2968
  111OSM    H8F11551   2.176   1.857   9.664  0.5302  0.2527  1.7116
  111OSM    H8G11552   2.333   1.770   9.688  1.4540  0.6447  0.7065
  111OSM    C9F11553   2.332   1.936   9.541  0.6110 -0.5135  0.2292
  111OSM    H9F11554   2.300   2.041   9.552 -0.2531 -0.5259 -1.9722
  111OSM   C10F11555   2.387   1.883   9.435  0.1175 -0.2480 -0.2116
  111OSM   H10F11556   2.422   1.951   9.355 -0.6998  2.0074  1.2850
  111OSM   C11F11557   2.422   1.739   9.407  0.4354 -0.4368  0.3490
  111OSM   H11F11558   2.372   1.668   9.477 -1.7264 -0.7194 -1.4340
  111OSM   H11G11559   2.531   1.723   9.400  0.7573  0.4512  2.6644
  111OSM   C12F11560   2.380   1.693   9.266  0.2776 -0.0609 -0.8298
  111OSM   H12F11561   2.271   1.686   9.248  0.2130 -1.6226  0.0717
  111OSM   H12G11562   2.415   1.588   9.272  1.7464  0.5080  1.2335
  111OSM   C13F11563   2.464   1.752   9.150  0.0939  0.7680  0.4183
  111OSM   H13F11564   2.568   1.716   9.165 -0.6920 -1.1283  1.3994
  111OSM   H13G11565   2.462   1.863   9.160 -3.0804  0.9819 -1.8565
  111OSM   C14F11566   2.407   1.735   9.003 -0.6964  1.0791 -0.2054
  111OSM   H14F11567   2.299   1.751   9.024 -0.8986 -0.7500  0.2918
  111OSM   H14G11568   2.426   1.636   8.956 -0.9343 -0.4575  2.8072
  111OSM   C15F11569   2.457   1.846   8.910  0.2128  0.1384 -0.2937
  111OSM   H15F11570   2.458   1.932   8.979  1.3736 -0.2359  0.1582
  111OSM   H15G11571   2.391   1.853   8.820  0.4182 -1.9038 -0.6377
  111OSM   C16F11572   2.595   1.816   8.859  0.0146  0.1596  1.1030
  111OSM   H16F11573   2.653   1.756   8.933  0.0092  0.0458  1.0147
  111OSM   H16G11574   2.651   1.911   8.845  0.2739 -0.3770 -1.7885
  111OSM   C17F11575   2.573   1.731   8.732  0.8296  0.0145 -0.1164
  111OSM   H17F11576   2.510   1.802   8.675  1.9560  1.4510  0.4067
  111OSM   H17G11577   2.511   1.640   8.749 -0.5147  1.2666  1.8889
  111OSM   C18F11578   2.708   1.702   8.657  0.4443 -0.1559  0.7927
  111OSM   H18F11579   2.687   1.665   8.555  3.4905  1.6794 -0.5788
  111OSM   H18G11580   2.760   1.623   8.717 -1.1161 -1.2786  0.6918
  111OSM   H18H11581   2.774   1.790   8.645 -2.6631  1.9289 -1.6538
  112OSM      N11582   2.643   6.340  11.236 -0.1382 -0.5123  0.5402
  112OSM    C1511583   2.782   6.298  11.207  0.0536  0.1833  0.5008
  112OSM   H15A11584   2.837   6.291  11.300 -0.2052  0.5632  0.6870
  112OSM   H15B11585   2.837   6.361  11.138 -0.4145  0.9280  0.8128
  112OSM   H15C11586   2.768   6.200  11.163 -1.2876  1.3111 -1.6843
  112OSM    C1411587   2.590   6.242  11.343 -0.1819  0.0678  0.4594
  112OSM   H14A11588   2.675   6.196  11.391  1.0236  1.1192 -0.6380
  112OSM   H14B11589   2.534   6.156  11.307  0.6246 -0.1423 -0.3138
  112OSM   H14C11590   2.525   6.288  11.416  1.0671 -0.3645  1.8730
  112OSM    C1311591   2.669   6.479  11.291  0.4569  0.5957 -0.1296
  112OSM   H13A11592   2.707   6.476  11.392  1.5850  0.8978 -0.5381
  112OSM   H13B11593   2.578   6.537  11.288  0.4097  0.6387  1.8059
  112OSM   H13C11594   2.741   6.536  11.233  0.3396  1.4280  0.5353
  112OSM    C1211595   2.564   6.345  11.106  0.1397 -0.5450 -0.7548
  112OSM   H12A11596   2.461   6.366  11.134 -0.2826 -2.4820 -0.8146
  112OSM   H12B11597   2.554   6.251  11.054  0.8159 -0.5543 -0.8632
  112OSM    C1111598   2.600   6.452  10.998 -0.0811 -0.5866  0.3493
  112OSM   H11A11599   2.553   6.429  10.900 -0.0230  3.5655 -0.7501
  112OSM   H11B11600   2.708   6.430  10.982 -0.2653 -1.8755  0.8071
  112OSM      P11601   2.421   6.630  11.049 -0.2132 -0.1724 -0.4156
  112OSM    O1311602   2.350   6.534  11.135 -0.0165  0.6478  0.0028
  112OSM    O1411603   2.415   6.771  11.086  0.3313 -0.3893 -0.0996
  112OSM    O1111604   2.348   6.625  10.913 -0.4178  0.1419  0.4792
  112OSM    O1211605   2.572   6.581  11.038 -1.0468 -0.4338  0.5142
  112OSM    C1S11606   2.413   6.668  10.793  0.1355  0.6427  0.7466
  112OSM    H1S11607   2.519   6.634  10.787  0.1802  0.6295  1.5976
  112OSM    H1T11608   2.421   6.779  10.796  1.2408  0.6391 -0.9274
  112OSM     NF11609   2.432   6.641  10.532  0.6615 -0.4690  0.1065
  112OSM    HNF11610   2.396   6.705  10.464 -1.8255  0.2287  1.9897
  112OSM    C2S11611   2.348   6.620  10.646  0.0655  0.0641 -0.0414
  112OSM    H2S11612   2.336   6.510  10.658 -0.4626  0.0695 -0.5028
  112OSM    C3S11613   2.205   6.681  10.635  0.8169  0.7965 -0.3484
  112OSM    H3S11614   2.211   6.792  10.630 -1.5532  0.8999 -1.9914
  112OSM     O311615   2.127   6.641  10.747 -0.1647  0.2260 -0.1955
  112OSM    HO311616   2.187   6.616  10.818 -1.2296 -0.1159  0.6185
  112OSM    C4S11617   2.139   6.634  10.505 -0.4460 -0.0359  0.0321
  112OSM    H4S11618   2.143   6.527  10.483  1.5894 -0.2280  1.2963
  112OSM    C5S11619   2.089   6.714  10.408 -0.0364 -0.0787 -0.0446
  112OSM    H5S11620   2.087   6.824  10.416 -0.6625 -0.0720 -0.2597
  112OSM    C6S11621   2.019   6.661  10.282  0.3138  0.1303  0.3105
  112OSM    H6S11622   2.091   6.668  10.197 -0.3467 -1.0651 -0.3541
  112OSM    H6T11623   1.932   6.724  10.254  1.6859  1.8773 -0.2153
  112OSM    C7S11624   1.974   6.516  10.287  0.1574  0.6220  0.4028
  112OSM    H7S11625   1.911   6.503  10.377 -0.4722 -2.1905 -0.3779
  112OSM    H7T11626   2.063   6.449  10.292 -0.8708 -0.7278  0.8941
  112OSM    C8S11627   1.881   6.479  10.169 -0.0073  0.3758 -0.1656
  112OSM    H8S11628   1.795   6.548  10.177  1.2558  1.9047  0.6525
  112OSM    H8T11629   1.846   6.375  10.188  2.7287 -0.5183  0.3363
  112OSM    C9S11630   1.951   6.484  10.036  0.0906 -0.8429 -0.2033
  112OSM    H9S11631   2.043   6.422  10.036 -0.0426 -1.0420  0.7091
  112OSM    H9T11632   1.981   6.589  10.017  1.3125 -1.6050 -2.7647
  112OSM   C10S11633   1.850   6.441   9.939  0.4177 -0.2466  0.6285
  112OSM   H10S11634   1.768   6.516   9.942  1.1957  0.6554 -0.2940
  112OSM   H10T11635   1.809   6.342   9.969  0.6819 -0.9141 -1.1684
  112OSM   C11S11636   1.916   6.424   9.802 -0.0132 -0.1725 -0.7426
  112OSM   H11S11637   2.001   6.352   9.799  1.5648  1.6170  0.1432
  112OSM   H11T11638   1.959   6.522   9.773  0.8923 -0.4094 -0.2231
  112OSM   C12S11639   1.825   6.373   9.689  0.0670 -0.0496 -0.3720
  112OSM   H12S11640   1.874   6.393   9.592 -1.5275 -0.9730 -1.3942
  112OSM   H12T11641   1.741   6.446   9.691 -0.3785 -0.5944  1.9923
  112OSM   C13S11642   1.777   6.230   9.697 -0.5566  0.0357 -0.2935
  112OSM   H13S11643   1.752   6.197   9.801  2.4957  0.5366  0.6522
  112OSM   H13T11644   1.858   6.164   9.660  0.3985  1.4715 -0.7898
  112OSM   C14S11645   1.644   6.206   9.622  0.2707  0.5550  0.3920
  112OSM   H14S11646   1.563   6.272   9.659 -0.1545  0.1451  0.1948
  112OSM   H14T11647   1.610   6.102   9.642  1.8652  0.2268  1.4529
  112OSM   C15S11648   1.667   6.222   9.475  1.4617  1.2282  0.5778
  112OSM   H15S11649   1.753   6.160   9.443  0.2091  0.5655 -1.6722
  112OSM   H15T11650   1.711   6.323   9.461  2.2829  0.7039 -0.7081
  112OSM   C16S11651   1.551   6.207   9.384  0.8566 -0.8134 -0.7187
  112OSM   H16S11652   1.465   6.264   9.422  1.5599 -2.5701  3.8575
  112OSM   H16T11653   1.508   6.105   9.388 -2.0617  0.4896  2.5631
  112OSM   C17S11654   1.584   6.263   9.244 -0.5990 -0.0483  0.1751
  112OSM   H17S11655   1.685   6.232   9.211 -0.4516  0.3820  0.2179
  112OSM   H17T11656   1.585   6.372   9.264 -1.9522  0.6565 -3.2726
  112OSM   C18S11657   1.476   6.231   9.141 -0.5620 -0.0699 -0.1659
  112OSM   H18S11658   1.487   6.293   9.049  0.6795 -0.1218 -0.0579
  112OSM   H18T11659   1.376   6.267   9.172 -0.4562  0.2344 -0.1661
  112OSM   H18U11660   1.478   6.126   9.107 -0.8819  0.3660 -1.5915
  112OSM    C1F11661   2.553   6.591  10.521  0.3719  0.7230  0.1294
  112OSM     OF11662   2.600   6.513  10.604 -0.2436  0.3156 -0.1992
  112OSM    C2F11663   2.634   6.637  10.402 -0.7838  0.9001 -0.0074
  112OSM    H2F11664   2.742   6.626  10.426 -0.5362  0.0116 -1.5157
  112OSM    H2G11665   2.611   6.743  10.376  0.7928  1.6556  1.5523
  112OSM    C3F11666   2.614   6.549  10.281 -0.0762 -0.0532 -0.0344
  112OSM    H3F11667   2.505   6.545  10.259 -0.4385 -1.7253  1.9154
  112OSM    H3G11668   2.657   6.447  10.284  2.8088  1.1322  0.1176
  112OSM    C4F11669   2.681   6.601  10.154 -0.1259 -0.3099  0.2273
  112OSM    H4F11670   2.792   6.609  10.162 -0.1818  0.0402  0.7059
  112OSM    H4G11671   2.640   6.704  10.142 -0.7560 -0.6301 -0.4035
  112OSM    C5F11672   2.656   6.529  10.020 -0.1165  0.1736 -0.3348
  112OSM    H5F11673   2.548   6.523   9.996 -0.9990 -0.8550  3.4513
  112OSM    H5G11674   2.683   6.422  10.033  2.0939  0.6450 -0.8261
  112OSM    C6F11675   2.739   6.590   9.903 -0.3972 -0.2827 -0.3933
  112OSM    H6F11676   2.841   6.555   9.932 -0.9386 -2.0419 -0.5693
  112OSM    H6G11677   2.746   6.701   9.895  0.1399 -0.2564  0.3610
  112OSM    C7F11678   2.696   6.527   9.775 -0.6097 -0.8304 -0.0987
  112OSM    H7F11679   2.587   6.545   9.759 -0.9881  0.3464  3.3484
  112OSM    H7G11680   2.717   6.418   9.783 -0.0558 -0.7232 -0.0671
  112OSM    C8F11681   2.776   6.581   9.653  0.8949  0.2449  0.2223
  112OSM    H8F11682   2.777   6.692   9.649 -0.9028  0.2608 -0.3076
  112OSM    H8G11683   2.726   6.544   9.561  1.1234 -2.7547  1.2602
  112OSM    C9F11684   2.916   6.534   9.656 -0.1759  0.4440 -0.3684
  112OSM    H9F11685   2.946   6.472   9.742  1.8402  1.9903  0.0917
  112OSM   C10F11686   3.012   6.561   9.569  0.3826 -0.5385  0.7814
  112OSM   H10F11687   3.110   6.513   9.585  0.7309 -0.3306 -0.6427
  112OSM   C11F11688   2.997   6.642   9.440  0.3134  1.2255  0.0783
  112OSM   H11F11689   2.896   6.627   9.396 -0.1726  1.1290  1.2177
  112OSM   H11G11690   3.066   6.601   9.363 -1.9491 -0.8163 -0.9390
  112OSM   C12F11691   3.039   6.785   9.456  0.5469 -0.4315 -0.3692
  112OSM   H12F11692   3.135   6.801   9.510  0.1560  2.8638 -0.5807
  112OSM   H12G11693   2.958   6.830   9.517 -0.3545  0.3942 -2.1295
  112OSM   C13F11694   3.040   6.871   9.326  0.2281  0.2084  0.7167
  112OSM   H13F11695   3.128   6.831   9.270 -1.7832 -3.8622  0.2206
  112OSM   H13G11696   3.070   6.972   9.359  0.7565  1.2299 -2.6501
  112OSM   C14F11697   2.917   6.851   9.239  0.4861  0.1640 -1.0143
  112OSM   H14F11698   2.833   6.899   9.294  1.1901  0.0358  0.1880
  112OSM   H14G11699   2.892   6.747   9.209  0.9859  0.1687 -1.4422
  112OSM   C15F11700   2.920   6.922   9.100 -0.3274  0.1359  0.9384
  112OSM   H15F11701   2.948   7.029   9.107 -0.5150  0.3271 -0.8664
  112OSM   H15G11702   2.818   6.914   9.057 -0.0595  2.0362 -0.1431
  112OSM   C16F11703   3.027   6.853   9.007 -0.2853  0.9385 -0.0030
  112OSM   H16F11704   3.010   6.744   8.996 -0.6922  1.0595 -0.6417
  112OSM   H16G11705   3.128   6.867   9.050  0.7305 -0.2141 -1.9404
  112OSM   C17F11706   3.028   6.907   8.868  0.2633 -0.3260 -0.0356
  112OSM   H17F11707   3.129   6.903   8.823  0.9409  1.3105  1.3002
  112OSM   H17G11708   3.000   7.014   8.881 -0.1683 -0.6156  1.6153
  112OSM   C18F11709   2.930   6.841   8.770  0.1600  0.3007  0.2049
  112OSM   H18F11710   2.828   6.830   8.811  0.8899 -1.7520  1.5510
  112OSM   H18G11711   2.969   6.743   8.734  1.0656  1.9167 -3.5121
  112OSM   H18H11712   2.927   6.897   8.674 -0.0653 -0.8816 -0.4877
  113OSM      N11713   6.157   3.641  11.094 -0.3873 -0.3301 -0.3455
  113OSM    C1511714   6.258   3.561  11.177  0.4145  0.9591  0.3750
  113OSM   H15A11715   6.336   3.622  11.219 -0.6084  1.3394  1.7535
  113OSM   H15B11716   6.301   3.482  11.118  1.5077  1.6395  0.2495
  113OSM   H15C11717   6.209   3.508  11.258 -1.1256  0.0090 -1.1412
  113OSM    C1411718   6.033   3.566  11.075  0.0745  0.1474  0.3338
  113OSM   H14A11719   5.967   3.616  11.006 -0.4778  1.2995  1.6663
  113OSM   H14B11720   5.983   3.558  11.171  1.5940 -2.9581  0.9281
  113OSM   H14C11721   6.052   3.469  11.032 -0.2042  1.0838 -1.9807
  113OSM    C1311722   6.118   3.764  11.177  0.2469  0.2152  0.4577
  113OSM   H13A11723   6.036   3.816  11.130  0.1106 -1.5118 -1.2986
  113OSM   H13B11724   6.202   3.830  11.162  0.1368  0.4911  1.0589
  113OSM   H13C11725   6.097   3.734  11.278  2.2114 -1.7589  0.3254
  113OSM    C1211726   6.215   3.677  10.960 -0.3096 -0.0015  0.5737
  113OSM   H12A11727   6.313   3.719  10.980  0.6148 -1.3998 -0.9141
  113OSM   H12B11728   6.160   3.760  10.917  1.3285  0.3001 -1.0155
  113OSM    C1111729   6.227   3.566  10.847 -0.4111  0.4879 -0.3959
  113OSM   H11A11730   6.245   3.624  10.754 -0.8715 -0.2092 -0.9246
  113OSM   H11B11731   6.133   3.509  10.834 -0.3059  0.8766 -3.1454
  113OSM      P11732   6.484   3.513  10.856 -0.1242 -0.1674 -0.1149
  113OSM    O1311733   6.532   3.576  10.984 -0.2757  0.3694  0.3089
  113OSM    O1411734   6.564   3.396  10.811 -0.5283  0.4289 -0.2800
  113OSM    O1111735   6.493   3.625  10.742  0.4778  0.6152 -0.3901
  113OSM    O1211736   6.337   3.481  10.878 -0.3857  0.1854 -0.3837
  113OSM    C1S11737   6.518   3.581  10.603 -0.7379  0.1553  0.3184
  113OSM    H1S11738   6.485   3.479  10.577  1.0547 -0.6995  1.3325
  113OSM    H1T11739   6.626   3.587  10.577 -0.3605 -0.8461  1.6652
  113OSM     NF11740   6.501   3.649  10.367  0.2681 -0.5370  0.5410
  113OSM    HNF11741   6.582   3.689  10.325 -0.7021 -0.9626 -1.8152
  113OSM    C2S11742   6.467   3.690  10.499 -0.4906 -0.5679 -0.6693
  113OSM    H2S11743   6.356   3.690  10.497 -0.4908 -1.9684 -0.7687
  113OSM    C3S11744   6.514   3.834  10.540 -0.5480 -0.4396  0.1343
  113OSM    H3S11745   6.625   3.829  10.551 -0.2193  1.4252 -2.0293
  113OSM     O311746   6.472   3.871  10.671 -0.1628 -0.2104  0.3109
  113OSM    HO311747   6.477   3.786  10.715 -0.3178  0.1071  0.9511
  113OSM    C4S11748   6.472   3.934  10.434  0.2518 -0.3593  0.0173
  113OSM    H4S11749   6.363   3.945  10.427  0.1666 -0.0133  1.8164
  113OSM    C5S11750   6.546   3.995  10.341 -0.1624  0.0643  0.2990
  113OSM    H5S11751   6.656   3.987  10.346 -0.2493 -0.9022  0.8207
  113OSM    C6S11752   6.489   4.083  10.230  0.2539 -0.9442 -0.5536
  113OSM    H6S11753   6.560   4.168  10.219  0.2540 -1.0050 -1.0421
  113OSM    H6T11754   6.390   4.119  10.263  0.7838  1.4746 -1.4874
  113OSM    C7S11755   6.474   4.018  10.093 -0.8107 -0.2560  1.3224
  113OSM    H7S11756   6.438   4.095  10.022 -0.0672 -0.8123  0.3460
  113OSM    H7T11757   6.396   3.940  10.099 -2.3867  1.1727 -0.2157
  113OSM    C8S11758   6.606   3.957  10.036 -0.0112 -0.5195 -0.7495
  113OSM    H8S11759   6.643   3.870  10.095 -0.1136 -1.0024 -1.3929
  113OSM    H8T11760   6.689   4.031  10.042 -2.0768  1.7163  1.0637
  113OSM    C9S11761   6.583   3.912   9.887 -0.9703 -0.5183 -0.4189
  113OSM    H9S11762   6.544   3.999   9.830 -0.7274  0.2591  0.5899
  113OSM    H9T11763   6.505   3.835   9.903 -1.5262  0.4440  1.6498
  113OSM   C10S11764   6.705   3.857   9.814  0.3446  0.7773 -0.3834
  113OSM   H10S11765   6.745   3.783   9.887  1.5555  1.0104 -0.7825
  113OSM   H10T11766   6.793   3.926   9.810 -0.3138  1.8970  2.8121
  113OSM   C11S11767   6.675   3.799   9.677 -0.0689  0.4476  0.7130
  113OSM   H11S11768   6.628   3.700   9.693 -0.3110  0.1189 -1.9078
  113OSM   H11T11769   6.775   3.761   9.650  0.4909  2.2312  0.1862
  113OSM   C12S11770   6.610   3.878   9.561  0.2840 -0.6597  0.7208
  113OSM   H12S11771   6.639   3.985   9.571  0.4515 -0.5906 -0.4678
  113OSM   H12T11772   6.499   3.881   9.574  0.2310  1.2363  0.0400
  113OSM   C13S11773   6.630   3.812   9.422 -0.1439 -0.4003 -0.1240
  113OSM   H13S11774   6.574   3.865   9.342  0.7517  0.4929 -0.1689
  113OSM   H13T11775   6.606   3.704   9.435  1.8080 -0.8437  0.0259
  113OSM   C14S11776   6.773   3.830   9.363  0.4111  0.6417  0.6601
  113OSM   H14S11777   6.843   3.820   9.448  0.3468  2.1800  0.8989
  113OSM   H14T11778   6.787   3.931   9.319 -2.1000  0.4257 -0.7778
  113OSM   C15S11779   6.808   3.731   9.250 -0.2334 -0.1839  0.4909
  113OSM   H15S11780   6.792   3.627   9.285 -0.8381 -0.8109 -1.5274
  113OSM   H15T11781   6.919   3.738   9.238 -0.3704  2.0412  0.2613
  113OSM   C16S11782   6.740   3.754   9.112 -0.2446  0.2761 -0.1773
  113OSM   H16S11783   6.769   3.847   9.058 -1.6984 -0.3051 -2.0366
  113OSM   H16T11784   6.630   3.745   9.102 -0.0487 -1.4564 -1.0823
  113OSM   C17S11785   6.793   3.637   9.020  0.7604  0.1152  0.0260
  113OSM   H17S11786   6.786   3.543   9.080 -2.0350  0.6791  0.6514
  113OSM   H17T11787   6.902   3.654   9.007  0.7578 -0.6369 -1.0357
  113OSM   C18S11788   6.720   3.617   8.892  0.0079  0.1559 -0.2121
  113OSM   H18S11789   6.784   3.550   8.831  0.9316 -0.4602  1.4089
  113OSM   H18T11790   6.700   3.711   8.835  1.7261  0.0273 -1.0594
  113OSM   H18U11791   6.622   3.570   8.913  0.4082 -0.6275 -0.0822
  113OSM    C1F11792   6.460   3.534  10.313  0.2852  0.3255 -0.2869
  113OSM     OF11793   6.382   3.455  10.365 -0.3177  0.3528  0.1524
  113OSM    C2F11794   6.550   3.482  10.198 -0.3497  0.1510 -0.0552
  113OSM    H2F11795   6.608   3.395  10.235  0.8558  0.2557 -1.6239
  113OSM    H2G11796   6.608   3.571  10.166 -0.9866  1.0965  1.3778
  113OSM    C3F11797   6.471   3.432  10.072  0.1385 -0.0067 -0.1389
  113OSM    H3F11798   6.401   3.511  10.036  1.0035  1.2602  0.9023
  113OSM    H3G11799   6.408   3.345  10.101  1.3813 -0.9211 -0.1560
  113OSM    C4F11800   6.565   3.401   9.960  0.0368 -0.3766  0.1491
  113OSM    H4F11801   6.617   3.304   9.976  2.1965  0.4575 -1.5796
  113OSM    H4G11802   6.645   3.477   9.955  1.2130 -1.5303  1.1224
  113OSM    C5F11803   6.489   3.390   9.827  0.0459 -0.4496 -0.3279
  113OSM    H5F11804   6.419   3.476   9.815 -0.1379 -0.2042  2.3245
  113OSM    H5G11805   6.423   3.301   9.831 -0.3626 -0.1110  0.5065
  113OSM    C6F11806   6.581   3.386   9.704 -0.1682  0.6782  0.4373
  113OSM    H6F11807   6.646   3.298   9.687 -1.4794 -0.3024  0.4571
  113OSM    H6G11808   6.633   3.483   9.720  2.0584 -0.1851 -1.3711
  113OSM    C7F11809   6.513   3.409   9.563  0.2458  0.1359  0.6591
  113OSM    H7F11810   6.440   3.492   9.576  1.9401  1.3347  2.9812
  113OSM    H7G11811   6.459   3.316   9.533 -2.8569  1.7398  1.0545
  113OSM    C8F11812   6.622   3.435   9.453  0.4214 -0.1716  0.6069
  113OSM    H8F11813   6.682   3.521   9.489  3.5233 -1.9378 -0.2148
  113OSM    H8G11814   6.583   3.476   9.357  1.2236 -0.9605 -0.0656
  113OSM    C9F11815   6.716   3.324   9.418 -0.1133 -0.7074 -0.1791
  113OSM    H9F11816   6.798   3.326   9.492 -1.9397 -1.5121  1.9189
  113OSM   C10F11817   6.708   3.231   9.321  0.0660 -0.4349 -0.5894
  113OSM   H10F11818   6.795   3.164   9.313 -0.6152 -1.2807 -0.9789
  113OSM   C11F11819   6.594   3.216   9.224 -0.2329  0.0916 -0.0275
  113OSM   H11F11820   6.508   3.285   9.231 -0.1515  0.7454 -4.2183
  113OSM   H11G11821   6.555   3.112   9.224  0.5792 -0.2310  1.7959
  113OSM   C12F11822   6.644   3.221   9.081 -0.7617 -0.0277 -0.4234
  113OSM   H12F11823   6.736   3.160   9.076 -0.5466  0.3239 -0.7826
  113OSM   H12G11824   6.666   3.327   9.057 -1.6294  0.5517  1.2423
  113OSM   C13F11825   6.539   3.175   8.978  0.8678  0.6345 -0.4811
  113OSM   H13F11826   6.438   3.217   9.000  1.4414  1.7736  0.0212
  113OSM   H13G11827   6.523   3.066   8.980  3.0203  0.3070  0.9206
  113OSM   C14F11828   6.575   3.215   8.834 -0.4913  0.2910 -0.0029
  113OSM   H14F11829   6.635   3.127   8.803 -0.6241  0.3007 -0.2962
  113OSM   H14G11830   6.626   3.314   8.840 -3.1042  1.6650  0.3243
  113OSM   C15F11831   6.452   3.237   8.743 -0.1043 -0.4615 -0.4778
  113OSM   H15F11832   6.494   3.249   8.641  2.6948  0.8562  0.7673
  113OSM   H15G11833   6.407   3.334   8.774 -1.2670 -0.8526 -0.9444
  113OSM   C16F11834   6.344   3.131   8.751 -0.3685  0.2764  0.2174
  113OSM   H16F11835   6.267   3.164   8.678 -0.9218  1.5067  1.3307
  113OSM   H16G11836   6.301   3.126   8.853  0.0127  0.5006  0.3856
  113OSM   C17F11837   6.385   2.984   8.709 -0.2933 -0.5136  0.6559
  113OSM   H17F11838   6.307   2.919   8.755 -0.0267  0.1041  1.9753
  113OSM   H17G11839   6.485   2.963   8.752 -0.6087 -0.9884  1.1488
  113OSM   C18F11840   6.385   2.953   8.551 -0.2212  0.0362 -0.4130
  113OSM   H18F11841   6.453   3.025   8.501  0.0425 -1.8572 -2.8807
  113OSM   H18G11842   6.283   2.980   8.516 -0.0296 -1.2722 -2.0195
  113OSM   H18H11843   6.404   2.847   8.523  1.4587 -0.3311  1.9807
  114OSM      N11844   2.008   0.006  11.168  0.5514  0.5807  0.0326
  114OSM    C1511845   2.032  -0.125  11.094  0.1300 -0.1030  0.2498
  114OSM   H15A11846   1.945  -0.139  11.032  0.4092  0.5642 -0.2977
  114OSM   H15B11847   2.060  -0.210  11.155  0.0399 -0.5062 -0.2702
  114OSM   H15C11848   2.117  -0.106  11.031  1.0696  0.2024  1.5767
  114OSM    C1411849   1.888  -0.007  11.254 -1.2834 -0.0066 -0.4644
  114OSM   H14A11850   1.862   0.088  11.298  2.0434 -0.3037  2.3475
  114OSM   H14B11851   1.902  -0.082  11.330 -0.0833  1.3493  0.6692
  114OSM   H14C11852   1.805  -0.049  11.199 -1.8924  0.6381 -0.0327
  114OSM    C1311853   2.128   0.036  11.254  0.1730 -0.7371  0.2161
  114OSM   H13A11854   2.123   0.134  11.300  1.8752 -1.5261  2.1511
  114OSM   H13B11855   2.224   0.022  11.206  0.3591  2.1022 -0.3456
  114OSM   H13C11856   2.126  -0.036  11.334 -0.9985 -0.0781  0.7895
  114OSM    C1211857   1.998   0.112  11.055  0.2044  0.2455 -0.1483
  114OSM   H12A11858   2.099   0.124  11.019 -0.0236  1.1995 -0.4854
  114OSM   H12B11859   1.969   0.207  11.097 -2.3307  0.6339 -2.6182
  114OSM    C1111860   1.909   0.088  10.929  0.1273  0.2037 -0.4487
  114OSM   H11A11861   1.940  -0.003  10.875 -0.2411 -1.1438  1.5693
  114OSM   H11B11862   1.916   0.169  10.853  1.1116 -2.5475 -3.3678
  114OSM      P11863   1.687   0.202  11.000 -0.1021 -0.0154  0.1627
  114OSM    O1311864   1.577   0.167  11.094  0.0687 -0.0621  0.0809
  114OSM    O1411865   1.782   0.312  11.044 -0.0344 -0.0002  0.1775
  114OSM    O1111866   1.622   0.241  10.860  0.6351  0.3001  0.1695
  114OSM    O1211867   1.771   0.072  10.965  0.2382 -0.4494 -0.3883
  114OSM    C1S11868   1.586   0.127  10.773  0.7639 -0.5629 -0.1582
  114OSM    H1S11869   1.493   0.077  10.805 -0.5222  1.5249 -0.5287
  114OSM    H1T11870   1.675   0.060  10.767  0.9551 -0.3344  0.0628
  114OSM     NF11871   1.495   0.089  10.556  0.1744  0.3370  0.1680
  114OSM    HNF11872   1.542   0.009  10.520  1.3109  0.7325  0.7732
  114OSM    C2S11873   1.568   0.190  10.630  0.1840  0.1826  0.2299
  114OSM    H2S11874   1.523   0.292  10.627 -0.3817 -0.0864 -1.1309
  114OSM    C3S11875   1.716   0.205  10.569  0.2824 -0.4233  0.0397
  114OSM    H3S11876   1.763   0.105  10.578 -0.2128 -0.6062  0.6555
  114OSM     O311877   1.797   0.300  10.642  0.8878  0.5525  0.1806
  114OSM    HO311878   1.725   0.327  10.699 -1.2551  0.2112 -2.3108
  114OSM    C4S11879   1.712   0.243  10.422  0.3268 -0.2096  0.5857
  114OSM    H4S11880   1.631   0.312  10.398  0.6737  0.7937  2.2433
  114OSM    C5S11881   1.796   0.195  10.332 -0.0980 -0.6357  0.3449
  114OSM    H5S11882   1.883   0.135  10.362  0.1914  0.4956  1.8254
  114OSM    C6S11883   1.783   0.249  10.190 -0.2065 -1.1941 -0.3366
  114OSM    H6S11884   1.833   0.348  10.197 -1.4543 -0.5660  0.0131
  114OSM    H6T11885   1.675   0.259  10.166 -0.0988 -1.2012 -0.8266
  114OSM    C7S11886   1.863   0.158  10.092  0.1950  0.1444 -0.4758
  114OSM    H7S11887   1.835   0.051  10.100  2.6793 -0.4736  0.2689
  114OSM    H7T11888   1.972   0.172  10.109  0.1918  1.3339 -1.3523
  114OSM    C8S11889   1.831   0.194   9.943 -0.3650  0.4225 -0.2777
  114OSM    H8S11890   1.882   0.292   9.927  2.2950 -0.9950 -0.7103
  114OSM    H8T11891   1.722   0.191   9.921 -0.4646 -0.3795  0.3411
  114OSM    C9S11892   1.893   0.078   9.859 -0.6801 -0.2627  0.5158
  114OSM    H9S11893   1.826  -0.010   9.849  0.5508 -1.2019  0.3529
  114OSM    H9T11894   1.992   0.052   9.902 -0.1922 -0.9321 -0.9551
  114OSM   C10S11895   1.912   0.119   9.709  0.0015  0.4789 -0.1943
  114OSM   H10S11896   2.003   0.179   9.685  2.1364 -2.7560 -0.5572
  114OSM   H10T11897   1.823   0.167   9.663 -1.3532 -1.2717  0.5472
  114OSM   C11S11898   1.944  -0.017   9.638 -0.0075 -0.8993 -0.2623
  114OSM   H11S11899   1.859  -0.086   9.658 -0.8025 -0.7115 -2.8142
  114OSM   H11T11900   2.027  -0.061   9.697 -1.2532 -1.9789  0.7252
  114OSM   C12S11901   1.971   0.009   9.492  0.1134 -0.0909 -0.3562
  114OSM   H12S11902   2.062   0.072   9.483 -0.4288  0.8055  0.4073
  114OSM   H12T11903   1.888   0.066   9.446  0.5434  1.1570  0.4044
  114OSM   C13S11904   1.993  -0.117   9.404  0.1371  0.7389  0.7126
  114OSM   H13S11905   1.912  -0.191   9.418 -0.0599  0.6826 -0.6605
  114OSM   H13T11906   2.089  -0.160   9.439 -0.8803 -0.5651  1.9623
  114OSM   C14S11907   2.002  -0.094   9.247 -0.4546  0.5538  0.1103
  114OSM   H14S11908   1.907  -0.046   9.215  0.2397  1.3752 -0.7633
  114OSM   H14T11909   2.007  -0.199   9.211 -1.1981 -0.2761  2.3360
  114OSM   C15S11910   2.129  -0.037   9.194  0.3493  0.0700  0.2059
  114OSM   H15S11911   2.211  -0.108   9.216  3.0756  2.6204 -1.3178
  114OSM   H15T11912   2.152   0.063   9.236 -0.6928  0.7689 -0.8405
  114OSM   C16S11913   2.124  -0.004   9.041  0.1238  0.7329  0.2027
  114OSM   H16S11914   2.226   0.001   8.996 -0.5918  0.6501 -1.4365
  114OSM   H16T11915   2.078   0.097   9.039 -0.5307  0.4950  2.2841
  114OSM   C17S11916   2.030  -0.088   8.952  0.6154  0.5858  0.4264
  114OSM   H17S11917   1.927  -0.072   8.990 -0.3082 -0.8978 -1.3579
  114OSM   H17T11918   2.054  -0.196   8.954  0.9796  0.6690  0.7160
  114OSM   C18S11919   2.033  -0.039   8.802  0.1217  0.5528 -0.0604
  114OSM   H18S11920   2.139  -0.025   8.772 -0.2495  3.3454 -0.1876
  114OSM   H18T11921   1.979   0.057   8.793  1.8169  1.4245 -1.3919
  114OSM   H18U11922   1.992  -0.113   8.729  0.9840  0.5466 -0.5514
  114OSM    C1F11923   1.363   0.099  10.560 -0.7179  0.1942 -0.6831
  114OSM     OF11924   1.314   0.189  10.637 -0.4423 -0.6377 -0.3077
  114OSM    C2F11925   1.279   0.007  10.471 -0.5305  0.3818 -0.1780
  114OSM    H2F11926   1.218  -0.060  10.535 -0.7641  0.5940 -0.1767
  114OSM    H2G11927   1.338  -0.075  10.425 -1.5094 -0.0483 -0.6664
  114OSM    C3F11928   1.180   0.079  10.375 -0.2407  0.0141  0.2840
  114OSM    H3F11929   1.093   0.119  10.433  0.4182 -0.0104  1.3103
  114OSM    H3G11930   1.139   0.005  10.302  0.4128 -0.7531  0.6900
  114OSM    C4F11931   1.237   0.198  10.297  0.3603  0.1598 -0.3514
  114OSM    H4F11932   1.343   0.177  10.271  0.1718 -0.4342 -0.6406
  114OSM    H4G11933   1.242   0.287  10.363 -1.1128  0.0303 -0.0482
  114OSM    C5F11934   1.153   0.225  10.174  0.1458 -0.0221  0.1398
  114OSM    H5F11935   1.057   0.277  10.191  0.9805  1.1207  1.3867
  114OSM    H5G11936   1.148   0.127  10.120  0.9618  0.5562 -1.0245
  114OSM    C6F11937   1.246   0.308  10.079  0.4410  0.4538 -0.6407
  114OSM    H6F11938   1.341   0.251  10.070  0.6397  0.5924  0.5513
  114OSM    H6G11939   1.281   0.406  10.119  1.4987  0.6374 -1.9826
  114OSM    C7F11940   1.179   0.315   9.938  0.5257 -0.4635  0.2298
  114OSM    H7F11941   1.089   0.380   9.945 -0.0256 -1.2618  0.5976
  114OSM    H7G11942   1.142   0.215   9.905  0.0735 -0.1364 -0.2805
  114OSM    C8F11943   1.270   0.371   9.828 -0.5904  0.5412  0.9886
  114OSM    H8F11944   1.373   0.336   9.846 -0.2510  0.7306 -0.5099
  114OSM    H8G11945   1.292   0.479   9.833  0.3431  0.4801 -1.1021
  114OSM    C9F11946   1.228   0.321   9.692  0.4899 -0.3703  0.5259
  114OSM    H9F11947   1.181   0.222   9.683 -0.1839 -0.0660  0.5963
  114OSM   C10F11948   1.244   0.396   9.578  0.4923  0.0058 -0.1139
  114OSM   H10F11949   1.203   0.361   9.482  1.4024  0.6674 -0.7456
  114OSM   C11F11950   1.308   0.531   9.572  0.0583 -0.0840 -0.0049
  114OSM   H11F11951   1.408   0.524   9.619  0.2764  0.6135 -0.3649
  114OSM   H11G11952   1.246   0.604   9.629  0.9867  1.7673 -1.3171
  114OSM   C12F11953   1.320   0.584   9.426 -0.0944 -0.1144 -0.3432
  114OSM   H12F11954   1.363   0.685   9.443 -2.3860  0.3967  2.8521
  114OSM   H12G11955   1.224   0.583   9.371 -0.5098 -3.1782  0.3854
  114OSM   C13F11956   1.415   0.507   9.326 -0.3293 -0.6197  0.0233
  114OSM   H13F11957   1.384   0.401   9.328 -1.4403 -0.2979  1.5623
  114OSM   H13G11958   1.523   0.511   9.354 -0.3953  1.5436  0.0698
  114OSM   C14F11959   1.423   0.583   9.190 -1.0551  0.3982  0.2573
  114OSM   H14F11960   1.324   0.618   9.154 -0.5299  0.0726 -1.5654
  114OSM   H14G11961   1.468   0.506   9.124  1.2911  1.1674  0.8948
  114OSM   C15F11962   1.521   0.704   9.180 -0.1468  0.0234  0.0493
  114OSM   H15F11963   1.626   0.669   9.188 -0.9619 -2.5690 -0.0895
  114OSM   H15G11964   1.494   0.766   9.268 -0.7455  0.4586 -0.4350
  114OSM   C16F11965   1.503   0.785   9.051  0.4454  0.2054  1.0404
  114OSM   H16F11966   1.572   0.870   9.070  1.7286 -0.6656  0.3966
  114OSM   H16G11967   1.403   0.833   9.049  0.2827 -0.1415  0.6540
  114OSM   C17F11968   1.523   0.701   8.929 -0.0050 -0.1722 -0.2583
  114OSM   H17F11969   1.444   0.623   8.927 -1.2222  1.0778 -2.1648
  114OSM   H17G11970   1.623   0.653   8.930  0.4304  0.7117  1.9141
  114OSM   C18F11971   1.501   0.766   8.791  0.2838  0.0897 -0.2835
  114OSM   H18F11972   1.583   0.839   8.775 -0.2096  0.5418 -0.7893
  114OSM   H18G11973   1.402   0.816   8.793 -0.0350 -0.4601 -1.5183
  114OSM   H18H11974   1.496   0.694   8.706  3.0181 -0.7170  0.1883
  115OSM      N11975   5.185   4.775  11.206 -0.2408 -0.2232  0.0760
  115OSM    C1511976   5.290   4.863  11.251  0.1770 -0.1595  0.9560
  115OSM   H15A11977   5.269   4.967  11.233  2.7079  0.7147  2.7584
  115OSM   H15B11978   5.390   4.844  11.216  0.4321  0.6801  1.2253
  115OSM   H15C11979   5.296   4.855  11.359  1.5295 -0.0737  0.8941
  115OSM    C1411980   5.211   4.633  11.236  0.6671 -0.0021 -0.5859
  115OSM   H14A11981   5.194   4.610  11.341  0.6686  1.0018 -0.3550
  115OSM   H14B11982   5.310   4.603  11.205  0.2165 -1.1743 -0.9200
  115OSM   H14C11983   5.140   4.568  11.187 -2.3990  2.0699  0.8917
  115OSM    C1311984   5.046   4.812  11.260 -0.1041 -0.7584 -0.2800
  115OSM   H13A11985   4.965   4.750  11.225 -0.9895 -1.2527  2.5262
  115OSM   H13B11986   5.031   4.917  11.240 -1.9163 -0.9985 -0.2452
  115OSM   H13C11987   5.052   4.815  11.368 -1.5629  0.6832 -0.2226
  115OSM    C1211988   5.177   4.798  11.056 -0.7695 -0.8267  0.7696
  115OSM   H12A11989   5.150   4.900  11.034  1.3777 -0.4060 -0.0139
  115OSM   H12B11990   5.107   4.724  11.019 -1.5579 -0.5788  1.7546
  115OSM    C1111991   5.304   4.766  10.973 -0.2589  0.1060  0.0837
  115OSM   H11A11992   5.270   4.753  10.868  0.4993  1.9340 -0.4114
  115OSM   H11B11993   5.339   4.663  10.997 -2.4699 -1.1418 -1.8454
  115OSM      P11994   5.372   5.012  10.912 -0.3109  0.2656 -0.1340
  115OSM    O1311995   5.285   5.098  11.003 -0.3115  0.0660  0.0470
  115OSM    O1411996   5.496   5.080  10.859 -0.1595 -0.8712 -0.2218
  115OSM    O1111997   5.284   4.981  10.776  0.4768 -0.0146  0.3980
  115OSM    O1211998   5.409   4.870  10.970 -0.5993  0.3093  0.4228
  115OSM    C1S11999   5.221   5.092  10.712  0.3687  0.1902  0.3312
  115OSM    H1S12000   5.266   5.192  10.729 -0.9418  0.9193 -0.3720
  115OSM    H1T12001   5.116   5.098  10.747  0.0172 -0.6785 -0.5686
  115OSM     NF12002   5.213   5.195  10.477 -0.2373  0.2413  0.0682
  115OSM    HNF12003   5.134   5.219  10.421 -0.5624  0.6463  0.7042
  115OSM    C2S12004   5.230   5.070  10.550  0.0402  0.4441 -0.1349
  115OSM    H2S12005   5.333   5.045  10.519 -1.1542 -3.7022 -1.1051
  115OSM    C3S12006   5.136   4.950  10.510 -0.0372  0.0045  0.6753
  115OSM    H3S12007   5.036   4.991  10.533 -0.1899 -0.9150  1.7020
  115OSM     O312008   5.151   4.832  10.584 -0.1739 -0.4503  0.2063
  115OSM    HO312009   5.217   4.841  10.653  1.8939 -2.9682 -1.3226
  115OSM    C4S12010   5.146   4.917  10.360 -0.1485 -0.6520 -0.6253
  115OSM    H4S12011   5.082   4.979  10.296 -0.5822 -1.3169 -0.8333
  115OSM    C5S12012   5.213   4.811  10.306 -0.2399  0.1908  0.1708
  115OSM    H5S12013   5.263   4.739  10.372  0.0621  0.9531  0.7725
  115OSM    C6S12014   5.224   4.776  10.162 -0.0974  0.5874  0.0607
  115OSM    H6S12015   5.215   4.666  10.155 -0.1168  0.3693  2.8755
  115OSM    H6T12016   5.326   4.803  10.128 -0.5416  0.4667 -1.4055
  115OSM    C7S12017   5.132   4.848  10.058 -0.1199  0.1415 -0.3584
  115OSM    H7S12018   5.149   4.957  10.070 -0.9121  0.3129 -0.7262
  115OSM    H7T12019   5.026   4.827  10.083  0.7554 -3.6462  0.4379
  115OSM    C8S12020   5.176   4.815   9.912  0.0856  0.4560 -0.2509
  115OSM    H8S12021   5.164   4.705   9.898  0.7706  0.2180  0.9881
  115OSM    H8T12022   5.283   4.842   9.903  0.8672 -1.7115  1.9374
  115OSM    C9S12023   5.088   4.892   9.818 -0.1978 -0.1978 -0.0024
  115OSM    H9S12024   5.072   4.999   9.846 -0.8536 -0.2615 -0.1165
  115OSM    H9T12025   4.986   4.850   9.828  0.2634 -1.3633 -0.1059
  115OSM   C10S12026   5.138   4.891   9.674  0.2393  0.4915  0.1198
  115OSM   H10S12027   5.160   4.791   9.630 -0.5520 -0.2712  1.4525
  115OSM   H10T12028   5.242   4.930   9.673  0.0436  1.0262  0.5921
  115OSM   C11S12029   5.046   4.969   9.577  0.7790  0.1201 -0.3039
  115OSM   H11S12030   5.059   5.079   9.591 -0.2297  0.0417  1.4111
  115OSM   H11T12031   4.941   4.955   9.609  0.3931  2.5345 -0.4033
  115OSM   C12S12032   5.058   4.926   9.428 -0.8821  0.9070 -1.0065
  115OSM   H12S12033   5.036   4.818   9.412  1.9201  0.0005  0.8346
  115OSM   H12T12034   5.160   4.942   9.386 -1.3331  2.0718 -1.6537
  115OSM   C13S12035   4.951   5.002   9.333 -0.0023 -0.5973  0.1950
  115OSM   H13S12036   4.970   5.111   9.338 -0.4588 -0.4856 -0.4617
  115OSM   H13T12037   4.848   4.990   9.371  0.4166 -0.7000  1.3052
  115OSM   C14S12038   4.960   4.941   9.194  0.0609  0.3739  0.6721
  115OSM   H14S12039   5.068   4.947   9.168  0.5470  2.1062  3.0053
  115OSM   H14T12040   4.922   5.019   9.124  1.2083  1.0148  0.7542
  115OSM   C15S12041   4.906   4.800   9.166 -0.0305  0.0461  0.2584
  115OSM   H15S12042   4.797   4.816   9.177  0.3006  1.6088  1.5387
  115OSM   H15T12043   4.937   4.708   9.220  0.2439  1.2155  2.1305
  115OSM   C16S12044   4.931   4.741   9.020  0.1075 -0.1663 -0.4781
  115OSM   H16S12045   5.037   4.711   9.008  0.1715  0.3571 -1.2487
  115OSM   H16T12046   4.929   4.828   8.952  2.8293  1.0011  0.8661
  115OSM   C17S12047   4.838   4.627   8.989 -0.2198 -0.5020 -0.3714
  115OSM   H17S12048   4.740   4.676   9.007  0.6614  1.3994 -0.6213
  115OSM   H17T12049   4.853   4.558   9.074  1.0196  0.3813  0.1483
  115OSM   C18S12050   4.858   4.555   8.856  0.2153 -0.6124 -0.3530
  115OSM   H18S12051   4.962   4.513   8.858  0.0793 -1.0303 -1.4235
  115OSM   H18T12052   4.842   4.627   8.773 -0.6646 -1.3939 -0.8665
  115OSM   H18U12053   4.784   4.474   8.838  1.7413 -1.8864 -1.0722
  115OSM    C1F12054   5.288   5.307  10.492  1.0817 -1.0637  0.0254
  115OSM     OF12055   5.394   5.320  10.556 -0.2149  0.0910 -0.0088
  115OSM    C2F12056   5.243   5.422  10.409  0.1213  0.5374 -0.0427
  115OSM    H2F12057   5.146   5.403  10.358  0.0937 -0.0065  0.2109
  115OSM    H2G12058   5.318   5.440  10.328 -1.6331  1.9870 -1.4105
  115OSM    C3F12059   5.227   5.549  10.491 -0.3779  0.7244 -0.2764
  115OSM    H3F12060   5.326   5.572  10.537 -1.2149  2.6265  0.5943
  115OSM    H3G12061   5.157   5.537  10.576  0.3211 -1.1602  0.0664
  115OSM    C4F12062   5.194   5.672  10.409  0.1799 -0.1371 -0.2576
  115OSM    H4F12063   5.269   5.692  10.330  0.1369 -1.2658 -0.5997
  115OSM    H4G12064   5.208   5.759  10.476  2.5294 -0.4731 -0.2933
  115OSM    C5F12065   5.046   5.670  10.357  0.0895 -0.3015 -0.1709
  115OSM    H5F12066   4.994   5.640  10.450 -1.5059 -3.6898 -2.0713
  115OSM    H5G12067   5.035   5.582  10.289  0.4393  1.8539 -3.1104
  115OSM    C6F12068   5.014   5.808  10.306  0.9426 -0.7678  0.3278
  115OSM    H6F12069   5.058   5.892  10.365 -0.0132 -0.2526  0.3310
  115OSM    H6G12070   4.904   5.827  10.313  1.1300  0.1975  0.7415
  115OSM    C7F12071   5.052   5.826  10.161 -0.1294  0.0616  0.6348
  115OSM    H7F12072   4.987   5.761  10.097  0.8319  0.2351 -0.5181
  115OSM    H7G12073   5.154   5.789  10.136 -0.2635  0.1946 -0.1238
  115OSM    C8F12074   5.039   5.968  10.110 -0.6596  0.2148  0.1475
  115OSM    H8F12075   5.090   5.984  10.012 -0.6397 -0.5172  0.0369
  115OSM    H8G12076   5.086   6.040  10.180  1.1873 -2.6230  1.9275
  115OSM    C9F12077   4.893   5.993  10.081 -0.5005 -0.1025  0.3102
  115OSM    H9F12078   4.834   6.017  10.171  0.6010 -0.2054  1.0787
  115OSM   C10F12079   4.834   5.979   9.963  0.0898 -0.2329  0.4507
  115OSM   H10F12080   4.725   5.966   9.959  0.0795 -0.1977  0.6343
  115OSM   C11F12081   4.901   5.928   9.839 -1.3484  0.1447  0.0619
  115OSM   H11F12082   4.945   5.827   9.856 -0.4988  0.7328  1.4660
  115OSM   H11G12083   4.984   5.994   9.808 -0.2235 -1.8171 -1.2263
  115OSM   C12F12084   4.803   5.937   9.714  0.6289  0.6973 -0.1295
  115OSM   H12F12085   4.708   5.883   9.736 -0.0073  1.4145 -1.0623
  115OSM   H12G12086   4.848   5.892   9.623  0.0507 -2.9589  1.2775
  115OSM   C13F12087   4.772   6.079   9.678 -0.6711 -0.1087 -0.3294
  115OSM   H13F12088   4.868   6.117   9.636 -1.2161  3.9472  1.8951
  115OSM   H13G12089   4.768   6.127   9.778  0.2619 -2.5603  0.9344
  115OSM   C14F12090   4.657   6.117   9.584 -0.1156 -0.5487  0.0357
  115OSM   H14F12091   4.662   6.227   9.567 -0.6340 -0.3599  1.1016
  115OSM   H14G12092   4.562   6.099   9.639 -0.0428  1.7910  1.0069
  115OSM   C15F12093   4.655   6.040   9.448 -0.2480  0.3666 -0.2859
  115OSM   H15F12094   4.580   6.090   9.383  0.7688  0.7723 -1.1665
  115OSM   H15G12095   4.621   5.937   9.472  0.5227 -0.2799 -1.8254
  115OSM   C16F12096   4.783   6.041   9.366  0.0502  0.3312  0.0448
  115OSM   H16F12097   4.845   5.954   9.399 -1.4941 -0.5842  0.5947
  115OSM   H16G12098   4.841   6.135   9.370  1.2480 -0.4359  1.5849
  115OSM   C17F12099   4.750   6.023   9.214 -0.6170  0.2424  0.1018
  115OSM   H17F12100   4.692   6.105   9.166 -1.8043  0.7951  2.3915
  115OSM   H17G12101   4.693   5.929   9.200  0.4461 -0.5320  0.9878
  115OSM   C18F12102   4.885   6.014   9.140 -0.3345  0.1282 -0.3595
  115OSM   H18F12103   4.895   5.981   9.034  2.7044 -2.0324  0.5128
  115OSM   H18G12104   4.946   5.937   9.192  1.1185  2.8134  2.0446
  115OSM   H18H12105   4.940   6.109   9.152 -0.3854  0.1965 -0.6734
  116OSM      N12106   1.301   2.370  11.327 -0.1802 -0.1287 -0.3911
  116OSM    C1512107   1.154   2.401  11.331  0.6002  0.6188  0.1400
  116OSM   H15A12108   1.140   2.491  11.273  2.5565 -0.5959 -2.3393
  116OSM   H15B12109   1.131   2.415  11.435 -1.0144  0.6356 -0.2183
  116OSM   H15C12110   1.093   2.327  11.282  0.4087  1.9015 -1.6444
  116OSM    C1412111   1.380   2.486  11.383 -0.5586  0.4722  0.1627
  116OSM   H14A12112   1.376   2.501  11.490 -0.3613  0.6859  0.1430
  116OSM   H14B12113   1.349   2.585  11.353  1.0248  0.7090 -0.7785
  116OSM   H14C12114   1.483   2.470  11.354 -1.0578  0.4035 -1.6370
  116OSM    C1312115   1.325   2.238  11.393  0.7874  0.4640  0.0073
  116OSM   H13A12116   1.263   2.165  11.344 -1.4315  0.7439  2.3177
  116OSM   H13B12117   1.305   2.251  11.498 -0.5213 -0.3298 -0.1315
  116OSM   H13C12118   1.430   2.217  11.380  0.5747 -0.7889  0.3197
  116OSM    C1212119   1.329   2.355  11.178 -0.4931 -0.0134 -0.2545
  116OSM   H12A12120   1.326   2.455  11.140  2.6960 -0.4875 -1.9137
  116OSM   H12B12121   1.248   2.305  11.127 -0.6282 -1.2566  1.1406
  116OSM    C1112122   1.458   2.300  11.121  0.4579 -0.0238 -0.0994
  116OSM   H11A12123   1.437   2.297  11.012 -1.1369 -0.6120  0.2063
  116OSM   H11B12124   1.479   2.196  11.156 -0.2479 -0.4470 -0.9192
  116OSM      P12125   1.608   2.502  11.060  0.1055 -0.6688  0.3423
  116OSM    O1312126   1.491   2.592  11.057  0.3952  0.0384 -0.1264
  116OSM    O1412127   1.745   2.556  11.089  0.4059  0.3613 -0.1858
  116OSM    O1112128   1.621   2.439  10.916  0.1863  0.0111 -0.9392
  116OSM    O1212129   1.575   2.379  11.154  0.0816 -0.0233  0.6416
  116OSM    C1S12130   1.701   2.332  10.877 -0.0901  0.7820  0.3867
  116OSM    H1S12131   1.650   2.234  10.882  2.1426 -0.5476 -1.5391
  116OSM    H1T12132   1.786   2.328  10.948 -0.5667 -0.7372  0.8982
  116OSM     NF12133   1.819   2.227  10.698  0.0095  0.0141 -0.2489
  116OSM    HNF12134   1.915   2.235  10.672 -0.2951 -1.3439 -1.8507
  116OSM    C2S12135   1.746   2.339  10.732  0.3116 -0.3546  0.1272
  116OSM    H2S12136   1.653   2.337  10.671  0.3136 -1.1548  0.1470
  116OSM    C3S12137   1.821   2.471  10.693 -0.8725 -0.1250  0.5672
  116OSM    H3S12138   1.925   2.459  10.729 -1.6939 -0.0068  3.0247
  116OSM     O312139   1.764   2.588  10.748 -0.3321  0.0317  0.1465
  116OSM    HO312140   1.697   2.560  10.811 -0.0331 -1.2493 -0.0894
  116OSM    C4S12141   1.826   2.482  10.539 -0.0157 -0.2692  0.0169
  116OSM    H4S12142   1.903   2.420  10.490 -1.1124 -1.4328 -0.2714
  116OSM    C5S12143   1.745   2.545  10.446  0.0404 -0.1322  0.9764
  116OSM    H5S12144   1.664   2.608  10.484 -0.1441 -0.5743  1.3298
  116OSM    C6S12145   1.777   2.537  10.298  0.1410 -0.1636 -0.3982
  116OSM    H6S12146   1.839   2.624  10.270  2.1213 -1.8725 -1.5039
  116OSM    H6T12147   1.679   2.546  10.246  1.1047  0.4270 -2.1503
  116OSM    C7S12148   1.846   2.423  10.230 -0.5369  0.9483  0.6412
  116OSM    H7S12149   1.790   2.329  10.251  0.1043 -0.3019 -3.0197
  116OSM    H7T12150   1.942   2.418  10.287 -1.0868 -0.7418  1.4677
  116OSM    C8S12151   1.842   2.433  10.083 -0.1498 -0.8293 -0.0551
  116OSM    H8S12152   1.871   2.535  10.049 -1.5144 -0.5959 -0.5783
  116OSM    H8T12153   1.741   2.418  10.039  0.1871 -0.4757 -0.9642
  116OSM    C9S12154   1.937   2.333  10.016 -0.3694  0.0536  0.2341
  116OSM    H9S12155   1.900   2.237  10.057 -3.5483  1.4643  0.8428
  116OSM    H9T12156   2.042   2.352  10.046 -0.6109  2.1325 -0.1763
  116OSM   C10S12157   1.936   2.340   9.860  0.0336 -0.3174 -0.8112
  116OSM   H10S12158   1.961   2.441   9.821 -0.3154  0.8398  1.8597
  116OSM   H10T12159   1.831   2.313   9.838 -0.6185  0.4930  1.2315
  116OSM   C11S12160   2.025   2.237   9.787 -0.5311  0.1673 -0.4690
  116OSM   H11S12161   2.009   2.136   9.830 -2.6795  0.1910 -1.1609
  116OSM   H11T12162   2.128   2.274   9.803 -0.3909 -0.1667 -0.6128
  116OSM   C12S12163   1.999   2.229   9.634  0.7014  0.0342 -0.0058
  116OSM   H12S12164   1.890   2.213   9.620  0.5053  0.4195  0.9999
  116OSM   H12T12165   2.055   2.144   9.591 -0.5052 -1.2140  0.8485
  116OSM   C13S12166   2.036   2.357   9.560  0.0676  0.6205  0.2368
  116OSM   H13S12167   2.146   2.370   9.567 -0.1072  2.5313 -0.2792
  116OSM   H13T12168   1.995   2.452   9.599  0.7752  0.9834  0.1016
  116OSM   C14S12169   2.003   2.348   9.414 -0.2681  0.8329 -0.1120
  116OSM   H14S12170   1.894   2.347   9.396 -0.2764 -2.1328 -0.1146
  116OSM   H14T12171   2.048   2.254   9.375  0.8812  1.9779 -1.6214
  116OSM   C15S12172   2.077   2.459   9.339  0.7200 -0.0474 -0.0675
  116OSM   H15S12173   2.186   2.452   9.357  0.6293 -0.5402  0.3160
  116OSM   H15T12174   2.053   2.561   9.376 -0.7968  0.2778 -1.8951
  116OSM   C16S12175   2.044   2.459   9.194 -0.0873  0.1718 -0.1697
  116OSM   H16S12176   1.935   2.472   9.180 -0.3227  0.1344  1.5314
  116OSM   H16T12177   2.071   2.362   9.146 -1.0491  1.0015 -2.4638
  116OSM   C17S12178   2.128   2.561   9.111  0.1471 -0.3477 -0.3132
  116OSM   H17S12179   2.107   2.658   9.162 -0.3709 -0.5698 -0.1071
  116OSM   H17T12180   2.083   2.577   9.011 -1.7570 -0.7087  0.4569
  116OSM   C18S12181   2.286   2.532   9.104 -0.3420  0.1977 -0.3413
  116OSM   H18S12182   2.289   2.427   9.067  1.2545 -0.0674  0.4903
  116OSM   H18T12183   2.331   2.526   9.205 -0.2425  0.4072 -0.3743
  116OSM   H18U12184   2.332   2.598   9.027  0.3194 -0.8349 -0.8618
  116OSM    C1F12185   1.755   2.108  10.676  0.3102 -0.3610  0.7451
  116OSM     OF12186   1.638   2.087  10.658 -0.2100 -0.2572 -0.9588
  116OSM    C2F12187   1.845   1.991  10.672 -0.5196  0.3501  1.1823
  116OSM    H2F12188   1.817   1.942  10.768 -0.4217 -1.9884  0.0562
  116OSM    H2G12189   1.953   2.012  10.686  0.1369 -0.8836 -1.6924
  116OSM    C3F12190   1.811   1.901  10.552  0.1088  0.5323 -0.4092
  116OSM    H3F12191   1.852   1.948  10.460  3.2504  2.4123  1.8368
  116OSM    H3G12192   1.703   1.884  10.532 -0.1809 -0.3042  1.6739
  116OSM    C4F12193   1.863   1.762  10.573  0.0609 -0.2211 -0.1675
  116OSM    H4F12194   1.827   1.724  10.671  2.2799 -0.6602  0.5006
  116OSM    H4G12195   1.972   1.784  10.584  0.1654 -1.8200  2.5981
  116OSM    C5F12196   1.836   1.660  10.463  0.8361 -0.3986 -0.0339
  116OSM    H5F12197   1.853   1.716  10.369 -1.1294 -0.0696 -0.2247
  116OSM    H5G12198   1.727   1.638  10.464  0.8396 -0.5158 -2.0116
  116OSM    C6F12199   1.923   1.539  10.466 -0.1014  0.1268  0.0218
  116OSM    H6F12200   1.896   1.478  10.555 -2.8490  2.7017  1.0506
  116OSM    H6G12201   2.029   1.572  10.471 -0.0640 -0.2090  1.8348
  116OSM    C7F12202   1.903   1.445  10.341  0.0115  0.1395 -0.2701
  116OSM    H7F12203   1.793   1.429  10.335  0.1837 -1.5542  0.6801
  116OSM    H7G12204   1.932   1.342  10.371  1.1604 -0.1045 -2.1314
  116OSM    C8F12205   1.956   1.498  10.214  0.0314 -0.3548 -0.2644
  116OSM    H8F12206   1.927   1.604  10.197 -1.4847 -0.7333 -0.1314
  116OSM    H8G12207   1.905   1.445  10.130  1.8562 -0.7609 -1.1392
  116OSM    C9F12208   2.103   1.466  10.203  0.1535  0.1621  0.3387
  116OSM    H9F12209   2.155   1.458  10.299  0.2264  1.3895  0.4059
  116OSM   C10F12210   2.172   1.423  10.099 -0.2955 -0.2041  0.3760
  116OSM   H10F12211   2.282   1.417  10.102 -0.2239  0.6595 -0.2155
  116OSM   C11F12212   2.120   1.415   9.958  0.6616 -0.7382 -0.5900
  116OSM   H11F12213   2.014   1.389   9.937  0.9300 -1.8785 -0.5580
  116OSM   H11G12214   2.176   1.338   9.900  1.7645  0.1045 -0.6566
  116OSM   C12F12215   2.142   1.542   9.870  0.3614 -0.2403 -0.2433
  116OSM   H12F12216   2.250   1.566   9.874  0.1979  0.4985 -0.2576
  116OSM   H12G12217   2.079   1.622   9.914  2.3276  0.8598  0.6051
  116OSM   C13F12218   2.101   1.532   9.719 -0.1427  0.2252 -0.4512
  116OSM   H13F12219   2.121   1.631   9.673 -0.2660  0.4536 -0.0164
  116OSM   H13G12220   1.990   1.531   9.714 -0.1133  0.2032 -1.0637
  116OSM   C14F12221   2.160   1.407   9.644  0.1600 -0.5075  0.7308
  116OSM   H14F12222   2.104   1.318   9.682 -0.5353  0.1515  1.2665
  116OSM   H14G12223   2.265   1.404   9.679  0.4021 -0.0782  0.0439
  116OSM   C15F12224   2.152   1.416   9.495  0.6720 -0.2482  0.1672
  116OSM   H15F12225   2.215   1.503   9.465 -0.7526 -0.7397 -4.6945
  116OSM   H15G12226   2.047   1.442   9.467  0.3402 -1.7239 -0.0178
  116OSM   C16F12227   2.204   1.295   9.414  0.5858  0.5766 -0.1967
  116OSM   H16F12228   2.143   1.204   9.427 -0.4396  1.3599  0.5660
  116OSM   H16G12229   2.296   1.259   9.465 -0.4880 -0.9293  0.7218
  116OSM   C17F12230   2.227   1.334   9.265 -0.2610 -0.6454 -0.4348
  116OSM   H17F12231   2.325   1.386   9.260 -0.1988 -0.5136  1.5249
  116OSM   H17G12232   2.159   1.415   9.231  2.2511  1.4884 -0.5614
  116OSM   C18F12233   2.246   1.222   9.155  0.3558  0.7846  0.0327
  116OSM   H18F12234   2.285   1.126   9.195  0.2879 -0.4010 -2.6315
  116OSM   H18G12235   2.326   1.239   9.080  1.8594 -1.1497  1.1591
  116OSM   H18H12236   2.156   1.178   9.106  0.3930  2.3261 -1.4706
  117OSM      N12237   5.674   2.989  11.020 -0.1191  0.3202 -0.4025
  117OSM    C1512238   5.673   2.876  11.126  0.1799 -0.2186  0.0477
  117OSM   H15A12239   5.765   2.868  11.183  0.7120  3.4700 -0.1676
  117OSM   H15B12240   5.663   2.782  11.074 -0.1526  0.1736 -0.5963
  117OSM   H15C12241   5.593   2.892  11.196  1.0656 -0.9394  1.2476
  117OSM    C1412242   5.539   3.020  10.965  0.8592  0.1070 -0.6730
  117OSM   H14A12243   5.532   3.008  10.858  0.9954  1.2066 -0.8099
  117OSM   H14B12244   5.529   3.126  10.981 -1.9004  0.0216 -1.5061
  117OSM   H14C12245   5.452   2.978  11.014  0.9844  1.5660  0.8270
  117OSM    C1312246   5.712   3.106  11.097  0.3080 -0.2753  0.0250
  117OSM   H13A12247   5.797   3.082  11.160 -1.0400 -3.7023  0.6813
  117OSM   H13B12248   5.642   3.148  11.167  1.1158 -0.5070  0.9935
  117OSM   H13C12249   5.738   3.187  11.031 -0.3074  0.5151  0.7466
  117OSM    C1212250   5.771   2.959  10.905 -0.4322 -0.0867 -0.0844
  117OSM   H12A12251   5.727   2.878  10.851 -1.1538  0.7538 -0.7658
  117OSM   H12B12252   5.860   2.926  10.958 -2.6679 -3.9813  1.4337
  117OSM    C1112253   5.808   3.071  10.804  0.2617  0.0848 -0.1644
  117OSM   H11A12254   5.712   3.101  10.756  0.6263  2.0276  0.2840
  117OSM   H11B12255   5.862   3.023  10.720 -0.6090 -2.4588  0.6969
  117OSM      P12256   6.021   3.160  10.909 -0.2053 -0.0256 -0.2115
  117OSM    O1312257   6.068   3.286  10.960 -0.1821  0.1463  0.0959
  117OSM    O1412258   6.034   3.046  11.002 -0.2014  0.0296  0.3128
  117OSM    O1112259   6.089   3.128  10.768  0.1295  0.2837  0.2765
  117OSM    O1212260   5.872   3.181  10.872  0.2144 -0.0357  0.2496
  117OSM    C1S12261   6.205   3.197  10.726 -0.0190  0.5616  0.7986
  117OSM    H1S12262   6.293   3.142  10.764 -0.4029  1.0984  2.5239
  117OSM    H1T12263   6.213   3.305  10.752  0.4209  0.9977 -1.0886
  117OSM     NF12264   6.326   3.226  10.519 -0.3210 -0.2662  0.3101
  117OSM    HNF12265   6.343   3.315  10.477  1.2932 -0.8903 -0.3927
  117OSM    C2S12266   6.200   3.208  10.574  0.0497  0.2720 -0.5585
  117OSM    H2S12267   6.155   3.114  10.536  0.1602 -0.5980  1.4264
  117OSM    C3S12268   6.099   3.319  10.523  0.0421 -0.5128 -0.6634
  117OSM    H3S12269   6.136   3.423  10.516 -1.0093 -0.1150 -0.3311
  117OSM     O312270   5.970   3.319  10.589 -0.7175  0.1898 -0.0323
  117OSM    HO312271   5.974   3.255  10.661 -1.7210  1.1342  0.8769
  117OSM    C4S12272   6.089   3.297  10.370 -0.5627 -0.4624  0.1660
  117OSM    H4S12273   6.167   3.354  10.318 -1.3295  1.7348  1.3617
  117OSM    C5S12274   5.999   3.222  10.298 -0.2937 -0.0652 -0.1129
  117OSM    H5S12275   5.929   3.161  10.357  2.2618 -0.3981  2.7439
  117OSM    C6S12276   5.978   3.208  10.144 -0.2659 -0.2113  0.4668
  117OSM    H6S12277   5.871   3.238  10.142  0.6287  3.2554  0.2424
  117OSM    H6T12278   5.985   3.099  10.122 -3.4298 -0.5026  0.6079
  117OSM    C7S12279   6.057   3.283  10.033  0.0909 -0.2668 -0.3180
  117OSM    H7S12280   6.162   3.247  10.038 -0.1394 -0.8866  0.1380
  117OSM    H7T12281   6.062   3.393  10.049  0.1614 -0.2622 -0.3702
  117OSM    C8S12282   6.000   3.250   9.893 -0.2208  0.3841 -0.3699
  117OSM    H8S12283   5.899   3.296   9.880  0.1023  0.2458 -3.7543
  117OSM    H8T12284   5.996   3.139   9.884 -0.6218  0.4104 -0.5454
  117OSM    C9S12285   6.082   3.288   9.780 -0.1909  0.5901  0.8674
  117OSM    H9S12286   6.190   3.263   9.790 -0.4213  0.4947  3.4110
  117OSM    H9T12287   6.096   3.398   9.771 -2.6208  0.8272 -0.3519
  117OSM   C10S12288   6.017   3.232   9.649 -0.2585  0.9386 -0.0748
  117OSM   H10S12289   5.906   3.242   9.659  0.1170  6.3155  0.3283
  117OSM   H10T12290   6.035   3.122   9.647 -1.4486  0.6781  1.9295
  117OSM   C11S12291   6.075   3.303   9.523 -0.0074 -0.0347 -0.3971
  117OSM   H11S12292   6.185   3.319   9.531 -0.1421  1.3612 -1.1321
  117OSM   H11T12293   6.026   3.403   9.520  1.5364  0.8920  2.5955
  117OSM   C12S12294   6.046   3.222   9.393  0.3325  0.0553  0.7595
  117OSM   H12S12295   5.956   3.159   9.410  0.2511 -0.0706 -0.1471
  117OSM   H12T12296   6.132   3.154   9.379 -0.6538 -1.1927  0.7120
  117OSM   C13S12297   6.021   3.311   9.269 -0.4379 -0.8089 -0.0010
  117OSM   H13S12298   6.086   3.401   9.263 -1.1580 -0.0756  2.6581
  117OSM   H13T12299   5.916   3.347   9.273 -0.6408 -1.3870 -0.0235
  117OSM   C14S12300   6.030   3.235   9.144 -0.0993  0.8811  0.0393
  117OSM   H14S12301   5.950   3.162   9.168 -0.0195  1.2134  1.3533
  117OSM   H14T12302   6.127   3.180   9.141 -0.0451  0.9049  1.1559
  117OSM   C15S12303   5.992   3.313   9.021  0.3996 -0.2834  0.7281
  117OSM   H15S12304   6.032   3.416   9.011 -0.1043  0.3603  4.3483
  117OSM   H15T12305   5.885   3.341   9.032  0.4851 -0.2654  1.6039
  117OSM   C16S12306   6.017   3.235   8.890  0.2621  0.4578  0.0062
  117OSM   H16S12307   5.982   3.132   8.908 -1.1629  1.3139  2.2728
  117OSM   H16T12308   6.125   3.232   8.865  1.2243  0.1159  3.9369
  117OSM   C17S12309   5.936   3.298   8.771 -0.5686 -0.0870 -0.0190
  117OSM   H17S12310   5.977   3.247   8.682 -1.0435  1.8192 -1.3642
  117OSM   H17T12311   5.963   3.406   8.772 -0.6230 -0.0611 -1.1543
  117OSM   C18S12312   5.786   3.268   8.771 -0.4953  0.0078 -0.2635
  117OSM   H18S12313   5.739   3.311   8.680 -1.2566 -2.7320 -1.2053
  117OSM   H18T12314   5.734   3.313   8.859 -1.5588  1.1832 -1.4744
  117OSM   H18U12315   5.779   3.157   8.772 -1.0715  0.0426 -0.7990
  117OSM    C1F12316   6.421   3.135  10.526 -0.1846  0.0847  0.2364
  117OSM     OF12317   6.392   3.020  10.549 -0.0158 -0.0678 -0.1978
  117OSM    C2F12318   6.565   3.175  10.509 -0.1129 -0.6919 -0.0064
  117OSM    H2F12319   6.613   3.180  10.609  1.4584  1.0238 -0.8135
  117OSM    H2G12320   6.580   3.279  10.473  1.7695 -0.5222  1.1745
  117OSM    C3F12321   6.643   3.062  10.431  0.0902  0.3615  0.0509
  117OSM    H3F12322   6.622   2.966  10.483 -1.6328 -0.2995 -1.8053
  117OSM    H3G12323   6.749   3.096  10.423  0.8432 -2.2262 -1.4408
  117OSM    C4F12324   6.602   3.056  10.290 -0.0048  0.4665  0.5409
  117OSM    H4F12325   6.573   3.154  10.248 -0.7471 -0.5059 -1.2586
  117OSM    H4G12326   6.521   2.983  10.270 -0.0707  0.6623  0.0945
  117OSM    C5F12327   6.725   2.999  10.207  0.5968  0.2634  0.0550
  117OSM    H5F12328   6.750   2.904  10.258 -0.1408  1.5472  2.9441
  117OSM    H5G12329   6.818   3.059  10.221  0.5752  0.0720  1.1044
  117OSM    C6F12330   6.704   2.979  10.057 -0.3536 -0.2009  0.0837
  117OSM    H6F12331   6.647   3.071  10.031  0.1519  0.0942  0.0229
  117OSM    H6G12332   6.637   2.890  10.053 -3.0185  1.7801 -0.4455
  117OSM    C7F12333   6.837   2.949   9.990 -0.3757 -0.2980  0.5211
  117OSM    H7F12334   6.890   2.868  10.044  0.8603  0.1652  0.0312
  117OSM    H7G12335   6.900   3.041   9.992  1.1075 -1.2870  0.0031
  117OSM    C8F12336   6.814   2.895   9.844  0.5067  0.4974 -0.4500
  117OSM    H8F12337   6.744   2.809   9.856  1.5013 -0.2519  0.1145
  117OSM    H8G12338   6.907   2.867   9.790  2.4083  1.8913  2.0140
  117OSM    C9F12339   6.749   2.995   9.751 -0.3944  0.0998  0.4164
  117OSM    H9F12340   6.686   3.067   9.804 -2.3005 -0.2005 -1.3706
  117OSM   C10F12341   6.787   3.030   9.627 -0.2510 -0.1691  0.0538
  117OSM   H10F12342   6.729   3.113   9.584  0.6684  0.2138 -0.4651
  117OSM   C11F12343   6.889   2.960   9.538 -0.0118 -0.0175 -0.1760
  117OSM   H11F12344   6.832   2.934   9.446  1.5722  2.0856 -1.8096
  117OSM   H11G12345   6.926   2.861   9.572 -0.8646 -0.6677 -1.0990
  117OSM   C12F12346   7.008   3.048   9.509 -0.9265  0.1764 -0.1733
  117OSM   H12F12347   7.068   3.072   9.600  0.5946 -0.1294 -1.0791
  117OSM   H12G12348   6.968   3.137   9.456  0.0417  0.6738 -0.0863
  117OSM   C13F12349   7.115   2.991   9.414 -0.3488  0.0924  0.0056
  117OSM   H13F12350   7.171   2.920   9.477 -1.6302  1.5977  2.9224
  117OSM   H13G12351   7.187   3.067   9.376 -1.2521  0.0894 -1.8007
  117OSM   C14F12352   7.058   2.925   9.284  0.2153 -0.7785  0.2429
  117OSM   H14F12353   7.012   3.012   9.232  0.9882 -1.3827 -1.4757
  117OSM   H14G12354   6.985   2.844   9.304 -0.3034 -0.0431  1.3874
  117OSM   C15F12355   7.181   2.889   9.202 -0.0204  0.5373  0.6693
  117OSM   H15F12356   7.256   2.827   9.256  1.4192  1.0342 -0.7165
  117OSM   H15G12357   7.229   2.983   9.166  0.1263 -0.5973 -2.2944
  117OSM   C16F12358   7.148   2.799   9.083  0.3264  0.0506 -0.1436
  117OSM   H16F12359   7.124   2.857   8.992  3.0059  1.5749  0.0581
  117OSM   H16G12360   7.055   2.742   9.105  1.3927 -1.6082  0.1988
  117OSM   C17F12361   7.268   2.704   9.051  0.4201 -0.7809 -0.1801
  117OSM   H17F12362   7.311   2.652   9.140 -0.4533 -1.5479 -0.1855
  117OSM   H17G12363   7.355   2.765   9.021 -0.0452  0.9933  1.9234
  117OSM   C18F12364   7.254   2.609   8.935  0.5558 -0.1517  0.2849
  117OSM   H18F12365   7.209   2.668   8.852 -0.5740 -1.0125  0.2780
  117OSM   H18G12366   7.199   2.517   8.965  1.7995 -1.2045 -0.5910
  117OSM   H18H12367   7.356   2.568   8.918  0.0631 -3.5905  4.7481
  118OSM      N12368   6.746   3.998  10.901 -0.2600  0.0720  0.3296
  118OSM    C1512369   6.678   3.869  10.930 -0.1143 -0.4219 -1.0011
  118OSM   H15A12370   6.601   3.843  10.858  2.2641 -0.6234 -3.5386
  118OSM   H15B12371   6.619   3.883  11.020  2.4265  0.6566  0.5391
  118OSM   H15C12372   6.753   3.792  10.930  0.7941  0.4512 -2.0461
  118OSM    C1412373   6.810   3.989  10.767  0.3900  0.0669 -0.9259
  118OSM   H14A12374   6.763   3.917  10.702 -0.7044  0.3220 -0.4123
  118OSM   H14B12375   6.907   3.946  10.788  0.2561 -0.2659 -0.9779
  118OSM   H14C12376   6.820   4.086  10.722 -0.5834 -0.2095 -1.7440
  118OSM    C1312377   6.649   4.098  10.881 -0.1300 -0.0904  0.1789
  118OSM   H13A12378   6.692   4.192  10.850  1.1335  0.3139  2.9952
  118OSM   H13B12379   6.596   4.123  10.972 -0.7628  1.6745 -0.6424
  118OSM   H13C12380   6.572   4.073  10.810  1.4099 -0.7572 -1.2689
  118OSM    C1212381   6.844   4.032  11.006  0.7328  0.5483 -0.2503
  118OSM   H12A12382   6.920   3.955  11.004  0.4070  0.1982  0.4279
  118OSM   H12B12383   6.795   4.018  11.101  2.0830  0.7294  0.4846
  118OSM    C1112384   6.904   4.175  11.009  0.9399 -0.6501 -0.3538
  118OSM   H11A12385   6.941   4.196  10.907 -1.0393  2.6363 -0.4643
  118OSM   H11B12386   6.989   4.177  11.082  0.0251 -0.1675  0.7121
  118OSM      P12387   6.806   4.419  11.001 -0.2268  0.1660  0.3274
  118OSM    O1312388   6.707   4.500  11.070  0.6940 -0.1344 -0.8140
  118OSM    O1412389   6.942   4.472  10.987  0.2044  0.2114  0.1681
  118OSM    O1112390   6.753   4.398  10.856  0.0601 -0.0662  0.1158
  118OSM    O1212391   6.805   4.269  11.049  0.2914 -1.0732  0.1298
  118OSM    C1S12392   6.824   4.386  10.732 -0.0202 -0.0636  0.7074
  118OSM    H1S12393   6.891   4.297  10.734 -0.8485 -0.6912  1.6325
  118OSM    H1T12394   6.889   4.473  10.713  1.9666 -1.5867  0.3742
  118OSM     NF12395   6.810   4.357  10.503 -0.1300 -0.6074 -0.0649
  118OSM    HNF12396   6.819   4.441  10.450 -0.2390  1.0407  2.4107
  118OSM    C2S12397   6.734   4.375  10.611 -0.5695  0.0563  0.2390
  118OSM    H2S12398   6.679   4.279  10.618  0.7096 -0.7687 -0.7037
  118OSM    C3S12399   6.635   4.495  10.603  0.0559  0.5764 -0.2875
  118OSM    H3S12400   6.704   4.580  10.582  0.4111 -0.0382 -1.6608
  118OSM     O312401   6.567   4.536  10.722 -0.3077 -0.2253 -0.2302
  118OSM    HO312402   6.604   4.478  10.789  0.4405 -0.0749 -0.5081
  118OSM    C4S12403   6.541   4.468  10.487 -0.5602  0.0164  0.2983
  118OSM    H4S12404   6.520   4.361  10.471  0.9274 -0.1803 -0.4768
  118OSM    C5S12405   6.482   4.557  10.402 -1.2355 -0.0592  0.0603
  118OSM    H5S12406   6.494   4.666  10.413 -1.4411 -0.1355  1.0705
  118OSM    C6S12407   6.401   4.509  10.290  0.4394 -0.2435  0.1606
  118OSM    H6S12408   6.309   4.570  10.282 -1.1462 -2.7116 -1.0763
  118OSM    H6T12409   6.358   4.410  10.317  0.7803 -0.2515  0.6703
  118OSM    C7S12410   6.474   4.499  10.159 -0.1129 -0.4727  0.0525
  118OSM    H7S12411   6.565   4.436  10.168 -0.1451 -0.4347  0.6762
  118OSM    H7T12412   6.502   4.600  10.122  1.0315 -0.9582 -0.4342
  118OSM    C8S12413   6.388   4.423  10.059 -0.5353 -0.4881  0.4628
  118OSM    H8S12414   6.290   4.472  10.039  0.6443  2.0197  0.6390
  118OSM    H8T12415   6.370   4.317  10.088 -2.8178  0.1773  1.6317
  118OSM    C9S12416   6.448   4.425   9.917 -0.2254  0.1417 -0.2207
  118OSM    H9S12417   6.456   4.531   9.885  3.6153 -0.2598 -0.8133
  118OSM    H9T12418   6.370   4.382   9.850  0.0770 -1.8957  0.7165
  118OSM   C10S12419   6.576   4.347   9.895 -0.0884 -0.8261  0.2090
  118OSM   H10S12420   6.546   4.240   9.889  0.8087 -1.1176  0.7809
  118OSM   H10T12421   6.643   4.360   9.983 -0.2948  0.0401  0.2398
  118OSM   C11S12422   6.642   4.401   9.770 -0.1368 -0.0412  0.2898
  118OSM   H11S12423   6.739   4.348   9.769  0.6710  1.3638  2.0211
  118OSM   H11T12424   6.664   4.510   9.769  1.1231 -0.2991 -1.9342
  118OSM   C12S12425   6.578   4.361   9.634  0.2706  0.2474 -0.5463
  118OSM   H12S12426   6.470   4.383   9.643  0.5278  1.0097  0.6483
  118OSM   H12T12427   6.584   4.251   9.617  1.2837  0.2803 -0.4104
  118OSM   C13S12428   6.644   4.431   9.516 -0.1530 -0.2100  0.3105
  118OSM   H13S12429   6.624   4.541   9.521  2.9918  0.4135  0.5014
  118OSM   H13T12430   6.599   4.385   9.426  1.2987  1.7803 -1.5060
  118OSM   C14S12431   6.793   4.419   9.507 -0.6000  0.2139  0.3049
  118OSM   H14S12432   6.844   4.341   9.568 -0.3755 -0.8823 -1.2387
  118OSM   H14T12433   6.830   4.512   9.556 -1.6236  0.2366  1.0561
  118OSM   C15S12434   6.857   4.431   9.363  1.1135 -0.0943 -0.0934
  118OSM   H15S12435   6.955   4.472   9.395  1.2768  0.6445 -1.5243
  118OSM   H15T12436   6.793   4.501   9.305  0.5910 -0.4575  0.0384
  118OSM   C16S12437   6.881   4.300   9.291  0.5559  0.0890 -0.7748
  118OSM   H16S12438   6.794   4.232   9.304  3.1120 -3.2808 -0.6573
  118OSM   H16T12439   6.964   4.238   9.332 -1.4940 -1.7272  0.7394
  118OSM   C17S12440   6.893   4.321   9.133  0.1176  0.0257  0.7270
  118OSM   H17S12441   6.985   4.380   9.110  1.4692 -3.1807 -2.6335
  118OSM   H17T12442   6.797   4.367   9.103  0.2027 -0.5768 -0.4891
  118OSM   C18S12443   6.906   4.194   9.056  1.0084  0.0277 -0.5347
  118OSM   H18S12444   6.994   4.132   9.081  0.2606 -0.5686  0.6745
  118OSM   H18T12445   6.909   4.221   8.948 -0.5567  2.0813 -0.1154
  118OSM   H18U12446   6.816   4.130   9.069  1.8448 -0.9224  0.6193
  118OSM    C1F12447   6.884   4.255  10.470 -0.5419  0.5164  0.0462
  118OSM     OF12448   6.889   4.153  10.541 -0.0566  0.1270  0.3540
  118OSM    C2F12449   6.961   4.254  10.340 -0.0970 -0.4997 -0.0441
  118OSM    H2F12450   7.008   4.153  10.343 -0.4970 -0.6661  0.9063
  118OSM    H2G12451   7.044   4.326  10.351 -0.4000  0.1896 -2.1006
  118OSM    C3F12452   6.865   4.252  10.219  0.2815  0.1470  0.5153
  118OSM    H3F12453   6.788   4.332  10.224 -1.9706 -1.7581 -2.2771
  118OSM    H3G12454   6.811   4.155  10.213 -1.6768  1.2896 -0.5669
  118OSM    C4F12455   6.938   4.267  10.087  1.1296  0.0610 -0.3309
  118OSM    H4F12456   6.860   4.276  10.007  2.1731  2.6329 -1.0926
  118OSM    H4G12457   6.996   4.173  10.072 -0.0673 -0.6844 -0.4714
  118OSM    C5F12458   7.022   4.392  10.080  0.3618  0.5634  0.1750
  118OSM    H5F12459   7.131   4.368  10.079  0.8526  2.6963 -1.0015
  118OSM    H5G12460   7.010   4.450  10.174 -1.3244 -1.1527  1.0474
  118OSM    C6F12461   6.974   4.493   9.975 -0.1161  0.6642 -0.5131
  118OSM    H6F12462   6.872   4.536   9.991  0.3522  2.1720 -1.5131
  118OSM    H6G12463   6.975   4.438   9.879 -0.0883  0.4495 -0.3907
  118OSM    C7F12464   7.059   4.614   9.983  0.6198  0.1574 -0.4090
  118OSM    H7F12465   7.161   4.580   9.954  0.8520 -2.1564  2.8834
  118OSM    H7G12466   7.059   4.649  10.088  1.4046 -0.1606 -0.2996
  118OSM    C8F12467   7.023   4.727   9.887  0.2380  0.2508 -0.0403
  118OSM    H8F12468   6.949   4.789   9.941  2.0671  2.2912  0.2067
  118OSM    H8G12469   6.987   4.698   9.786 -3.2217  1.5159  0.7561
  118OSM    C9F12470   7.139   4.816   9.881 -0.3919 -0.8137 -0.3922
  118OSM    H9F12471   7.166   4.869   9.974  3.3488 -0.3673 -1.6544
  118OSM   C10F12472   7.218   4.834   9.777 -0.2326  0.7651  0.2250
  118OSM   H10F12473   7.305   4.901   9.778  1.6944 -1.5518 -2.8939
  118OSM   C11F12474   7.206   4.757   9.642 -0.1477  0.1880 -0.6793
  118OSM   H11F12475   7.141   4.667   9.647  0.0223  0.1614  1.8907
  118OSM   H11G12476   7.311   4.727   9.621  0.8550  2.2630  1.0952
  118OSM   C12F12477   7.147   4.858   9.547  0.1922 -0.3932  0.7387
  118OSM   H12F12478   7.155   4.810   9.448  4.3680 -0.5693  1.0691
  118OSM   H12G12479   7.204   4.953   9.533 -0.9235  0.2189  0.3052
  118OSM   C13F12480   6.999   4.892   9.560  0.1538  0.0131  0.0840
  118OSM   H13F12481   6.982   4.960   9.646  0.0927  0.3813 -0.2174
  118OSM   H13G12482   6.942   4.802   9.590  0.9585  0.1503  2.0936
  118OSM   C14F12483   6.936   4.973   9.450 -0.0615  0.2949  1.1267
  118OSM   H14F12484   6.985   5.072   9.457 -0.9641  0.8416  0.0432
  118OSM   H14G12485   6.829   4.992   9.474 -0.3482  0.8091 -0.4617
  118OSM   C15F12486   6.969   4.934   9.305 -0.1242 -0.3093 -0.0876
  118OSM   H15F12487   6.950   4.826   9.283  1.0114 -0.1858 -1.7612
  118OSM   H15G12488   7.078   4.947   9.288 -0.1504 -2.9223 -2.8010
  118OSM   C16F12489   6.899   5.031   9.203  0.1342 -0.0797  0.6267
  118OSM   H16F12490   6.956   5.126   9.199  0.0241 -0.0854 -1.7409
  118OSM   H16G12491   6.794   5.046   9.236  0.8872 -0.7030  3.4699
  118OSM   C17F12492   6.901   4.987   9.059  0.2197  0.0630  1.2328
  118OSM   H17F12493   6.839   4.895   9.064  0.1938  0.1243  2.1698
  118OSM   H17G12494   7.005   4.956   9.034 -0.7738 -2.0091 -0.4807
  118OSM   C18F12495   6.849   5.088   8.960  0.2737 -0.2625  0.0315
  118OSM   H18F12496   6.838   5.059   8.854  0.2396 -3.1851  0.7847
  118OSM   H18G12497   6.935   5.157   8.953  0.9576 -1.2762 -1.7277
  118OSM   H18H12498   6.767   5.153   8.999  0.3552 -0.0330 -0.1865
  119OSM      N12499   0.373   3.510  11.265  0.2219  0.2309 -0.0776
  119OSM    C1512500   0.270   3.476  11.369 -0.3726 -0.4726 -0.1753
  119OSM   H15A12501   0.258   3.369  11.379  3.6590 -0.9259  0.8543
  119OSM   H15B12502   0.177   3.524  11.344  0.5158  0.6870 -1.3123
  119OSM   H15C12503   0.309   3.511  11.464  0.1797 -0.3751 -0.4350
  119OSM    C1412504   0.414   3.648  11.278 -0.2022 -0.4716 -0.3277
  119OSM   H14A12505   0.466   3.666  11.371  2.0588 -0.8112 -1.5024
  119OSM   H14B12506   0.338   3.724  11.262  0.9906  0.6618 -0.6708
  119OSM   H14C12507   0.491   3.671  11.206  0.4567  0.5302  0.6742
  119OSM    C1312508   0.491   3.418  11.285 -0.0374 -0.9320 -0.8019
  119OSM   H13A12509   0.581   3.462  11.245  0.5097 -0.4906  0.8713
  119OSM   H13B12510   0.464   3.324  11.238 -0.9910 -0.6833 -0.7700
  119OSM   H13C12511   0.506   3.404  11.391 -0.3935 -2.9793 -1.0031
  119OSM    C1212512   0.309   3.489  11.131  0.5200 -0.6375 -0.2645
  119OSM   H12A12513   0.221   3.552  11.120 -0.9361 -2.5517  0.1656
  119OSM   H12B12514   0.273   3.387  11.130 -0.6649 -0.4265  4.6945
  119OSM    C1112515   0.405   3.521  11.010  0.2634 -0.1361  0.3763
  119OSM   H11A12516   0.470   3.608  11.034  1.3221 -1.2765  1.7262
  119OSM   H11B12517   0.335   3.549  10.929  1.3123 -0.0873 -0.5148
  119OSM      P12518   0.600   3.423  10.873 -0.3612 -0.0651  0.6680
  119OSM    O1312519   0.709   3.513  10.921 -0.0977  0.7320  0.1115
  119OSM    O1412520   0.648   3.289  10.832  0.2299 -0.3153  0.1474
  119OSM    O1112521   0.522   3.486  10.742  0.2276 -0.3205 -0.0967
  119OSM    O1212522   0.479   3.403  10.975  0.3257  0.3550 -0.2545
  119OSM    C1S12523   0.414   3.414  10.684 -0.1925  0.4043 -0.4431
  119OSM    H1S12524   0.318   3.450  10.727  1.1820 -0.9568  3.9969
  119OSM    H1T12525   0.410   3.307  10.712 -0.7484  0.6571  0.4648
  119OSM     NF12526   0.298   3.400  10.454 -0.0195 -0.2254  0.2396
  119OSM    HNF12527   0.312   3.303  10.434  0.9757 -0.1825  0.6921
  119OSM    C2S12528   0.410   3.444  10.526  0.8632 -0.0915 -0.2476
  119OSM    H2S12529   0.408   3.555  10.520  0.8525 -0.0447  0.5480
  119OSM    C3S12530   0.543   3.395  10.461  0.1889  0.1199  0.2652
  119OSM    H3S12531   0.554   3.285  10.466 -3.3718 -0.2696  1.5352
  119OSM     O312532   0.661   3.450  10.523  0.0802  0.1133  0.1977
  119OSM    HO312533   0.629   3.507  10.594  2.1062  1.3852  0.1340
  119OSM    C4S12534   0.551   3.435  10.310  0.0877 -0.0759  0.1757
  119OSM    H4S12535   0.540   3.542  10.283 -1.0785 -0.3861 -0.5985
  119OSM    C5S12536   0.563   3.344  10.210 -0.5891 -0.3152  0.0834
  119OSM    H5S12537   0.545   3.238  10.235  2.2023 -1.8288 -4.0085
  119OSM    C6S12538   0.575   3.377  10.061  0.5577 -0.8170 -0.6187
  119OSM    H6S12539   0.496   3.316  10.012 -1.3624  0.4840  0.7549
  119OSM    H6T12540   0.671   3.335  10.024 -0.4314 -1.9616 -1.9056
  119OSM    C7S12541   0.584   3.529  10.027  0.6467  0.2687 -0.5386
  119OSM    H7S12542   0.657   3.594  10.079  2.8280 -2.3245 -0.2654
  119OSM    H7T12543   0.484   3.570  10.054 -0.6267 -0.4873 -3.9039
  119OSM    C8S12544   0.611   3.567   9.883  0.5604 -0.1291 -0.2558
  119OSM    H8S12545   0.589   3.673   9.857  0.5172  0.3741  1.7478
  119OSM    H8T12546   0.537   3.508   9.824 -0.1725 -1.8590  2.3123
  119OSM    C9S12547   0.757   3.549   9.843 -0.3125  0.4231 -0.0357
  119OSM    H9S12548   0.791   3.446   9.870  1.9434  0.9864 -0.6491
  119OSM    H9T12549   0.828   3.624   9.885 -0.1258 -1.2270  2.7411
  119OSM   C10S12550   0.776   3.551   9.693  0.4135 -0.7825  0.5552
  119OSM   H10S12551   0.727   3.637   9.643  0.2596 -1.8714 -1.2041
  119OSM   H10T12552   0.733   3.456   9.656  2.0155 -1.1116 -0.5024
  119OSM   C11S12553   0.926   3.562   9.665  0.0312  0.1477 -0.3334
  119OSM   H11S12554   0.981   3.506   9.743 -0.4822  1.1326  0.7395
  119OSM   H11T12555   0.952   3.670   9.662 -1.3013  0.5105  0.5974
  119OSM   C12S12556   0.965   3.507   9.529 -0.4383  0.0884  0.5504
  119OSM   H12S12557   0.928   3.402   9.525 -0.3283  0.0414  0.7730
  119OSM   H12T12558   1.072   3.519   9.502 -0.6432 -0.3214 -0.4682
  119OSM   C13S12559   0.887   3.580   9.418 -0.0905 -0.5072 -0.2019
  119OSM   H13S12560   0.925   3.684   9.419  2.4267 -1.3803  0.4137
  119OSM   H13T12561   0.778   3.592   9.436 -0.4976 -1.3179 -2.0238
  119OSM   C14S12562   0.915   3.505   9.289  0.1047  0.1231 -0.5476
  119OSM   H14S12563   0.896   3.397   9.306  2.3466 -0.3061 -0.7119
  119OSM   H14T12564   1.023   3.509   9.266 -0.1362  1.1935 -1.5367
  119OSM   C15S12565   0.832   3.558   9.177 -0.3418 -1.0935 -0.6971
  119OSM   H15S12566   0.869   3.659   9.149  0.8145 -0.8890  1.4249
  119OSM   H15T12567   0.730   3.578   9.213  0.5945  0.6186  1.0723
  119OSM   C16S12568   0.826   3.461   9.063  0.0740  0.0029  0.3057
  119OSM   H16S12569   0.764   3.374   9.092 -0.9531  1.7868  3.7782
  119OSM   H16T12570   0.927   3.420   9.048  0.1225  0.5652 -1.0225
  119OSM   C17S12571   0.773   3.519   8.937  0.1178  0.7739  0.5701
  119OSM   H17S12572   0.672   3.559   8.959  0.4220  0.0296  3.5182
  119OSM   H17T12573   0.750   3.444   8.859 -0.8181  1.6033  0.0333
  119OSM   C18S12574   0.871   3.613   8.875  0.1489 -0.6524 -0.0720
  119OSM   H18S12575   0.846   3.646   8.772 -0.2231 -0.5073  0.0610
  119OSM   H18T12576   0.972   3.567   8.872  0.4229 -0.0057 -1.1875
  119OSM   H18U12577   0.881   3.706   8.935  1.1155  0.8033 -2.4155
  119OSM    C1F12578   0.180   3.454  10.458  0.0014 -0.7025  0.0546
  119OSM     OF12579   0.165   3.554  10.528  0.1531  0.5140  0.1509
  119OSM    C2F12580   0.065   3.374  10.393 -0.9877 -0.1779  0.3207
  119OSM    H2F12581  -0.025   3.439  10.385 -0.8520 -0.0081  0.1505
  119OSM    H2G12582   0.047   3.295  10.469 -0.8417 -0.5397 -0.0175
  119OSM    C3F12583   0.099   3.317  10.257  0.0768 -0.8348  0.4088
  119OSM    H3F12584   0.004   3.278  10.214 -0.5636  0.4320  0.6525
  119OSM    H3G12585   0.166   3.230  10.278  0.8658  0.4350  3.4569
  119OSM    C4F12586   0.166   3.407  10.155  0.1608  0.4480  0.0586
  119OSM    H4F12587   0.261   3.452  10.191 -1.0536  1.6660  1.8175
  119OSM    H4G12588   0.097   3.489  10.126 -0.0412  0.4862  0.6434
  119OSM    C5F12589   0.183   3.325  10.026  0.4543 -0.4618 -0.0365
  119OSM    H5F12590   0.084   3.276  10.015 -0.0784  0.9875 -1.9456
  119OSM    H5G12591   0.250   3.238  10.040  4.0709  2.3217  0.7642
  119OSM    C6F12592   0.209   3.413   9.906 -0.1757  0.3506 -0.9182
  119OSM    H6F12593   0.311   3.452   9.926  0.5617 -0.3688 -3.1447
  119OSM    H6G12594   0.137   3.497   9.899 -1.2766 -0.3869  0.9190
  119OSM    C7F12595   0.227   3.336   9.775  0.0354  0.2898 -0.0833
  119OSM    H7F12596   0.126   3.304   9.740  1.2718 -1.4889 -2.1640
  119OSM    H7G12597   0.289   3.244   9.785  2.6860  1.9496 -0.8256
  119OSM    C8F12598   0.294   3.410   9.650  0.7060 -0.4390  0.5482
  119OSM    H8F12599   0.313   3.334   9.572  3.1701  1.6329 -0.9381
  119OSM    H8G12600   0.395   3.448   9.675 -0.2937  1.9017  1.1817
  119OSM    C9F12601   0.221   3.523   9.579 -0.0922 -0.6092 -0.4071
  119OSM    H9F12602   0.123   3.556   9.618 -0.8289 -1.5921 -1.4334
  119OSM   C10F12603   0.270   3.580   9.470  0.3040  0.3995  0.2154
  119OSM   H10F12604   0.222   3.673   9.437 -1.9586 -0.7227  0.2728
  119OSM   C11F12605   0.402   3.534   9.402  0.3038 -0.4105  0.5585
  119OSM   H11F12606   0.461   3.464   9.465 -0.2586 -1.6272 -0.2634
  119OSM   H11G12607   0.464   3.626   9.394  0.5598 -0.6101  0.2477
  119OSM   C12F12608   0.385   3.493   9.258  0.1886 -0.2851 -0.2080
  119OSM   H12F12609   0.484   3.497   9.208 -0.6680 -0.4259 -1.9738
  119OSM   H12G12610   0.318   3.570   9.215 -0.1938 -1.1352 -1.1674
  119OSM   C13F12611   0.316   3.355   9.238 -0.7817  0.7107  0.0825
  119OSM   H13F12612   0.208   3.366   9.258 -0.9084  1.0993 -0.7846
  119OSM   H13G12613   0.369   3.278   9.299  2.1851  1.3764 -1.5530
  119OSM   C14F12614   0.335   3.300   9.101 -1.2411  0.3459  0.1535
  119OSM   H14F12615   0.288   3.365   9.024  0.5904  2.3753  0.6716
  119OSM   H14G12616   0.289   3.199   9.104 -1.5176  0.4500 -0.4684
  119OSM   C15F12617   0.486   3.276   9.050  0.5037 -0.5131  0.6968
  119OSM   H15F12618   0.555   3.244   9.131  2.5645  1.7157 -0.1219
  119OSM   H15G12619   0.523   3.380   9.038  1.3439 -0.6117  2.3322
  119OSM   C16F12620   0.503   3.179   8.938 -0.0550 -0.5531 -0.1771
  119OSM   H16F12621   0.477   3.077   8.972  1.5023 -0.2137  2.1192
  119OSM   H16G12622   0.612   3.182   8.917 -0.1995  1.1245 -0.7771
  119OSM   C17F12623   0.431   3.202   8.804  0.1357  0.0958  0.3476
  119OSM   H17F12624   0.323   3.221   8.822 -0.0948  0.0455 -0.9616
  119OSM   H17G12625   0.451   3.111   8.744  2.8924  1.1378 -0.3905
  119OSM   C18F12626   0.483   3.324   8.737  0.0689  0.0532  0.7221
  119OSM   H18F12627   0.487   3.409   8.808  0.0912 -0.6530  1.5757
  119OSM   H18G12628   0.418   3.359   8.654  3.1360 -0.2842 -1.9333
  119OSM   H18H12629   0.586   3.314   8.695 -1.1019 -2.2414 -1.7613
  120OSM      N12630   5.499   0.205  10.724 -0.4434 -0.5887 -0.3380
  120OSM    C1512631   5.419   0.323  10.683 -0.0418 -0.2331  0.8315
  120OSM   H15A12632   5.339   0.286  10.621  1.0220 -0.8883 -0.1758
  120OSM   H15B12633   5.476   0.381  10.613 -0.9993 -0.3883 -0.0928
  120OSM   H15C12634   5.379   0.377  10.767 -0.5200  0.3400  0.2407
  120OSM    C1412635   5.593   0.233  10.837 -0.3485  0.6763 -0.2079
  120OSM   H14A12636   5.538   0.266  10.924 -0.9343  2.0319 -1.0848
  120OSM   H14B12637   5.660   0.313  10.815 -1.1100  1.1389 -0.8715
  120OSM   H14C12638   5.644   0.145  10.874  1.0354  1.9535  0.9439
  120OSM    C1312639   5.410   0.098  10.779 -0.2826 -0.6443  0.2190
  120OSM   H13A12640   5.335   0.067  10.709  0.2218  1.5817 -1.3559
  120OSM   H13B12641   5.352   0.138  10.862 -0.5841  1.2275 -0.8481
  120OSM   H13C12642   5.459   0.009  10.815  1.3115  0.2344  0.2849
  120OSM    C1212643   5.575   0.147  10.605 -1.1099  0.7358 -0.3286
  120OSM   H12A12644   5.509   0.129  10.521 -0.2242 -0.9640 -0.6800
  120OSM   H12B12645   5.608   0.049  10.635  0.8152  1.4372 -0.1169
  120OSM    C1112646   5.695   0.225  10.558 -0.2356 -0.1678  0.5637
  120OSM   H11A12647   5.661   0.327  10.530 -1.8496 -0.9076 -0.2510
  120OSM   H11B12648   5.730   0.172  10.467  1.0429 -0.7203  1.3673
  120OSM      P12649   5.914   0.131  10.654 -0.4184  0.0927  0.1796
  120OSM    O1312650   6.010   0.175  10.763 -0.1651  0.1973  0.8804
  120OSM    O1412651   5.871  -0.007  10.660  1.0572  0.0165 -0.0242
  120OSM    O1112652   5.974   0.158  10.512  0.5364 -0.0305  0.3070
  120OSM    O1212653   5.797   0.229  10.660 -0.3104 -0.3126 -0.2263
  120OSM    C1S12654   6.031   0.279  10.476  0.0058 -0.3520  0.2600
  120OSM    H1S12655   6.097   0.320  10.556  0.7381  1.4427 -1.2369
  120OSM    H1T12656   5.954   0.359  10.466  0.2451  0.0362  1.3755
  120OSM     NF12657   6.194   0.397  10.329 -0.7948  0.3791  0.2605
  120OSM    HNF12658   6.162   0.470  10.269  0.2880  1.1798  0.6411
  120OSM    C2S12659   6.116   0.275  10.347 -0.7281  0.5375 -0.5064
  120OSM    H2S12660   6.185   0.188  10.352 -0.3391  0.8531 -0.3507
  120OSM    C3S12661   6.025   0.240  10.225  0.0675  0.2259  0.9111
  120OSM    H3S12662   5.962   0.327  10.197 -2.5444 -1.7699  0.3090
  120OSM     O312663   5.928   0.135  10.250  0.7247  0.0110  0.5554
  120OSM    HO312664   5.921   0.126  10.346  1.1462  2.7017  0.9044
  120OSM    C4S12665   6.116   0.208  10.115  0.6342 -0.2229  0.3995
  120OSM    H4S12666   6.148   0.297  10.059  0.2208 -0.1876  0.2195
  120OSM    C5S12667   6.152   0.082  10.075  0.4576 -0.3333  0.0169
  120OSM    H5S12668   6.116   0.001  10.140  1.0629 -1.8644 -1.5381
  120OSM    C6S12669   6.247   0.052   9.964  0.3119 -0.2830  0.1543
  120OSM    H6S12670   6.185   0.009   9.882  0.4719  0.2674 -0.2527
  120OSM    H6T12671   6.304  -0.033  10.007 -0.7299 -1.6983 -1.1627
  120OSM    C7S12672   6.330   0.156   9.906  0.4174  0.9591  0.3609
  120OSM    H7S12673   6.413   0.174   9.977  0.6092  0.7334  0.1959
  120OSM    H7T12674   6.276   0.252   9.892 -0.2345  0.3400 -1.6234
  120OSM    C8S12675   6.392   0.122   9.767 -0.0148 -0.4722 -0.4486
  120OSM    H8S12676   6.405   0.012   9.757 -0.3312 -0.3851 -1.8774
  120OSM    H8T12677   6.493   0.167   9.762  1.1801 -2.8151  1.5450
  120OSM    C9S12678   6.309   0.173   9.649  0.5321 -0.2254  0.8495
  120OSM    H9S12679   6.308   0.283   9.636  0.4755 -0.3573 -0.2567
  120OSM    H9T12680   6.204   0.144   9.674  0.1167  0.5870  0.0511
  120OSM   C10S12681   6.345   0.106   9.513 -0.2727 -0.2039 -0.1754
  120OSM   H10S12682   6.390   0.006   9.533 -1.9818 -0.7440  1.0935
  120OSM   H10T12683   6.421   0.175   9.470 -0.4793  1.4124  1.9945
  120OSM   C11S12684   6.234   0.087   9.412 -0.0500 -0.0015 -0.5061
  120OSM   H11S12685   6.190   0.186   9.390 -0.1072 -0.2479 -1.5548
  120OSM   H11T12686   6.154   0.021   9.453  1.1740 -0.2938  1.4770
  120OSM   C12S12687   6.286   0.020   9.280 -0.1189  0.1574 -0.0243
  120OSM   H12S12688   6.347  -0.069   9.309 -3.6908 -2.7429 -1.0122
  120OSM   H12T12689   6.357   0.094   9.238 -1.3892  0.6603 -1.3183
  120OSM   C13S12690   6.177  -0.021   9.189  0.5908 -0.3519  0.2164
  120OSM   H13S12691   6.095   0.053   9.193  0.7077 -0.1409 -1.0048
  120OSM   H13T12692   6.131  -0.120   9.210  0.4526 -0.6490 -1.4110
  120OSM   C14S12693   6.221  -0.012   9.041 -1.0235  0.5545 -0.1165
  120OSM   H14S12694   6.311  -0.072   9.018 -0.0169  0.9704  2.6487
  120OSM   H14T12695   6.257   0.090   9.013  0.0473  0.4455  0.8370
  120OSM   C15S12696   6.105  -0.053   8.944 -0.2501 -0.3709  0.3755
  120OSM   H15S12697   6.111  -0.002   8.846 -0.2032 -1.7434 -0.3535
  120OSM   H15T12698   6.005  -0.029   8.987  0.3267  0.4544  1.2689
  120OSM   C16S12699   6.113  -0.206   8.920 -0.3512  0.0348 -0.0438
  120OSM   H16S12700   6.104  -0.260   9.016 -1.5632  0.5511  0.1435
  120OSM   H16T12701   6.215  -0.235   8.887 -0.4151  0.3315 -0.5078
  120OSM   C17S12702   6.024  -0.274   8.823  0.0133  0.1572 -0.0596
  120OSM   H17S12703   5.925  -0.269   8.872 -0.8431  0.5235 -1.7964
  120OSM   H17T12704   6.040  -0.384   8.821 -2.6339 -0.2456 -1.1619
  120OSM   C18S12705   6.009  -0.215   8.680 -0.0781  0.6202  0.4711
  120OSM   H18S12706   5.955  -0.118   8.689  1.8377  1.6461  1.0909
  120OSM   H18T12707   5.952  -0.283   8.614  2.9160  0.3133 -1.8964
  120OSM   H18U12708   6.107  -0.195   8.632 -0.7749  2.6769 -0.1474
  120OSM    C1F12709   6.302   0.410  10.394  0.2153 -0.4069 -0.1571
  120OSM     OF12710   6.359   0.320  10.450  0.4235 -0.2854 -0.7709
  120OSM    C2F12711   6.366   0.553  10.392  0.3754 -0.1884  0.0602
  120OSM    H2F12712   6.402   0.578  10.495 -0.0357 -1.6248  0.5537
  120OSM    H2G12713   6.292   0.636  10.382 -1.2293 -1.6656 -0.4541
  120OSM    C3F12714   6.482   0.568  10.292  0.7521  0.6921  0.0162
  120OSM    H3F12715   6.561   0.494  10.318 -0.2410 -0.4914 -0.3050
  120OSM    H3G12716   6.522   0.670  10.310  1.3801  0.2085  1.4808
  120OSM    C4F12717   6.443   0.559  10.140 -1.3504  0.1365 -0.1916
  120OSM    H4F12718   6.387   0.650  10.110 -1.2689 -0.0948 -1.0543
  120OSM    H4G12719   6.376   0.471  10.126 -0.5615 -0.3193 -1.0721
  120OSM    C5F12720   6.563   0.559  10.040  0.3582 -0.2754  0.9097
  120OSM    H5F12721   6.630   0.472  10.058  2.5852  1.4301  1.1022
  120OSM    H5G12722   6.619   0.654  10.056 -0.1302  0.1227  0.2512
  120OSM    C6F12723   6.513   0.554   9.890  0.3983 -0.6262 -0.0620
  120OSM    H6F12724   6.445   0.641   9.872 -0.7564 -1.7240 -1.0738
  120OSM    H6G12725   6.457   0.459   9.880 -0.7280 -0.2714  2.2728
  120OSM    C7F12726   6.631   0.552   9.798 -0.6872 -0.2445 -0.3810
  120OSM    H7F12727   6.699   0.471   9.833 -0.1575  1.7946  3.7252
  120OSM    H7G12728   6.686   0.648   9.807  1.9145 -1.8374  1.1143
  120OSM    C8F12729   6.585   0.526   9.648 -0.0654  0.1069 -0.1038
  120OSM    H8F12730   6.513   0.441   9.649  0.6245 -0.6156 -4.1736
  120OSM    H8G12731   6.677   0.486   9.601  0.2259  0.3896  0.2178
  120OSM    C9F12732   6.543   0.650   9.572  0.1471  0.2273  0.1685
  120OSM    H9F12733   6.546   0.746   9.624  0.3213  0.0687  0.4526
  120OSM   C10F12734   6.506   0.656   9.441 -0.4581 -0.2435  0.3239
  120OSM   H10F12735   6.475   0.751   9.395 -0.9189 -0.3880  0.3353
  120OSM   C11F12736   6.503   0.529   9.360  1.0079 -0.6222  0.0737
  120OSM   H11F12737   6.415   0.549   9.295  0.8700 -1.7885 -0.1088
  120OSM   H11G12738   6.473   0.443   9.424 -1.0831  0.2588  0.3304
  120OSM   C12F12739   6.621   0.481   9.281 -0.7968 -0.2333  0.1371
  120OSM   H12F12740   6.609   0.371   9.271  0.7130 -0.3682 -0.3851
  120OSM   H12G12741   6.719   0.491   9.333 -0.5644  0.2412 -0.3869
  120OSM   C13F12742   6.622   0.540   9.139 -0.5418  0.5064  0.0771
  120OSM   H13F12743   6.529   0.502   9.092 -0.8118  0.1053  0.9304
  120OSM   H13G12744   6.700   0.483   9.084  0.5144  2.3148 -0.3383
  120OSM   C14F12745   6.639   0.690   9.123 -0.2291  0.5988  0.0894
  120OSM   H14F12746   6.735   0.723   9.168 -0.6161  2.0344 -0.1345
  120OSM   H14G12747   6.553   0.733   9.178  1.0940  1.7132  1.3111
  120OSM   C15F12748   6.631   0.733   8.972 -0.6147 -0.7690 -0.0550
  120OSM   H15F12749   6.556   0.673   8.916 -1.7169 -0.3230  0.9252
  120OSM   H15G12750   6.731   0.713   8.929 -1.0573 -0.3969 -1.2636
  120OSM   C16F12751   6.581   0.880   8.967  0.0087 -0.2386  0.1817
  120OSM   H16F12752   6.658   0.949   9.007 -0.5269  1.5989 -1.8679
  120OSM   H16G12753   6.485   0.885   9.023  0.3395  0.0544  0.7227
  120OSM   C17F12754   6.541   0.927   8.821  0.6046  0.5577 -0.2519
  120OSM   H17F12755   6.620   0.903   8.746  0.7558  0.1049  0.0493
  120OSM   H17G12756   6.539   1.037   8.832  0.5693  1.0765 -4.5930
  120OSM   C18F12757   6.401   0.873   8.791 -0.2902  0.0844 -0.1291
  120OSM   H18F12758   6.387   0.881   8.681 -4.1078 -2.3377  0.0929
  120OSM   H18G12759   6.315   0.931   8.829  0.4379  1.0332  0.0764
  120OSM   H18H12760   6.389   0.767   8.821  1.1333  0.1159  0.5863
  121OSM      N12761   5.688   3.503  11.466 -0.3162  0.7188  0.5864
  121OSM    C1512762   5.824   3.451  11.498  0.6985  0.0685 -0.0130
  121OSM   H15A12763   5.844   3.351  11.463 -0.1512 -0.1767  0.1959
  121OSM   H15B12764   5.839   3.437  11.604  0.9758  0.9740  0.0713
  121OSM   H15C12765   5.910   3.506  11.463  1.3229 -0.7545  0.2189
  121OSM    C1412766   5.581   3.400  11.488  0.5309  0.0860 -0.6618
  121OSM   H14A12767   5.580   3.382  11.594 -2.2489 -2.1009 -1.0012
  121OSM   H14B12768   5.600   3.318  11.420  0.9708  0.4939 -1.0384
  121OSM   H14C12769   5.488   3.441  11.453  0.7242  1.8250  0.8348
  121OSM    C1312770   5.662   3.607  11.572 -0.3087  0.1569 -1.1431
  121OSM   H13A12771   5.574   3.668  11.554  1.2816  2.0093 -2.8417
  121OSM   H13B12772   5.744   3.675  11.589  0.3467 -1.0289  0.5535
  121OSM   H13C12773   5.642   3.562  11.668 -0.0605  5.5709  1.6713
  121OSM    C1212774   5.686   3.565  11.323 -0.2701  0.5203 -0.3710
  121OSM   H12A12775   5.748   3.653  11.328  2.5916 -1.4625  1.3870
  121OSM   H12B12776   5.586   3.590  11.294 -0.3574  0.2382 -0.3143
  121OSM    C1112777   5.736   3.477  11.211 -0.3405  0.1124  0.2164
  121OSM   H11A12778   5.814   3.412  11.255 -0.9328 -0.2711  0.7251
  121OSM   H11B12779   5.779   3.533  11.126  0.0080 -1.1601 -0.4391
  121OSM      P12780   5.499   3.401  11.123  0.3941  0.1474 -0.2346
  121OSM    O1312781   5.430   3.274  11.102  0.1798  0.0227 -0.4158
  121OSM    O1412782   5.430   3.505  11.209  0.0854  0.1681  0.5595
  121OSM    O1112783   5.533   3.462  10.984  0.4003  0.5725  0.6828
  121OSM    O1212784   5.640   3.374  11.179 -0.4654  0.8364 -0.1030
  121OSM    C1S12785   5.620   3.391  10.895 -0.0177  0.7213  0.5660
  121OSM    H1S12786   5.574   3.295  10.861  0.8318  0.7060 -0.5828
  121OSM    H1T12787   5.709   3.357  10.952 -1.7575 -1.0944  2.2968
  121OSM     NF12788   5.690   3.416  10.659  0.2419 -0.5755  0.9429
  121OSM    HNF12789   5.782   3.426  10.621  0.4724 -1.5820  1.2243
  121OSM    C2S12790   5.655   3.486  10.778  0.3020 -0.0723  0.4071
  121OSM    H2S12791   5.570   3.550  10.748  0.2644  0.0802  0.8431
  121OSM    C3S12792   5.768   3.589  10.823 -0.1460  0.8912  0.4378
  121OSM    H3S12793   5.850   3.527  10.864 -0.0495  1.7823  1.6040
  121OSM     O312794   5.727   3.682  10.918 -0.0101  0.1839  1.0936
  121OSM    HO312795   5.653   3.635  10.959 -1.0258  1.7798  1.1283
  121OSM    C4S12796   5.828   3.671  10.708 -0.0035  0.2630 -0.8253
  121OSM    H4S12797   5.762   3.753  10.676 -3.1314 -1.9308 -0.2389
  121OSM    C5S12798   5.942   3.654  10.638  0.5900 -0.7544  0.7445
  121OSM    H5S12799   6.009   3.571  10.663 -0.7973 -2.6499 -1.5979
  121OSM    C6S12800   5.988   3.751  10.526  0.5528  0.5875  0.0648
  121OSM    H6S12801   6.069   3.818  10.560  1.7724  1.0611 -3.4929
  121OSM    H6T12802   5.909   3.818  10.488  0.8155  1.0411  0.3207
  121OSM    C7S12803   6.039   3.682  10.397 -0.1280  0.2629  0.0425
  121OSM    H7S12804   5.956   3.617  10.362  0.2374 -0.2652  0.1406
  121OSM    H7T12805   6.123   3.613  10.422  0.1385  0.0926 -1.3011
  121OSM    C8S12806   6.079   3.785  10.286  0.0011 -0.8430  1.0952
  121OSM    H8S12807   6.157   3.855  10.323 -1.2590 -0.1370  2.4745
  121OSM    H8T12808   5.987   3.845  10.265  1.4721  0.3433 -2.2694
  121OSM    C9S12809   6.116   3.708  10.163 -0.2267 -0.9358  0.1662
  121OSM    H9S12810   6.039   3.628  10.158 -0.4490 -0.6837 -0.5177
  121OSM    H9T12811   6.210   3.649  10.167  1.9861  2.5845  1.9952
  121OSM   C10S12812   6.113   3.795  10.025 -0.3111  0.3336 -0.4219
  121OSM   H10S12813   6.200   3.863  10.022  0.4384 -0.6671 -2.0002
  121OSM   H10T12814   6.016   3.850  10.021  0.0146  0.8746 -0.8648
  121OSM   C11S12815   6.130   3.692   9.903  0.4785 -0.3685  0.1995
  121OSM   H11S12816   6.033   3.639   9.896 -0.0980  0.2276  3.0710
  121OSM   H11T12817   6.218   3.629   9.929  0.6121 -0.1034  0.3945
  121OSM   C12S12818   6.163   3.774   9.768 -0.2890 -0.1169 -0.1517
  121OSM   H12S12819   6.259   3.826   9.788 -1.2920  1.1547  1.5340
  121OSM   H12T12820   6.085   3.848   9.742 -0.7425 -1.4674 -2.7576
  121OSM   C13S12821   6.169   3.677   9.651  0.2276 -0.5319  0.2528
  121OSM   H13S12822   6.066   3.635   9.647  0.7237 -1.6375 -1.1248
  121OSM   H13T12823   6.246   3.602   9.676  2.0139  0.9786 -0.5950
  121OSM   C14S12824   6.178   3.759   9.523  0.2200 -0.1967 -0.9294
  121OSM   H14S12825   6.280   3.804   9.521  0.7602 -1.1564  1.9439
  121OSM   H14T12826   6.107   3.840   9.499 -0.3797  0.4345  2.6903
  121OSM   C15S12827   6.157   3.680   9.392 -0.1460 -0.3758 -0.2086
  121OSM   H15S12828   6.057   3.675   9.343 -1.8872  0.1272  3.1591
  121OSM   H15T12829   6.176   3.575   9.423 -0.2519 -0.5191 -0.6129
  121OSM   C16S12830   6.257   3.715   9.285  0.2584 -0.4149  0.1443
  121OSM   H16S12831   6.356   3.719   9.335 -0.6359  0.4071  1.8736
  121OSM   H16T12832   6.239   3.818   9.249 -1.5152 -0.1914  1.5978
  121OSM   C17S12833   6.265   3.619   9.165 -0.0654  0.2926 -0.8865
  121OSM   H17S12834   6.323   3.671   9.086 -0.1923 -0.7332 -1.6647
  121OSM   H17T12835   6.161   3.605   9.130 -0.1350 -0.3105 -0.4553
  121OSM   C18S12836   6.338   3.488   9.187  0.0782  0.1365  0.8515
  121OSM   H18S12837   6.303   3.427   9.273  0.2159  0.0321  0.8321
  121OSM   H18T12838   6.448   3.502   9.181  0.5074 -3.0745  0.5324
  121OSM   H18U12839   6.320   3.417   9.103  1.2985 -0.0319  0.7216
  121OSM    C1F12840   5.600   3.332  10.600 -0.0109  0.1737  0.3402
  121OSM     OF12841   5.479   3.321  10.626  0.2059 -0.3793 -0.1608
  121OSM    C2F12842   5.660   3.253  10.485 -0.2179 -0.4235 -0.2164
  121OSM    H2F12843   5.750   3.198  10.520  0.8225  1.0200 -0.5743
  121OSM    H2G12844   5.705   3.326  10.414  1.6849 -1.0795  0.2738
  121OSM    C3F12845   5.552   3.174  10.411  0.3741 -0.1463  0.3828
  121OSM    H3F12846   5.458   3.226  10.384  0.4375 -0.5612 -0.6898
  121OSM    H3G12847   5.534   3.080  10.468 -1.4364  0.2802  0.5251
  121OSM    C4F12848   5.614   3.116  10.278  0.2040 -0.4955 -0.4986
  121OSM    H4F12849   5.715   3.074  10.299 -0.3587 -1.9355 -0.6147
  121OSM    H4G12850   5.636   3.206  10.218 -0.7734  1.2976  1.7647
  121OSM    C5F12851   5.508   3.041  10.200 -0.5399 -0.3132  0.2396
  121OSM    H5F12852   5.410   3.093  10.209 -0.3280 -0.0242  0.9100
  121OSM    H5G12853   5.490   2.945  10.253  0.6866 -0.6428  0.0717
  121OSM    C6F12854   5.534   3.011  10.060 -0.7218  0.6368 -0.4526
  121OSM    H6F12855   5.535   3.106  10.001 -0.7089 -0.6105 -2.4851
  121OSM    H6G12856   5.447   2.958  10.015 -0.7204 -0.6673  1.0332
  121OSM    C7F12857   5.657   2.924  10.030 -0.0856  0.6456  0.2944
  121OSM    H7F12858   5.650   2.826  10.083  0.4116  0.8613  0.7627
  121OSM    H7G12859   5.747   2.978  10.064  0.8675 -0.2405 -0.7752
  121OSM    C8F12860   5.669   2.889   9.884 -0.2525 -0.2719  0.9351
  121OSM    H8F12861   5.576   2.839   9.851  0.1350 -1.7041  1.9354
  121OSM    H8G12862   5.752   2.816   9.869 -1.2813 -1.5142  1.2081
  121OSM    C9F12863   5.687   3.016   9.802 -0.0694  0.6722 -0.1846
  121OSM    H9F12864   5.734   3.102   9.852  0.6527  0.2506 -0.1305
  121OSM   C10F12865   5.657   3.037   9.678  0.1225  0.3824 -0.1160
  121OSM   H10F12866   5.652   3.142   9.645  1.9130  0.3372 -0.5949
  121OSM   C11F12867   5.587   2.941   9.583 -0.8100 -0.3422  0.6724
  121OSM   H11F12868   5.477   2.951   9.596 -0.7785 -2.4464  2.9511
  121OSM   H11G12869   5.605   2.835   9.611  0.6994 -0.4413 -0.5909
  121OSM   C12F12870   5.612   2.966   9.431 -0.3065 -0.1219 -0.4539
  121OSM   H12F12871   5.594   3.072   9.404 -0.2386 -0.0412 -0.1903
  121OSM   H12G12872   5.545   2.902   9.370  1.8839 -2.5113 -0.4085
  121OSM   C13F12873   5.750   2.918   9.397 -0.6226 -0.0731  0.0619
  121OSM   H13F12874   5.776   2.822   9.446 -1.6155  0.6821  2.1323
  121OSM   H13G12875   5.821   2.989   9.445 -0.3782 -0.1054 -0.2489
  121OSM   C14F12876   5.777   2.911   9.249 -0.0187  0.2858  0.0090
  121OSM   H14F12877   5.736   3.003   9.204 -1.1808 -0.7877 -1.1801
  121OSM   H14G12878   5.704   2.835   9.213  0.9235  0.0729 -1.4889
  121OSM   C15F12879   5.922   2.860   9.205  0.3878 -0.3145  0.6701
  121OSM   H15F12880   5.942   2.760   9.250  2.0171  0.0388  0.7513
  121OSM   H15G12881   6.001   2.929   9.240  1.0038 -1.1017  0.8337
  121OSM   C16F12882   5.947   2.850   9.052 -0.2310 -0.0944 -0.0416
  121OSM   H16F12883   5.938   2.945   8.995  1.6092  0.1047 -0.0266
  121OSM   H16G12884   5.873   2.780   9.008  1.4014 -0.0774 -2.9349
  121OSM   C17F12885   6.084   2.797   9.014 -0.0281 -0.2605 -0.2374
  121OSM   H17F12886   6.086   2.701   9.069  0.5525 -0.3664 -0.4407
  121OSM   H17G12887   6.161   2.864   9.059 -1.3247  1.6163 -0.7626
  121OSM   C18F12888   6.102   2.787   8.865  0.1511  0.5362 -0.8139
  121OSM   H18F12889   6.202   2.753   8.831  0.2632  0.1476 -0.1205
  121OSM   H18G12890   6.100   2.890   8.823 -0.2438  0.7213 -0.3569
  121OSM   H18H12891   6.022   2.733   8.811  1.1293  0.5362 -2.2713
  122OSM      N12892   5.996   0.908  11.053  0.3380  0.7797 -0.0796
  122OSM    C1512893   5.975   0.761  11.046 -0.3631  0.2516 -0.1691
  122OSM   H15A12894   5.913   0.740  11.132  0.4673  0.8731  0.5982
  122OSM   H15B12895   6.066   0.704  11.056  0.0859  0.9988  0.0369
  122OSM   H15C12896   5.921   0.735  10.956 -0.9879  0.7049  0.0677
  122OSM    C1412897   5.868   0.976  11.085 -0.0691 -0.0204 -0.1526
  122OSM   H14A12898   5.888   1.080  11.103  0.6948 -0.2041  0.0894
  122OSM   H14B12899   5.811   0.945  11.171  1.2578  1.7961  1.4220
  122OSM   H14C12900   5.805   0.960  10.998  1.0155 -0.7802 -0.8196
  122OSM    C1312901   6.097   0.947  11.157  0.2241 -0.1597 -0.2182
  122OSM   H13A12902   6.110   1.054  11.157 -1.1482  0.0493  2.7985
  122OSM   H13B12903   6.194   0.903  11.137  0.6390  1.2339 -1.2865
  122OSM   H13C12904   6.055   0.922  11.253  3.3265 -1.6256  0.8028
  122OSM    C1212905   6.036   0.955  10.915  0.1566  0.8666  0.4055
  122OSM   H12A12906   5.960   0.918  10.848 -2.0899  2.6522  1.8574
  122OSM   H12B12907   6.133   0.909  10.904  0.6896  1.5184  2.1312
  122OSM    C1112908   6.038   1.109  10.887  0.0245 -0.2433  0.0789
  122OSM   H11A12909   5.937   1.154  10.895 -0.1777 -0.8470  1.0049
  122OSM   H11B12910   6.075   1.114  10.782 -0.4307  1.1640 -0.0297
  122OSM      P12911   6.138   1.321  11.011  0.0084  0.5169  0.4932
  122OSM    O1312912   6.004   1.375  11.055  0.1013 -0.1846  0.5407
  122OSM    O1412913   6.248   1.331  11.111 -0.0309 -0.3184  0.2520
  122OSM    O1112914   6.174   1.392  10.872  0.7304  0.4320 -0.2052
  122OSM    O1212915   6.130   1.170  10.976  0.8386 -0.2390 -0.4336
  122OSM    C1S12916   6.293   1.359  10.797  0.0431  0.1380  0.0162
  122OSM    H1S12917   6.333   1.260  10.826 -0.3778 -0.4197 -1.2769
  122OSM    H1T12918   6.362   1.445  10.812 -2.0169  1.5967  1.4682
  122OSM     NF12919   6.384   1.284  10.570  0.2234  0.5761 -0.2131
  122OSM    HNF12920   6.423   1.344  10.501  2.1462 -0.2537  0.1232
  122OSM    C2S12921   6.265   1.333  10.645 -0.4011  0.7733 -0.3148
  122OSM    H2S12922   6.182   1.259  10.637  2.7666 -3.0892  1.1756
  122OSM    C3S12923   6.201   1.462  10.581 -0.0916  0.1588 -0.1270
  122OSM    H3S12924   6.265   1.549  10.604 -0.3600  0.3269 -0.0156
  122OSM     O312925   6.071   1.493  10.642  0.7696  0.0602 -0.2195
  122OSM    HO312926   6.088   1.480  10.735  2.1019  1.4083 -0.2314
  122OSM    C4S12927   6.194   1.443  10.428 -0.1529  0.1608  0.0323
  122OSM    H4S12928   6.283   1.478  10.376 -0.2648  1.3764  0.6402
  122OSM    C5S12929   6.096   1.383  10.355 -0.0478  0.3091  0.4535
  122OSM    H5S12930   6.011   1.343  10.413 -0.6187  0.9358  0.0682
  122OSM    C6S12931   6.075   1.361  10.205  0.1647 -0.3446  0.1458
  122OSM    H6S12932   5.983   1.411  10.166  0.2635  1.1959  1.7984
  122OSM    H6T12933   6.063   1.252  10.189 -2.3184  0.1889 -2.0185
  122OSM    C7S12934   6.188   1.392  10.100  0.0585  0.0464  0.1117
  122OSM    H7S12935   6.138   1.361  10.006 -0.7740  3.1436 -0.5377
  122OSM    H7T12936   6.262   1.313  10.125  0.5708  0.6904  0.6669
  122OSM    C8S12937   6.226   1.540  10.095  0.1981 -0.3410  0.3927
  122OSM    H8S12938   6.295   1.580  10.172 -0.4731  1.3446  0.1333
  122OSM    H8T12939   6.129   1.593  10.099  2.3080  3.7681 -0.3546
  122OSM    C9S12940   6.292   1.574   9.956  0.1098 -0.0548  0.1324
  122OSM    H9S12941   6.216   1.549   9.878  1.0989 -1.3504 -0.4213
  122OSM    H9T12942   6.383   1.514   9.937  0.1465  0.2884 -0.8142
  122OSM   C10S12943   6.335   1.724   9.933  0.0629  0.7277 -0.3100
  122OSM   H10S12944   6.398   1.758  10.017 -2.1262  1.4222  1.0994
  122OSM   H10T12945   6.235   1.771   9.947 -0.3759 -0.1726 -0.3337
  122OSM   C11S12946   6.383   1.745   9.793 -0.1695 -0.8715 -0.3315
  122OSM   H11S12947   6.466   1.673   9.778  1.0319 -0.9596  5.4004
  122OSM   H11T12948   6.429   1.846   9.786 -2.1808  0.3386  2.5727
  122OSM   C12S12949   6.284   1.730   9.682  0.4762  0.1120  0.1876
  122OSM   H12S12950   6.189   1.771   9.723  1.1899  1.3954  0.5551
  122OSM   H12T12951   6.257   1.624   9.661 -0.0173 -0.3558  2.9982
  122OSM   C13S12952   6.327   1.812   9.563 -0.2199  0.4113 -0.6771
  122OSM   H13S12953   6.381   1.903   9.596  0.1568  0.4124 -1.2902
  122OSM   H13T12954   6.241   1.853   9.506  0.5324  2.4063 -0.3901
  122OSM   C14S12955   6.413   1.740   9.459 -0.0385  0.0999  0.1867
  122OSM   H14S12956   6.361   1.645   9.434 -2.1873  1.6716 -1.4291
  122OSM   H14T12957   6.513   1.716   9.503 -0.3534  1.0424  1.4343
  122OSM   C15S12958   6.438   1.804   9.322 -0.5740  0.0012  0.3572
  122OSM   H15S12959   6.483   1.728   9.254 -1.5438  0.3677 -0.7242
  122OSM   H15T12960   6.505   1.893   9.327  0.6152 -0.7203 -1.9434
  122OSM   C16S12961   6.305   1.845   9.255  0.3388 -0.5149  0.0611
  122OSM   H16S12962   6.261   1.929   9.312  0.5947 -1.3843  1.5513
  122OSM   H16T12963   6.231   1.762   9.258 -0.8223  0.4326 -1.1876
  122OSM   C17S12964   6.329   1.882   9.104 -0.2276 -0.0885  0.5426
  122OSM   H17S12965   6.427   1.933   9.096 -0.6667  0.6408 -0.3429
  122OSM   H17T12966   6.250   1.954   9.074  0.6904  1.6974  2.3195
  122OSM   C18S12967   6.325   1.760   9.013 -0.2541 -0.2565 -0.2326
  122OSM   H18S12968   6.233   1.701   9.033 -1.9014  2.1440 -0.4982
  122OSM   H18T12969   6.412   1.695   9.034  0.2666  0.6375  0.4607
  122OSM   H18U12970   6.333   1.789   8.906  0.9557  2.6835  0.5968
  122OSM    C1F12971   6.439   1.166  10.582  0.0621  0.3619 -1.1268
  122OSM     OF12972   6.402   1.086  10.665  0.0566  0.5531 -0.3164
  122OSM    C2F12973   6.551   1.130  10.489  0.3720  0.3234 -0.2193
  122OSM    H2F12974   6.641   1.186  10.523 -0.8478  2.2893 -0.1183
  122OSM    H2G12975   6.520   1.171  10.390 -1.1738  1.8463  0.8564
  122OSM    C3F12976   6.580   0.977  10.475  0.0503  0.6299 -0.5916
  122OSM    H3F12977   6.484   0.929  10.443  1.0447 -2.0330  0.3468
  122OSM    H3G12978   6.605   0.941  10.577 -1.9207  0.2120 -0.2206
  122OSM    C4F12979   6.689   0.943  10.378 -0.1000 -0.1625 -0.0534
  122OSM    H4F12980   6.668   0.971  10.272  2.6723  1.7696 -0.1422
  122OSM    H4G12981   6.707   0.834  10.389 -1.2575 -0.2834  0.7782
  122OSM    C5F12982   6.816   1.017  10.413  0.1011  0.2799 -0.2954
  122OSM    H5F12983   6.845   0.992  10.518 -0.5568 -0.6475 -0.3274
  122OSM    H5G12984   6.806   1.127  10.408 -1.7849  0.1040 -0.5131
  122OSM    C6F12985   6.934   0.980  10.323 -0.4214 -0.4303  0.2157
  122OSM    H6F12986   6.902   0.890  10.267  1.8189 -2.2548  1.7521
  122OSM    H6G12987   7.018   0.955  10.392  0.4656 -0.1485 -0.7436
  122OSM    C7F12988   6.993   1.082  10.232  0.5932  0.8076  0.0282
  122OSM    H7F12989   7.069   1.025  10.174 -0.3302  1.1586 -1.5632
  122OSM    H7G12990   7.044   1.171  10.274 -1.6558  1.3596  1.7146
  122OSM    C8F12991   6.881   1.133  10.134 -0.4852 -0.9160  0.2978
  122OSM    H8F12992   6.801   1.182  10.192 -0.8464 -0.7991 -0.2885
  122OSM    H8G12993   6.846   1.035  10.094 -1.4120 -0.4353 -0.0767
  122OSM    C9F12994   6.943   1.219  10.025 -0.5916  0.2487 -0.0327
  122OSM    H9F12995   6.973   1.321  10.053  0.8728 -0.1912  0.0227
  122OSM   C10F12996   6.966   1.181   9.895 -0.3986  0.0827 -0.0900
  122OSM   H10F12997   7.023   1.255   9.836  0.5067  0.3687  1.1234
  122OSM   C11F12998   6.948   1.048   9.830 -0.9422  0.2094  0.3117
  122OSM   H11F12999   6.892   0.973   9.889 -0.8479  1.2517  1.7400
  122OSM   H11G13000   7.050   1.008   9.814 -1.8929 -1.5929 -1.3709
  122OSM   C12F13001   6.869   1.064   9.700  0.5038 -0.0455  0.1020
  122OSM   H12F13002   6.906   1.145   9.633  1.8169 -1.0346 -0.3734
  122OSM   H12G13003   6.765   1.096   9.722  1.0087  1.5582  0.2621
  122OSM   C13F13004   6.875   0.938   9.618  0.3379 -1.0133 -0.5500
  122OSM   H13F13005   6.830   0.865   9.689  1.2327  0.3349  1.4064
  122OSM   H13G13006   6.977   0.900   9.598  0.7590 -0.0824 -0.1782
  122OSM   C14F13007   6.806   0.944   9.481 -0.0057  0.1098  0.0399
  122OSM   H14F13008   6.799   0.837   9.451 -0.5204  0.3932 -0.8748
  122OSM   H14G13009   6.875   0.986   9.405  0.2784 -2.9503 -1.4802
  122OSM   C15F13010   6.668   1.011   9.488 -0.0170 -0.2665  0.2357
  122OSM   H15F13011   6.678   1.121   9.502 -2.1804  0.0396 -0.3724
  122OSM   H15G13012   6.610   0.966   9.571  0.4732 -1.7480 -0.2229
  122OSM   C16F13013   6.578   1.012   9.366  0.6949  0.2191 -0.0147
  122OSM   H16F13014   6.564   0.924   9.300  1.5448 -0.2930  0.4825
  122OSM   H16G13015   6.625   1.075   9.287 -1.2060  1.4178 -0.2321
  122OSM   C17F13016   6.431   1.047   9.402 -0.1755 -0.1721 -0.1835
  122OSM   H17F13017   6.425   1.144   9.455  1.0522  0.5429 -1.3292
  122OSM   H17G13018   6.403   0.979   9.486 -0.7021  1.4683  0.9849
  122OSM   C18F13019   6.331   1.038   9.279  0.0231  0.7909 -0.8352
  122OSM   H18F13020   6.345   1.126   9.213  1.2031  1.4100  0.1994
  122OSM   H18G13021   6.227   1.020   9.311  0.8572 -1.6837  0.6799
  122OSM   H18H13022   6.356   0.947   9.219  0.5663  0.1398  0.3558
  123OSM      N13023   2.500   0.319   5.921  0.2541  0.4065  0.0403
  123OSM    C1513024   2.356   0.360   5.875 -0.4529  0.1270 -0.0533
  123OSM   H15A13025   2.322   0.286   5.803 -1.3801  1.6397 -1.2083
  123OSM   H15B13026   2.375   0.449   5.816  4.2715 -1.3453 -0.9696
  123OSM   H15C13027   2.290   0.379   5.958 -1.1113 -0.6856 -0.3797
  123OSM    C1413028   2.551   0.438   5.992 -0.5109  0.4755  0.0085
  123OSM   H14A13029   2.509   0.438   6.091 -1.1837 -0.5941 -0.2699
  123OSM   H14B13030   2.518   0.524   5.936 -1.2237  2.4811  3.3960
  123OSM   H14C13031   2.659   0.437   6.005 -0.5585 -2.4824  0.5853
  123OSM    C1313032   2.480   0.204   6.008 -0.2594  0.5801 -0.1167
  123OSM   H13A13033   2.448   0.120   5.947  2.6226 -1.3581  0.9302
  123OSM   H13B13034   2.423   0.226   6.096  0.4796  1.1009  0.2440
  123OSM   H13C13035   2.579   0.177   6.043 -0.2690 -0.4673 -0.8558
  123OSM    C1213036   2.576   0.279   5.793  0.1483 -0.5934  0.0600
  123OSM   H12A13037   2.571   0.356   5.718 -0.9927  1.3985  2.1293
  123OSM   H12B13038   2.528   0.199   5.738 -2.1857  0.1726  0.9257
  123OSM    C1113039   2.722   0.234   5.816 -0.2123 -0.1877 -0.2659
  123OSM   H11A13040   2.762   0.324   5.868  1.4778 -1.9741  1.6350
  123OSM   H11B13041   2.764   0.214   5.715 -0.0581  1.2398 -0.4947
  123OSM      P13042   2.888   0.058   5.915 -0.1643 -0.0175  0.0627
  123OSM    O1313043   2.881  -0.083   5.955 -0.0165 -0.1000  0.1360
  123OSM    O1413044   2.976   0.091   5.799  0.4874 -0.7755  0.1008
  123OSM    O1113045   2.939   0.152   6.036  0.3474 -0.7432 -0.1846
  123OSM    O1213046   2.741   0.116   5.896 -0.3321  0.1156 -0.6998
  123OSM    C1S13047   2.890   0.109   6.171 -0.3883 -0.3477 -0.3959
  123OSM    H1S13048   2.936   0.013   6.199 -0.9235 -0.7666 -0.9374
  123OSM    H1T13049   2.780   0.099   6.173 -0.5068  1.0203  0.5236
  123OSM     NF13050   2.905   0.168   6.410 -0.2431  0.4347 -0.2952
  123OSM    HNF13051   2.844   0.226   6.463  0.5803  0.9799  0.0774
  123OSM    C2S13052   2.925   0.218   6.279 -0.0747  0.3340 -0.5654
  123OSM    H2S13053   3.032   0.247   6.271  0.5621 -1.9889 -0.7946
  123OSM    C3S13054   2.852   0.349   6.237 -0.1811 -0.7075 -0.4554
  123OSM    H3S13055   2.744   0.326   6.233 -0.5649  0.8593  0.8646
  123OSM     O313056   2.880   0.400   6.104  0.1447  0.0046 -0.1083
  123OSM    HO313057   2.916   0.320   6.066  1.0615  0.2694  0.1764
  123OSM    C4S13058   2.871   0.459   6.332 -0.0927 -0.0938 -0.5233
  123OSM    H4S13059   2.788   0.478   6.402 -0.7046  1.4605 -1.6417
  123OSM    C5S13060   2.987   0.527   6.348  0.9552  0.1724 -0.0997
  123OSM    H5S13061   3.077   0.501   6.291 -0.9821  2.2920 -4.3791
  123OSM    C6S13062   3.005   0.628   6.461 -0.0998 -0.4729 -0.4131
  123OSM    H6S13063   2.907   0.649   6.508 -1.0398 -2.4087 -1.4467
  123OSM    H6T13064   3.043   0.725   6.423  0.9586  0.4642  2.8334
  123OSM    C7S13065   3.112   0.587   6.567 -0.3827  0.5370 -0.7364
  123OSM    H7S13066   3.131   0.677   6.630 -0.3256 -1.2368  1.8664
  123OSM    H7T13067   3.204   0.558   6.512  0.6531 -0.3433  1.4282
  123OSM    C8S13068   3.066   0.475   6.660 -0.4745 -0.0931 -0.7236
  123OSM    H8S13069   3.039   0.383   6.603 -1.4769  1.0550 -2.1632
  123OSM    H8T13070   2.981   0.515   6.719  1.2868  1.0177  1.1247
  123OSM    C9S13071   3.163   0.438   6.767 -0.0098  0.3090 -0.2625
  123OSM    H9S13072   3.168   0.535   6.821  0.3990 -0.1623  0.5570
  123OSM    H9T13073   3.251   0.410   6.706 -1.3099 -0.7496 -1.6890
  123OSM   C10S13074   3.122   0.319   6.860  0.1233  0.0478  0.1962
  123OSM   H10S13075   3.130   0.223   6.805 -1.5923 -0.0432  0.0879
  123OSM   H10T13076   3.019   0.354   6.884  0.0189  0.6261 -1.0188
  123OSM   C11S13077   3.224   0.310   6.970 -0.2622  0.3471 -0.2112
  123OSM   H11S13078   3.321   0.333   6.922  0.5794 -1.4608  0.5763
  123OSM   H11T13079   3.224   0.207   7.012  0.6352 -0.0294 -1.1302
  123OSM   C12S13080   3.200   0.401   7.086 -0.1977 -0.5549 -0.0667
  123OSM   H12S13081   3.098   0.379   7.126 -0.4436  0.2708 -0.2366
  123OSM   H12T13082   3.194   0.505   7.048  1.0311 -1.2651 -2.3021
  123OSM   C13S13083   3.303   0.394   7.201 -0.1776 -0.4451 -0.3114
  123OSM   H13S13084   3.405   0.424   7.169 -0.1235 -0.5025 -0.1910
  123OSM   H13T13085   3.328   0.290   7.232  0.4291 -1.2011 -3.1704
  123OSM   C14S13086   3.266   0.477   7.317  0.2376 -0.4279 -0.0657
  123OSM   H14S13087   3.190   0.445   7.392 -1.1736  1.9901 -0.3919
  123OSM   H14T13088   3.226   0.572   7.274  0.9897 -1.1308 -2.3352
  123OSM   C15S13089   3.379   0.506   7.411 -0.7580  0.0326 -0.3036
  123OSM   H15S13090   3.449   0.572   7.357 -0.3492  0.2553  0.5049
  123OSM   H15T13091   3.435   0.411   7.427 -0.6929  0.5060  2.4217
  123OSM   C16S13092   3.344   0.567   7.543  0.4663 -0.4253  0.6884
  123OSM   H16S13093   3.274   0.502   7.601 -0.6947  0.2290  0.0541
  123OSM   H16T13094   3.274   0.649   7.516  0.5070 -0.1918  1.2733
  123OSM   C17S13095   3.461   0.599   7.634 -0.2784 -0.6300 -0.3080
  123OSM   H17S13096   3.526   0.671   7.580 -1.1032 -0.1896 -0.7170
  123OSM   H17T13097   3.525   0.509   7.648 -0.0167 -0.4565 -0.3892
  123OSM   C18S13098   3.431   0.660   7.766 -0.6713 -1.0682  0.7447
  123OSM   H18S13099   3.382   0.583   7.829 -2.3764 -3.2957 -3.0851
  123OSM   H18T13100   3.357   0.741   7.748  0.9528  0.5585  1.3697
  123OSM   H18U13101   3.510   0.710   7.825 -0.7029  0.0153 -0.1225
  123OSM    C1F13102   2.967   0.069   6.474 -0.2722  0.4718  0.9592
  123OSM     OF13103   3.047  -0.006   6.410 -0.4933 -0.1903  0.3492
  123OSM    C2F13104   2.934   0.048   6.621  0.9930 -0.6300  0.0211
  123OSM    H2F13105   2.825   0.029   6.622  0.6998  0.7753 -1.3738
  123OSM    H2G13106   2.962   0.134   6.686  1.2195 -0.5106 -0.2306
  123OSM    C3F13107   3.009  -0.071   6.678  0.1530 -0.0488 -0.2641
  123OSM    H3F13108   3.118  -0.052   6.682  0.5324 -2.3576  2.6546
  123OSM    H3G13109   2.984  -0.164   6.623  0.3525  0.0701 -0.5484
  123OSM    C4F13110   2.964  -0.107   6.822 -0.6834  0.1864 -0.4531
  123OSM    H4F13111   2.853  -0.109   6.818 -0.6762  0.0722 -0.6302
  123OSM    H4G13112   2.988  -0.022   6.889  3.5375 -0.3258 -1.1755
  123OSM    C5F13113   3.014  -0.229   6.895  0.1695  0.0092 -0.5060
  123OSM    H5F13114   3.125  -0.229   6.893  0.2067 -0.9037  0.9345
  123OSM    H5G13115   2.985  -0.316   6.833 -0.7565 -0.2614  0.2844
  123OSM    C6F13116   2.980  -0.232   7.039  0.1449  0.0398 -0.7764
  123OSM    H6F13117   2.870  -0.239   7.053  0.3968  1.0383  2.0908
  123OSM    H6G13118   3.005  -0.136   7.088  0.6832 -1.4503  1.9878
  123OSM    C7F13119   3.043  -0.335   7.129 -0.1931  0.3390  0.0533
  123OSM    H7F13120   3.148  -0.306   7.152 -1.0483  2.1276  1.8639
  123OSM    H7G13121   3.047  -0.434   7.080  0.3507  1.0295 -1.3319
  123OSM    C8F13122   2.961  -0.365   7.253 -0.1760  0.0744  0.2441
  123OSM    H8F13123   3.027  -0.447   7.291  0.2555  0.3620  0.1219
  123OSM    H8G13124   2.869  -0.425   7.237  0.8319 -1.5333  0.3625
  123OSM    C9F13125   2.936  -0.252   7.352  0.2867 -0.0813 -0.6224
  123OSM    H9F13126   2.887  -0.161   7.315  0.8296  0.7600  0.6887
  123OSM   C10F13127   2.968  -0.265   7.485  0.4647 -0.3764  0.1898
  123OSM   H10F13128   2.946  -0.181   7.553 -2.0666 -0.2485 -0.7331
  123OSM   C11F13129   3.026  -0.389   7.548 -0.4293  0.6077  0.4318
  123OSM   H11F13130   3.015  -0.486   7.497 -1.9533 -0.5652  2.8854
  123OSM   H11G13131   2.958  -0.402   7.636  1.0720 -0.1468  1.4944
  123OSM   C12F13132   3.165  -0.372   7.613 -0.5019 -0.1856 -0.5466
  123OSM   H12F13133   3.218  -0.285   7.568  2.5702 -0.0735  2.9877
  123OSM   H12G13134   3.223  -0.464   7.587  0.9615  0.4248  0.4411
  123OSM   C13F13135   3.181  -0.380   7.764  0.3254  0.0490  0.3394
  123OSM   H13F13136   3.103  -0.455   7.791  0.3171 -0.5524 -1.3631
  123OSM   H13G13137   3.149  -0.280   7.803  0.4193 -0.6964  2.3825
  123OSM   C14F13138   3.320  -0.417   7.802  0.1679 -0.1057 -0.5150
  123OSM   H14F13139   3.389  -0.331   7.787  0.3841 -0.3104 -0.6994
  123OSM   H14G13140   3.356  -0.503   7.742 -1.8670 -0.2378 -1.5682
  123OSM   C15F13141   3.340  -0.455   7.950  1.0024 -0.0231  1.0592
  123OSM   H15F13142   3.281  -0.548   7.968  1.4214 -0.2672  1.1782
  123OSM   H15G13143   3.309  -0.370   8.014 -0.8595  0.0871  0.0671
  123OSM   C16F13144   3.494  -0.470   7.973  0.5399 -0.5246  0.1863
  123OSM   H16F13145   3.544  -0.376   7.943 -1.8381 -0.0233 -2.4262
  123OSM   H16G13146   3.528  -0.551   7.905  1.1783 -1.1467  1.2331
  123OSM   C17F13147   3.528  -0.510   8.118 -0.6535  0.0218  0.2657
  123OSM   H17F13148   3.639  -0.520   8.112 -0.5531  1.8667 -1.1881
  123OSM   H17G13149   3.485  -0.612   8.133 -0.0373 -0.2540  0.1725
  123OSM   C18F13150   3.497  -0.422   8.237 -0.2059 -0.1420  0.2740
  123OSM   H18F13151   3.562  -0.450   8.323  0.1765 -0.5940 -0.1548
  123OSM   H18G13152   3.389  -0.444   8.254 -1.2353  0.2434 -4.7675
  123OSM   H18H13153   3.518  -0.318   8.204  0.0931  0.5085  2.4813
  124OSM      N13154   6.299   4.904   6.103  0.0791 -0.7000 -0.3147
  124OSM    C1513155   6.291   4.789   6.014 -0.5189 -0.1595  0.0146
  124OSM   H15A13156   6.336   4.701   6.056 -0.5413  0.6534  1.7936
  124OSM   H15B13157   6.346   4.806   5.923  1.1418  0.0509  1.0276
  124OSM   H15C13158   6.191   4.762   5.983  0.2648 -3.3980  0.1691
  124OSM    C1413159   6.444   4.940   6.114 -0.3720 -0.7519 -0.3838
  124OSM   H14A13160   6.451   5.034   6.167 -2.1340 -0.7938 -0.0662
  124OSM   H14B13161   6.492   4.962   6.020 -1.2593 -1.9206 -1.1239
  124OSM   H14C13162   6.501   4.872   6.177  1.3955  0.6374 -0.4490
  124OSM    C1313163   6.242   5.017   6.022  0.3131 -0.2023 -0.2707
  124OSM   H13A13164   6.228   5.105   6.083 -1.2294  0.3946 -1.4194
  124OSM   H13B13165   6.143   4.990   5.988  0.7284 -0.4386 -1.3112
  124OSM   H13C13166   6.312   5.048   5.946  1.0783 -0.3906  0.3612
  124OSM    C1213167   6.234   4.880   6.237 -0.3621  0.6030  0.7198
  124OSM   H12A13168   6.293   4.805   6.287  1.7544  1.5903 -0.2436
  124OSM   H12B13169   6.136   4.834   6.227  1.3600 -3.2456  0.6125
  124OSM    C1113170   6.221   4.999   6.331 -0.1787 -0.0521 -0.0246
  124OSM   H11A13171   6.320   5.046   6.348 -0.2326  0.2248 -0.4637
  124OSM   H11B13172   6.195   4.952   6.429  1.7109  1.6436  1.3378
  124OSM      P13173   5.969   5.082   6.312  0.0251 -0.3181  0.0090
  124OSM    O1313174   5.897   5.131   6.194  0.7493 -0.3185 -0.1638
  124OSM    O1413175   5.947   4.938   6.355 -0.3829 -0.8360  0.2395
  124OSM    O1113176   5.936   5.174   6.433  0.1677  0.2187 -0.4974
  124OSM    O1213177   6.127   5.106   6.301 -0.2044 -0.1596  0.2916
  124OSM    C1S13178   6.016   5.171   6.556  1.7464 -0.4736  0.2736
  124OSM    H1S13179   6.109   5.228   6.535  1.3418 -0.4044 -1.3724
  124OSM    H1T13180   6.043   5.069   6.591  0.4325 -0.6983  0.6424
  124OSM     NF13181   5.998   5.240   6.798  0.6356 -0.1081 -0.1734
  124OSM    HNF13182   5.971   5.173   6.867 -0.4192  1.3380  0.8530
  124OSM    C2S13183   5.925   5.235   6.674 -0.0081  0.1568  0.4280
  124OSM    H2S13184   5.907   5.340   6.644  2.4503  0.4378 -0.2100
  124OSM    C3S13185   5.794   5.155   6.681  0.2062 -0.1867  1.0255
  124OSM    H3S13186   5.815   5.052   6.719  1.3827 -0.2355  0.2783
  124OSM     O313187   5.728   5.137   6.559 -0.0956  0.4784  0.4396
  124OSM    HO313188   5.796   5.170   6.500  1.8126 -2.4003  0.9514
  124OSM    C4S13189   5.697   5.219   6.786 -0.0652 -0.4426 -0.2325
  124OSM    H4S13190   5.704   5.196   6.894 -0.0264  0.0429 -0.1318
  124OSM    C5S13191   5.611   5.314   6.751  0.3010 -0.2462 -0.9948
  124OSM    H5S13192   5.624   5.362   6.653  0.0394  0.1929 -0.8171
  124OSM    C6S13193   5.501   5.377   6.846  1.4104 -0.6276 -0.1243
  124OSM    H6S13194   5.401   5.359   6.801  1.0475 -0.4647  0.6116
  124OSM    H6T13195   5.514   5.487   6.845 -2.1444 -0.1659  0.0956
  124OSM    C7S13196   5.487   5.324   6.986  0.2225 -0.3560 -0.2608
  124OSM    H7S13197   5.484   5.213   6.984  0.0236 -0.3812  0.9787
  124OSM    H7T13198   5.387   5.357   7.022  1.1407  0.9884  1.1157
  124OSM    C8S13199   5.587   5.376   7.089  0.1353 -0.0180 -0.1652
  124OSM    H8S13200   5.596   5.485   7.070  0.1650 -0.1096 -0.6805
  124OSM    H8T13201   5.683   5.324   7.075  1.5374  2.1055  1.2293
  124OSM    C9S13202   5.542   5.343   7.232  0.0318  0.8488  0.2420
  124OSM    H9S13203   5.513   5.236   7.228 -0.8149  1.1154 -1.5224
  124OSM    H9T13204   5.453   5.407   7.250 -0.5984  0.7603 -2.3326
  124OSM   C10S13205   5.646   5.392   7.333  0.3540  0.1316 -0.5804
  124OSM   H10S13206   5.656   5.498   7.303  0.9820  0.2682  0.0953
  124OSM   H10T13207   5.747   5.349   7.317  1.5461  2.5857  0.1110
  124OSM   C11S13208   5.620   5.378   7.484  0.5298  0.5126 -0.1656
  124OSM   H11S13209   5.514   5.402   7.510  0.8787 -0.7850  2.7350
  124OSM   H11T13210   5.684   5.445   7.546  0.3640  0.0375  0.5279
  124OSM   C12S13211   5.640   5.236   7.531 -0.6316  0.2348 -0.3435
  124OSM   H12S13212   5.744   5.207   7.506  0.4820  4.5804 -1.2141
  124OSM   H12T13213   5.583   5.158   7.476 -1.1854 -0.1599  0.7824
  124OSM   C13S13214   5.608   5.221   7.682  0.4341 -0.4504 -0.7706
  124OSM   H13S13215   5.616   5.112   7.702  0.7201 -0.4767 -1.0331
  124OSM   H13T13216   5.498   5.237   7.681  0.6244  1.0243  0.0502
  124OSM   C14S13217   5.686   5.306   7.785 -0.0568 -0.2336 -0.4026
  124OSM   H14S13218   5.664   5.415   7.783 -0.7594 -0.3383  0.8926
  124OSM   H14T13219   5.792   5.304   7.754  0.0473  0.7548 -0.1077
  124OSM   C15S13220   5.673   5.258   7.932  0.3924 -0.3728  0.2524
  124OSM   H15S13221   5.678   5.148   7.920  0.3052 -0.2916 -0.5330
  124OSM   H15T13222   5.567   5.271   7.964  0.5103  2.1184 -0.3113
  124OSM   C16S13223   5.773   5.312   8.036  0.7440 -0.2032  0.4708
  124OSM   H16S13224   5.779   5.423   8.035 -1.2955 -0.0946 -0.5376
  124OSM   H16T13225   5.870   5.279   7.994  0.1026  0.4928 -1.6040
  124OSM   C17S13226   5.735   5.268   8.173 -0.1318 -0.1984 -0.5561
  124OSM   H17S13227   5.828   5.251   8.232 -1.5469  0.0139  1.8180
  124OSM   H17T13228   5.685   5.169   8.164 -0.0665 -0.1928 -0.9861
  124OSM   C18S13229   5.647   5.365   8.254 -0.1951 -0.0550  0.2334
  124OSM   H18S13230   5.665   5.468   8.216 -0.7733 -0.9859 -2.7101
  124OSM   H18T13231   5.681   5.377   8.359 -0.7392 -0.0077  0.4056
  124OSM   H18U13232   5.541   5.333   8.255  0.0360 -0.8366  2.2480
  124OSM    C1F13233   6.115   5.296   6.814 -0.6721 -0.5784  0.0724
  124OSM     OF13234   6.183   5.342   6.723  0.2311 -0.2999 -0.2587
  124OSM    C2F13235   6.176   5.281   6.957  0.0550  0.1941  0.5752
  124OSM    H2F13236   6.160   5.173   6.977 -0.9728  0.2903  0.2968
  124OSM    H2G13237   6.103   5.331   7.024 -0.2097  2.6334 -1.4912
  124OSM    C3F13238   6.326   5.319   6.954 -0.1744  0.5870 -0.5508
  124OSM    H3F13239   6.350   5.410   6.895 -0.7813  1.1805  0.1096
  124OSM    H3G13240   6.375   5.232   6.904 -1.5829 -1.1057  0.9560
  124OSM    C4F13241   6.384   5.335   7.095 -0.2367 -0.0024  0.0504
  124OSM    H4F13242   6.355   5.436   7.132 -0.2884 -0.2475  0.6837
  124OSM    H4G13243   6.495   5.334   7.086 -0.1548 -2.7485  0.9745
  124OSM    C5F13244   6.335   5.219   7.191 -0.3869 -0.7358  0.9476
  124OSM    H5F13245   6.376   5.127   7.144 -0.9962 -0.0439 -0.9646
  124OSM    H5G13246   6.228   5.234   7.215 -0.3991 -1.0943  1.1180
  124OSM    C6F13247   6.412   5.227   7.327 -0.0009 -0.4755 -0.6157
  124OSM    H6F13248   6.414   5.333   7.360  0.9524 -0.5272 -0.4888
  124OSM    H6G13249   6.510   5.175   7.320 -0.5459 -1.8527  1.3817
  124OSM    C7F13250   6.331   5.160   7.448 -0.1487  0.5205  0.0835
  124OSM    H7F13251   6.287   5.069   7.401  2.1282 -0.3828 -0.3493
  124OSM    H7G13252   6.261   5.243   7.473 -2.0835 -0.0972 -3.0537
  124OSM    C8F13253   6.423   5.115   7.567 -0.0950  0.5779  0.5082
  124OSM    H8F13254   6.482   5.199   7.610  0.3723 -0.4576  1.9177
  124OSM    H8G13255   6.485   5.045   7.507 -0.4278  0.2992  0.4896
  124OSM    C9F13256   6.337   5.046   7.663 -0.6037  0.5376  0.4006
  124OSM    H9F13257   6.268   4.967   7.630 -1.3841  1.2724  0.2790
  124OSM   C10F13258   6.331   5.079   7.793 -0.8591 -0.2400  0.8564
  124OSM   H10F13259   6.270   5.016   7.861  1.6353 -1.9847  1.5417
  124OSM   C11F13260   6.418   5.185   7.860 -0.6265  0.7901  0.2563
  124OSM   H11F13261   6.365   5.277   7.892 -1.1501  0.1259  1.3228
  124OSM   H11G13262   6.503   5.223   7.799  0.7852 -1.5351  0.7273
  124OSM   C12F13263   6.482   5.127   7.991 -0.3684 -0.1050 -0.5294
  124OSM   H12F13264   6.559   5.055   7.958  0.3488 -1.0247  2.9768
  124OSM   H12G13265   6.407   5.074   8.054  0.7038  0.6313  1.3903
  124OSM   C13F13266   6.539   5.240   8.078  0.2760  0.0245  0.1270
  124OSM   H13F13267   6.460   5.301   8.127 -2.0861 -0.5775 -2.8056
  124OSM   H13G13268   6.583   5.322   8.016  1.2760  0.0038  0.8006
  124OSM   C14F13269   6.636   5.184   8.188 -0.6896 -0.1265 -0.0905
  124OSM   H14F13270   6.710   5.113   8.145 -0.1805 -0.2561  0.9749
  124OSM   H14G13271   6.565   5.128   8.253  1.1062 -0.2229  1.8643
  124OSM   C15F13272   6.716   5.288   8.279 -0.3879 -0.1503 -0.0042
  124OSM   H15F13273   6.783   5.245   8.356  1.2050  0.4555 -1.0168
  124OSM   H15G13274   6.637   5.339   8.338  0.6289 -1.9789  3.0467
  124OSM   C16F13275   6.806   5.382   8.198 -0.3065 -0.5430 -0.1797
  124OSM   H16F13276   6.762   5.484   8.195 -0.1848 -0.5210 -2.3327
  124OSM   H16G13277   6.811   5.346   8.093 -2.6358 -0.2428 -0.4257
  124OSM   C17F13278   6.950   5.397   8.244 -0.0678 -0.0591  0.1667
  124OSM   H17F13279   7.004   5.446   8.160 -0.8003 -0.6570 -0.6579
  124OSM   H17G13280   6.998   5.297   8.239 -1.0456 -0.5309  0.0697
  124OSM   C18F13281   6.977   5.455   8.376  0.6708 -0.2539  0.3243
  124OSM   H18F13282   6.931   5.555   8.367  0.8110 -0.0372  1.9755
  124OSM   H18G13283   7.084   5.481   8.384  0.8036 -0.3066 -1.1019
  124OSM   H18H13284   6.942   5.395   8.462 -1.2579 -0.0516 -0.2842
  125OSM      N13285   5.301   6.727   6.295 -0.3146  0.7188 -0.2308
  125OSM    C1513286   5.190   6.725   6.186 -0.7828  0.4190 -0.0636
  125OSM   H15A13287   5.140   6.630   6.177  1.8715 -0.7802 -2.9627
  125OSM   H15B13288   5.228   6.754   6.089  1.3112  2.5116  1.3299
  125OSM   H15C13289   5.114   6.796   6.215 -2.0938 -0.7693 -0.5133
  125OSM    C1413290   5.358   6.865   6.324  0.2098  0.3765  0.3997
  125OSM   H14A13291   5.407   6.908   6.238 -0.6930 -3.0834 -1.9703
  125OSM   H14B13292   5.438   6.870   6.396 -0.9058  2.3603  1.5283
  125OSM   H14C13293   5.285   6.939   6.354 -1.2173 -1.4244  1.4961
  125OSM    C1313294   5.238   6.673   6.416 -0.2517  0.2611 -0.4492
  125OSM   H13A13295   5.191   6.753   6.472 -1.3689  0.4758 -1.6741
  125OSM   H13B13296   5.315   6.628   6.476  0.2676 -0.9112 -1.9661
  125OSM   H13C13297   5.166   6.593   6.405  0.7924 -0.4192 -2.5828
  125OSM    C1213298   5.409   6.630   6.246 -0.2354 -0.3944  0.1303
  125OSM   H12A13299   5.437   6.655   6.145  0.4120 -1.4704  0.0357
  125OSM   H12B13300   5.360   6.534   6.237  1.7940 -1.5814  1.2372
  125OSM    C1113301   5.542   6.613   6.325  0.4133 -0.1264  0.1251
  125OSM   H11A13302   5.602   6.532   6.278 -0.6643  0.1566 -1.8219
  125OSM   H11B13303   5.510   6.572   6.423 -1.9223 -0.9999 -0.9430
  125OSM      P13304   5.692   6.801   6.226 -0.2580  0.0462  0.4338
  125OSM    O1313305   5.652   6.740   6.098 -0.5641 -0.1582  0.5023
  125OSM    O1413306   5.681   6.943   6.235  0.0106 -0.4045 -0.0747
  125OSM    O1113307   5.839   6.757   6.263 -0.0354  0.1066  0.6420
  125OSM    O1213308   5.612   6.733   6.345 -0.1762 -0.9511 -0.1743
  125OSM    C1S13309   5.911   6.765   6.383 -0.5884  0.2339 -0.1247
  125OSM    H1S13310   5.903   6.867   6.424 -2.5452 -0.2072  0.6226
  125OSM    H1T13311   6.020   6.754   6.366 -0.0593  1.6747  2.1434
  125OSM     NF13312   5.933   6.691   6.615  0.9518  0.5069 -0.1485
  125OSM    HNF13313   6.004   6.628   6.646  0.8152 -0.5583 -1.9565
  125OSM    C2S13314   5.869   6.657   6.486 -0.5214 -0.0622 -0.4143
  125OSM    H2S13315   5.760   6.662   6.510 -0.3861  0.8718  0.0451
  125OSM    C3S13316   5.903   6.519   6.431 -0.3167 -0.4540  0.0489
  125OSM    H3S13317   6.014   6.521   6.423 -0.1142 -3.3709  1.4592
  125OSM     O313318   5.846   6.481   6.308  0.6527 -0.0206 -0.4792
  125OSM    HO313319   5.802   6.563   6.284 -0.6339 -0.7647 -0.7301
  125OSM    C4S13320   5.861   6.415   6.535  0.2836 -0.3495  0.0318
  125OSM    H4S13321   5.759   6.411   6.574  0.4842 -0.9478  0.4943
  125OSM    C5S13322   5.939   6.320   6.583 -0.2553  0.5149  0.3917
  125OSM    H5S13323   6.043   6.325   6.547  0.1101  2.2298  1.6087
  125OSM    C6S13324   5.898   6.209   6.683  1.4392 -0.0739 -0.2938
  125OSM    H6S13325   5.912   6.104   6.651 -0.8995 -0.1907 -1.0165
  125OSM    H6T13326   5.792   6.210   6.714  2.3316 -0.4458  3.0050
  125OSM    C7S13327   5.965   6.223   6.823 -0.3751  0.4709 -0.3190
  125OSM    H7S13328   5.943   6.319   6.874 -4.4400 -1.1678  1.1933
  125OSM    H7T13329   6.076   6.217   6.820 -0.4531 -0.9735 -0.3761
  125OSM    C8S13330   5.912   6.113   6.923 -0.0593  0.5411 -0.4468
  125OSM    H8S13331   5.963   6.017   6.899  0.9338  1.0190 -0.2574
  125OSM    H8T13332   5.803   6.096   6.908  0.5299 -2.4457 -1.7755
  125OSM    C9S13333   5.935   6.158   7.062 -0.0146  0.1379 -0.6860
  125OSM    H9S13334   5.878   6.247   7.098  3.0733  0.8611  2.6057
  125OSM    H9T13335   6.042   6.184   7.078 -0.7492  2.1697  1.1964
  125OSM   C10S13336   5.903   6.061   7.175 -0.0896  0.6984 -0.1826
  125OSM   H10S13337   5.973   5.975   7.167  2.1385  2.4601 -0.1144
  125OSM   H10T13338   5.797   6.028   7.162 -1.2195  3.2321  2.0823
  125OSM   C11S13339   5.945   6.107   7.315 -0.3281 -0.3430  0.8356
  125OSM   H11S13340   5.881   6.197   7.329 -0.0773 -0.2989  1.6969
  125OSM   H11T13341   6.052   6.137   7.317 -0.2728 -0.3575 -0.7227
  125OSM   C12S13342   5.908   6.003   7.427  0.3324 -0.7946  0.1661
  125OSM   H12S13343   5.945   5.900   7.405  1.9585 -0.4555  1.2719
  125OSM   H12T13344   5.797   5.995   7.428  0.2029  0.5346 -1.1079
  125OSM   C13S13345   5.962   6.042   7.564  0.0063  0.0875 -0.5129
  125OSM   H13S13346   5.930   6.146   7.587 -1.1816 -0.6653  1.2839
  125OSM   H13T13347   6.071   6.023   7.567 -0.1567 -0.6031  1.7373
  125OSM   C14S13348   5.888   5.953   7.664 -0.0531 -0.0942  0.3917
  125OSM   H14S13349   5.909   5.846   7.643  0.2285  0.3244 -1.5266
  125OSM   H14T13350   5.778   5.960   7.652 -0.2271  0.5217  2.1639
  125OSM   C15S13351   5.926   5.987   7.814 -0.2076 -0.8656 -0.7685
  125OSM   H15S13352   6.032   5.956   7.831 -0.7858 -1.9196  1.0917
  125OSM   H15T13353   5.855   5.927   7.874  1.8928  0.8943  3.7113
  125OSM   C16S13354   5.905   6.138   7.841  0.7638  0.1680  0.2327
  125OSM   H16S13355   5.808   6.164   7.793  0.1870 -2.3519 -0.0715
  125OSM   H16T13356   5.987   6.197   7.797  3.0227 -1.5289  2.0131
  125OSM   C17S13357   5.887   6.168   7.993  0.1551 -0.3975 -0.1414
  125OSM   H17S13358   5.789   6.123   8.021 -1.3653  2.6141 -0.4113
  125OSM   H17T13359   5.865   6.276   8.003  0.8117 -0.2797  0.0782
  125OSM   C18S13360   6.001   6.128   8.087  0.0645 -0.2939  1.1777
  125OSM   H18S13361   5.972   6.152   8.191 -1.1399 -0.4931  0.8985
  125OSM   H18T13362   6.098   6.182   8.078  0.6272 -1.6928 -1.5907
  125OSM   H18U13363   6.027   6.020   8.086  0.1021 -0.2883 -1.3826
  125OSM    C1F13364   5.918   6.801   6.678  0.8414  0.8587 -0.1592
  125OSM     OF13365   5.828   6.884   6.646 -0.6708 -0.2240 -0.5260
  125OSM    C2F13366   6.010   6.832   6.792  0.7883  0.7948 -0.2416
  125OSM    H2F13367   6.057   6.929   6.765 -2.1366  1.9191 -1.4498
  125OSM    H2G13368   6.094   6.759   6.785  0.3496  0.4061 -1.6346
  125OSM    C3F13369   5.941   6.821   6.926  0.4017 -0.9463 -0.9736
  125OSM    H3F13370   5.892   6.722   6.939  0.1330 -0.8960 -1.6150
  125OSM    H3G13371   5.879   6.912   6.943  0.8314 -0.4941 -1.8253
  125OSM    C4F13372   6.041   6.830   7.037 -0.6254 -0.4999  0.1561
  125OSM    H4F13373   6.110   6.915   7.017  0.1269 -1.2110 -0.3292
  125OSM    H4G13374   6.115   6.748   7.053 -0.4507  0.2185  3.2595
  125OSM    C5F13375   5.974   6.843   7.177  0.8309 -0.1097 -0.4367
  125OSM    H5F13376   5.886   6.778   7.193  0.6563  0.8110  2.5259
  125OSM    H5G13377   5.935   6.947   7.176  2.3605  0.4738 -0.3111
  125OSM    C6F13378   6.084   6.845   7.292  0.7389 -0.1355 -0.5163
  125OSM    H6F13379   6.168   6.918   7.283  0.4609  0.4214  1.1943
  125OSM    H6G13380   6.130   6.744   7.305  0.6139 -0.1661 -0.3218
  125OSM    C7F13381   6.016   6.878   7.425 -0.2299  0.0735 -0.0349
  125OSM    H7F13382   5.954   6.791   7.456 -0.5973 -0.1756 -1.4249
  125OSM    H7G13383   5.954   6.968   7.409 -0.5049 -0.3019 -1.1286
  125OSM    C8F13384   6.112   6.911   7.546 -0.9048  0.0304 -0.6608
  125OSM    H8F13385   6.165   7.001   7.508 -0.9797  0.5538  0.4455
  125OSM    H8G13386   6.177   6.824   7.568 -0.5600  0.0995 -1.4104
  125OSM    C9F13387   6.030   6.953   7.668 -0.9142  0.1208  0.3198
  125OSM    H9F13388   6.011   7.060   7.684  1.0405  0.5989 -0.4311
  125OSM   C10F13389   5.996   6.863   7.767  0.2162 -0.0892  0.5097
  125OSM   H10F13390   5.931   6.884   7.853  3.0045 -1.2779  2.9976
  125OSM   C11F13391   6.033   6.714   7.757 -0.3934  0.2019 -0.2894
  125OSM   H11F13392   6.128   6.687   7.706  1.0070  1.4254  1.5854
  125OSM   H11G13393   5.956   6.679   7.685 -1.4587  1.1669  0.3764
  125OSM   C12F13394   6.012   6.649   7.893 -0.3905  0.3110  0.9487
  125OSM   H12F13395   6.024   6.541   7.867  2.7135  1.6976 -4.1304
  125OSM   H12G13396   5.906   6.657   7.926 -0.6730  2.0949 -0.3253
  125OSM   C13F13397   6.120   6.702   7.995 -0.0165  0.0166  0.1601
  125OSM   H13F13398   6.095   6.804   8.032 -2.0530 -0.3638 -0.1033
  125OSM   H13G13399   6.220   6.699   7.946  0.5064  0.7116  1.1511
  125OSM   C14F13400   6.126   6.600   8.108  0.1015 -0.0992  0.0980
  125OSM   H14F13401   6.102   6.498   8.071 -0.8497  0.3354 -0.4797
  125OSM   H14G13402   6.043   6.626   8.176 -0.3231 -0.3515 -0.3208
  125OSM   C15F13403   6.253   6.619   8.193 -0.5800 -0.0994 -0.4724
  125OSM   H15F13404   6.263   6.725   8.223 -1.1684  0.0113 -0.6585
  125OSM   H15G13405   6.343   6.597   8.131 -0.1453  0.1972  0.0518
  125OSM   C16F13406   6.251   6.530   8.316  0.1262 -0.1099 -0.0058
  125OSM   H16F13407   6.221   6.428   8.286 -0.8610 -0.4531  2.0447
  125OSM   H16G13408   6.169   6.558   8.385 -1.3312 -1.7176 -1.0520
  125OSM   C17F13409   6.394   6.528   8.376 -0.4077  0.2076 -0.4307
  125OSM   H17F13410   6.424   6.633   8.396  1.2841 -0.1997 -0.8292
  125OSM   H17G13411   6.455   6.478   8.298 -0.5188 -1.1949  0.3547
  125OSM   C18F13412   6.408   6.438   8.497 -0.0193  0.8865  0.0953
  125OSM   H18F13413   6.326   6.456   8.569  0.3690  0.6999  0.5849
  125OSM   H18G13414   6.508   6.458   8.541  1.1839  0.1842 -2.2467
  125OSM   H18H13415   6.394   6.334   8.462 -2.7057  1.0279  0.6631
  126OSM      N13416   3.773   5.624   6.301 -0.2174 -0.1983 -0.0309
  126OSM    C1513417   3.789   5.770   6.250 -0.4681 -0.5618 -0.5513
  126OSM   H15A13418   3.893   5.796   6.260 -0.4731 -0.9480  0.5443
  126OSM   H15B13419   3.735   5.845   6.305 -2.8285 -1.1584 -1.9616
  126OSM   H15C13420   3.765   5.785   6.146 -1.3457  0.2163 -0.2402
  126OSM    C1413421   3.868   5.537   6.218  0.0310 -0.7400 -0.6997
  126OSM   H14A13422   3.959   5.590   6.193  1.3963 -3.2239 -1.1790
  126OSM   H14B13423   3.818   5.514   6.125 -1.8988  0.5052  0.0094
  126OSM   H14C13424   3.886   5.441   6.264  2.3969 -0.4998 -1.0692
  126OSM    C1313425   3.826   5.615   6.439 -0.3724 -0.6623  0.2112
  126OSM   H13A13426   3.807   5.519   6.486 -2.6740 -1.0349 -1.4062
  126OSM   H13B13427   3.780   5.691   6.500  0.3202  0.3088 -0.4637
  126OSM   H13C13428   3.933   5.628   6.437 -0.3137 -0.9636  1.0907
  126OSM    C1213429   3.633   5.571   6.286  0.4566  0.7772 -0.1330
  126OSM   H12A13430   3.610   5.578   6.181 -0.7103  1.4219  0.1488
  126OSM   H12B13431   3.573   5.643   6.341  0.5883  1.2747 -0.6332
  126OSM    C1113432   3.608   5.421   6.324 -0.3297  0.3653  0.9955
  126OSM   H11A13433   3.680   5.364   6.261 -3.0457 -0.3469 -1.6264
  126OSM   H11B13434   3.502   5.400   6.295 -0.6139  2.8740  0.0494
  126OSM      P13435   3.671   5.261   6.527  0.2802 -0.0897  0.3388
  126OSM    O1313436   3.597   5.147   6.462  0.1759  0.4224  0.6573
  126OSM    O1413437   3.813   5.247   6.517 -0.0452 -0.6711 -0.0249
  126OSM    O1113438   3.622   5.278   6.680  0.3233 -0.3787  0.5441
  126OSM    O1213439   3.623   5.394   6.463  0.6620 -0.3763 -0.3176
  126OSM    C1S13440   3.594   5.402   6.750 -0.1256  0.6177  0.1417
  126OSM    H1S13441   3.496   5.438   6.711 -0.0697 -0.4129 -0.9741
  126OSM    H1T13442   3.663   5.483   6.718  0.6343  0.1084  0.4741
  126OSM     NF13443   3.527   5.528   6.948  0.1343  0.3935  0.0953
  126OSM    HNF13444   3.608   5.585   6.962 -0.4928  1.1733  0.5156
  126OSM    C2S13445   3.574   5.396   6.899  0.0997 -0.2539  0.0530
  126OSM    H2S13446   3.495   5.323   6.926 -0.1263  0.1018  0.3691
  126OSM    C3S13447   3.709   5.347   6.962 -0.3135 -0.3356 -0.2625
  126OSM    H3S13448   3.783   5.429   6.960 -1.8616  1.0632 -1.7970
  126OSM     O313449   3.765   5.239   6.889 -0.0055 -0.4560  0.0227
  126OSM    HO313450   3.712   5.252   6.810  0.1781 -0.3110 -0.0761
  126OSM    C4S13451   3.681   5.302   7.106  0.5561  0.4458  0.3133
  126OSM    H4S13452   3.641   5.200   7.108  0.9807  0.2316 -1.4726
  126OSM    C5S13453   3.716   5.372   7.215 -0.4400 -0.7389  0.6770
  126OSM    H5S13454   3.763   5.470   7.200 -2.0025 -0.0083  0.4851
  126OSM    C6S13455   3.692   5.332   7.358 -0.9721 -0.1180  0.4253
  126OSM    H6S13456   3.619   5.250   7.374 -0.7992 -0.2848  0.3585
  126OSM    H6T13457   3.659   5.421   7.416  0.5574 -1.7164  3.8759
  126OSM    C7S13458   3.823   5.284   7.427 -0.0845 -0.4728  0.2804
  126OSM    H7S13459   3.905   5.356   7.405  0.1706 -1.2439 -1.4590
  126OSM    H7T13460   3.845   5.180   7.394  0.1496 -0.0451 -0.9790
  126OSM    C8S13461   3.817   5.268   7.583 -0.1867  0.0417 -0.0489
  126OSM    H8S13462   3.731   5.200   7.602 -0.6479  0.5821 -0.2105
  126OSM    H8T13463   3.788   5.368   7.620 -0.6941 -1.4418  3.7370
  126OSM    C9S13464   3.945   5.200   7.636  0.1347 -0.2649 -0.3535
  126OSM    H9S13465   4.025   5.229   7.565  1.6797  0.1881  1.5390
  126OSM    H9T13466   3.931   5.091   7.648  1.0070 -0.2649  0.6430
  126OSM   C10S13467   3.985   5.257   7.780 -0.5115  0.4167 -0.0030
  126OSM   H10S13468   4.001   5.366   7.761 -2.8853  0.6944 -0.6120
  126OSM   H10T13469   4.074   5.205   7.821 -1.9573 -0.7600  1.7279
  126OSM   C11S13470   3.877   5.259   7.892  0.6530  0.1195  0.3430
  126OSM   H11S13471   3.787   5.323   7.879  0.1034 -0.2693  2.1687
  126OSM   H11T13472   3.922   5.285   7.990 -1.6489  1.1653  1.1521
  126OSM   C12S13473   3.817   5.121   7.919  0.0609 -0.1523  0.4768
  126OSM   H12S13474   3.897   5.048   7.894  0.9991  0.7789  0.7789
  126OSM   H12T13475   3.741   5.110   7.838 -1.2922 -0.2169  1.7467
  126OSM   C13S13476   3.757   5.090   8.052  0.4237 -0.0831  0.3351
  126OSM   H13S13477   3.664   5.150   8.057  0.3343 -0.2647  0.8598
  126OSM   H13T13478   3.824   5.124   8.135  4.1250  1.8305 -3.2681
  126OSM   C14S13479   3.709   4.943   8.057  0.0320 -0.4729  0.3094
  126OSM   H14S13480   3.805   4.887   8.054  0.3622  0.1881 -2.6156
  126OSM   H14T13481   3.653   4.917   7.965  0.1828 -0.8090  0.3112
  126OSM   C15S13482   3.627   4.909   8.184 -0.1495  0.0009 -0.0277
  126OSM   H15S13483   3.544   4.984   8.180  0.8891  1.1217 -0.8287
  126OSM   H15T13484   3.685   4.931   8.277 -1.7069  1.7756  0.5727
  126OSM   C16S13485   3.585   4.759   8.179  0.4493 -0.2737  0.9046
  126OSM   H16S13486   3.539   4.735   8.277 -1.7093 -0.0718 -0.0428
  126OSM   H16T13487   3.675   4.695   8.167  0.4471  0.2748 -2.3032
  126OSM   C17S13488   3.486   4.735   8.059  0.6984  0.5642  0.0754
  126OSM   H17S13489   3.530   4.750   7.958  0.5517  0.4792 -0.0011
  126OSM   H17T13490   3.416   4.820   8.070 -1.3674 -1.0559 -0.1242
  126OSM   C18S13491   3.419   4.599   8.064 -0.0462 -0.2222 -0.0741
  126OSM   H18S13492   3.339   4.580   7.989  1.1616 -0.7398 -1.2631
  126OSM   H18T13493   3.387   4.571   8.166 -0.2140 -0.2462 -0.1342
  126OSM   H18U13494   3.504   4.529   8.047 -0.3149 -0.8568  1.1602
  126OSM    C1F13495   3.405   5.564   6.930 -0.0549  0.9989 -0.9539
  126OSM     OF13496   3.320   5.502   6.867  0.0713  0.6041  0.0574
  126OSM    C2F13497   3.378   5.702   6.980  0.3472 -0.5716 -0.4281
  126OSM    H2F13498   3.415   5.779   6.910 -0.9578  1.1264  0.7126
  126OSM    H2G13499   3.434   5.705   7.076  0.4237 -0.1650 -0.4859
  126OSM    C3F13500   3.226   5.732   7.001  0.7951  0.5427  0.1134
  126OSM    H3F13501   3.175   5.649   7.055  1.0063  1.1436  1.2455
  126OSM    H3G13502   3.173   5.748   6.905  0.4501  1.2964  0.4247
  126OSM    C4F13503   3.186   5.867   7.071 -0.5826 -1.0598  0.0882
  126OSM    H4F13504   3.080   5.883   7.044 -0.5218 -0.3387  0.2645
  126OSM    H4G13505   3.261   5.940   7.032  1.3639 -1.9686  2.0476
  126OSM    C5F13506   3.191   5.867   7.226  0.0997 -0.6815 -0.3628
  126OSM    H5F13507   3.297   5.847   7.253  0.9293  2.8780 -0.7453
  126OSM    H5G13508   3.119   5.790   7.258 -0.9794  0.5366  0.1826
  126OSM    C6F13509   3.145   6.002   7.282 -0.0746 -0.5086 -0.1291
  126OSM    H6F13510   3.075   6.057   7.215 -0.6538 -3.3702 -1.9127
  126OSM    H6G13511   3.228   6.075   7.295 -1.1343  0.5451  0.8611
  126OSM    C7F13512   3.078   5.997   7.414 -0.6571 -0.3370 -0.8756
  126OSM    H7F13513   3.022   5.902   7.429  1.8328 -1.7584 -0.3169
  126OSM    H7G13514   3.006   6.081   7.421 -0.3410 -0.3109  2.9087
  126OSM    C8F13515   3.158   6.045   7.538 -0.6619 -0.1519 -0.1399
  126OSM    H8F13516   3.085   6.081   7.613  1.4798 -0.0434  1.9750
  126OSM    H8G13517   3.218   6.136   7.513 -0.8711 -0.0521 -0.2774
  126OSM    C9F13518   3.255   5.938   7.590  0.4821 -0.0112 -0.0766
  126OSM    H9F13519   3.354   5.942   7.542  1.3514 -0.2441  1.6483
  126OSM   C10F13520   3.233   5.832   7.674  0.1555  0.1164 -0.9622
  126OSM   H10F13521   3.319   5.767   7.697 -0.0220 -0.6143 -2.3359
  126OSM   C11F13522   3.104   5.786   7.739  0.1934 -0.5321 -0.0605
  126OSM   H11F13523   3.054   5.703   7.685  1.9497 -0.7382 -1.4122
  126OSM   H11G13524   3.026   5.865   7.735  0.6381 -0.0783  0.1588
  126OSM   C12F13525   3.134   5.744   7.888 -0.4422 -0.5798  0.4085
  126OSM   H12F13526   3.218   5.672   7.881  1.8970  1.9942  1.2069
  126OSM   H12G13527   3.048   5.704   7.946 -0.3801  0.8247  1.5043
  126OSM   C13F13528   3.181   5.864   7.969 -0.9109 -0.0811 -0.4441
  126OSM   H13F13529   3.101   5.942   7.966  0.1738  1.0751  0.2439
  126OSM   H13G13530   3.269   5.921   7.932 -1.2013 -0.3348 -1.5310
  126OSM   C14F13531   3.204   5.848   8.118  0.0534 -0.5837 -0.0244
  126OSM   H14F13532   3.262   5.757   8.144  1.5415  0.3815  0.0714
  126OSM   H14G13533   3.103   5.847   8.164 -0.9608  1.0087 -2.1358
  126OSM   C15F13534   3.285   5.967   8.181  0.1696 -0.1333 -0.1812
  126OSM   H15F13535   3.258   6.067   8.141  0.4086  0.1579  0.3808
  126OSM   H15G13536   3.387   5.952   8.141  0.1922 -0.5132  0.0120
  126OSM   C16F13537   3.298   5.953   8.329  0.5370  0.8144  0.1890
  126OSM   H16F13538   3.393   6.008   8.349 -0.1871  2.1200  0.0974
  126OSM   H16G13539   3.308   5.849   8.367  0.7665  0.8541  0.2355
  126OSM   C17F13540   3.183   6.027   8.400 -0.2562 -0.6606  0.0347
  126OSM   H17F13541   3.087   5.996   8.354 -0.2855 -0.7531  0.1606
  126OSM   H17G13542   3.195   6.136   8.380 -1.2369 -0.2376  1.6959
  126OSM   C18F13543   3.174   5.986   8.550 -0.6175  0.4058  0.0050
  126OSM   H18F13544   3.093   6.046   8.597 -1.3263 -0.1977 -0.4467
  126OSM   H18G13545   3.269   6.015   8.601 -1.5432  2.1130  0.8014
  126OSM   H18H13546   3.168   5.876   8.563  0.2904  0.1651 -1.5032
  127OSM      N13547   5.382   3.859   5.836  0.2771 -0.3344  0.2721
  127OSM    C1513548   5.317   3.992   5.856  0.1165 -0.3514  0.1319
  127OSM   H15A13549   5.322   4.017   5.961 -1.8992 -1.9751  0.6596
  127OSM   H15B13550   5.210   3.981   5.841  0.4489 -1.3023 -1.6999
  127OSM   H15C13551   5.357   4.070   5.793  2.8915 -0.4726  1.6853
  127OSM    C1413552   5.348   3.801   5.700  0.7997 -0.1278  0.2335
  127OSM   H14A13553   5.379   3.865   5.619  1.6440  0.1125  0.7298
  127OSM   H14B13554   5.244   3.773   5.696  1.3829 -2.0166 -2.4596
  127OSM   H14C13555   5.412   3.715   5.689  1.2853  0.0668  1.3892
  127OSM    C1313556   5.526   3.878   5.854 -0.2345  0.5713 -0.2276
  127OSM   H13A13557   5.561   3.898   5.954  1.8426 -1.0067 -0.5979
  127OSM   H13B13558   5.563   3.957   5.789  1.1158  1.4811  1.5939
  127OSM   H13C13559   5.585   3.792   5.828 -0.2672  1.0359 -1.8854
  127OSM    C1213560   5.331   3.755   5.937 -0.2082  0.2296 -0.3653
  127OSM   H12A13561   5.352   3.654   5.907  0.0340  0.1213  0.1608
  127OSM   H12B13562   5.223   3.760   5.940 -0.2754 -2.0458  2.1733
  127OSM    C1113563   5.372   3.780   6.090  0.2065 -0.9521 -0.2740
  127OSM   H11A13564   5.482   3.797   6.087 -0.0354  2.2248  3.9487
  127OSM   H11B13565   5.359   3.686   6.147  1.6044 -0.4843  0.8473
  127OSM      P13566   5.170   3.925   6.183 -0.4049 -0.0389 -0.3873
  127OSM    O1313567   5.154   4.069   6.207  0.8535  0.1239  0.3521
  127OSM    O1413568   5.085   3.869   6.079  0.1759  0.0545  0.0449
  127OSM    O1113569   5.147   3.850   6.318 -0.3221 -0.1187  0.4654
  127OSM    O1213570   5.319   3.901   6.150  0.1557  0.0377 -0.2949
  127OSM    C1S13571   5.209   3.891   6.444  0.4200 -0.5280  0.2097
  127OSM    H1S13572   5.156   3.982   6.476  0.1219 -0.2727 -0.9908
  127OSM    H1T13573   5.309   3.938   6.427 -0.3799  0.8323 -0.8070
  127OSM     NF13574   5.228   3.823   6.679 -0.1676 -0.5791 -0.1924
  127OSM    HNF13575   5.317   3.802   6.719  1.0400  2.3821 -1.1762
  127OSM    C2S13576   5.206   3.774   6.543 -0.4192  0.1968 -0.3983
  127OSM    H2S13577   5.103   3.732   6.544  0.3396 -1.6939 -0.6487
  127OSM    C3S13578   5.299   3.656   6.490  0.3161  0.5092  0.2239
  127OSM    H3S13579   5.401   3.698   6.479 -0.7051  3.1674  0.3696
  127OSM     O313580   5.251   3.608   6.365  0.6499  0.4970  0.3881
  127OSM    HO313581   5.202   3.687   6.342  1.4536  0.5842 -1.0824
  127OSM    C4S13582   5.303   3.554   6.601 -0.4680 -0.8240  0.5178
  127OSM    H4S13583   5.400   3.562   6.653 -0.8368  2.4540  0.8047
  127OSM    C5S13584   5.215   3.460   6.632  0.3303  0.2220 -0.1043
  127OSM    H5S13585   5.125   3.445   6.572 -1.4352  0.5213  2.4053
  127OSM    C6S13586   5.229   3.366   6.743  0.2493 -0.2889 -0.1723
  127OSM    H6S13587   5.259   3.264   6.710 -1.9755 -1.0106 -0.0702
  127OSM    H6T13588   5.136   3.359   6.803 -0.1888 -1.6100 -0.9866
  127OSM    C7S13589   5.338   3.413   6.854  1.1792 -0.0326  0.0656
  127OSM    H7S13590   5.303   3.515   6.879 -2.7898 -1.0117 -1.1256
  127OSM    H7T13591   5.445   3.416   6.825  1.4262 -0.8213  0.8622
  127OSM    C8S13592   5.324   3.324   6.977  0.1660  0.5532 -0.0251
  127OSM    H8S13593   5.366   3.226   6.947  0.8131  0.7596  0.1990
  127OSM    H8T13594   5.214   3.323   6.995  0.3539 -0.4825  1.1106
  127OSM    C9S13595   5.406   3.378   7.099 -0.0905  0.2055  0.4847
  127OSM    H9S13596   5.356   3.468   7.140 -0.8794  0.9808 -2.1244
  127OSM    H9T13597   5.505   3.392   7.050 -0.0120 -2.8496 -0.3539
  127OSM   C10S13598   5.423   3.275   7.216  0.1744 -0.1761  0.3886
  127OSM   H10S13599   5.482   3.190   7.176  0.2424  0.0770 -0.0521
  127OSM   H10T13600   5.323   3.241   7.250  0.0977 -0.0356  0.3048
  127OSM   C11S13601   5.505   3.344   7.322  0.2573 -0.3741 -0.0774
  127OSM   H11S13602   5.454   3.435   7.359 -0.2904 -0.8855  0.4480
  127OSM   H11T13603   5.605   3.374   7.286  0.0054 -0.6245 -0.9848
  127OSM   C12S13604   5.533   3.245   7.440  0.1410 -0.0507 -0.6412
  127OSM   H12S13605   5.613   3.289   7.503 -1.8050 -0.6388  2.3781
  127OSM   H12T13606   5.554   3.146   7.394 -1.7806  0.1383 -1.9999
  127OSM   C13S13607   5.412   3.231   7.536  0.0362 -0.3255  1.0076
  127OSM   H13S13608   5.428   3.149   7.609  0.0883 -1.8768 -0.7123
  127OSM   H13T13609   5.326   3.192   7.478  2.0615 -1.2306 -1.5043
  127OSM   C14S13610   5.366   3.363   7.604 -0.4619  0.5780  0.3498
  127OSM   H14S13611   5.276   3.324   7.657 -2.0552 -0.2714 -2.8849
  127OSM   H14T13612   5.316   3.435   7.535 -2.1662 -1.3355 -0.4818
  127OSM   C15S13613   5.475   3.413   7.692  0.0787  0.9430 -0.2488
  127OSM   H15S13614   5.552   3.480   7.648  1.3982 -0.7129 -0.5277
  127OSM   H15T13615   5.538   3.327   7.724 -0.0670  1.5043  1.6211
  127OSM   C16S13616   5.419   3.486   7.813 -0.1742 -0.3663  0.6734
  127OSM   H16S13617   5.365   3.413   7.878  0.2073 -1.1141  0.1631
  127OSM   H16T13618   5.356   3.568   7.772  0.6485 -0.0520  0.0141
  127OSM   C17S13619   5.540   3.559   7.883  0.1150  0.1099  0.0603
  127OSM   H17S13620   5.575   3.622   7.799  0.3185 -1.0003 -0.6918
  127OSM   H17T13621   5.624   3.493   7.913  0.8933  0.8497 -0.5007
  127OSM   C18S13622   5.498   3.649   7.994 -0.0251  0.6313 -0.5144
  127OSM   H18S13623   5.432   3.726   7.948 -0.2768  1.4456  1.1899
  127OSM   H18T13624   5.578   3.697   8.053 -0.7252  0.3022  0.7042
  127OSM   H18U13625   5.438   3.585   8.062  2.8672  0.5178  2.0217
  127OSM    C1F13626   5.150   3.916   6.740  0.6021 -0.3426  0.0638
  127OSM     OF13627   5.043   3.932   6.693 -0.9580  0.6208 -0.2413
  127OSM    C2F13628   5.195   3.973   6.870 -0.2355  0.4455 -0.0533
  127OSM    H2F13629   5.232   4.073   6.840  0.5683  0.4180  0.7993
  127OSM    H2G13630   5.290   3.917   6.888 -1.5153 -1.5319  0.7305
  127OSM    C3F13631   5.089   3.955   6.983  0.4244  0.0543 -0.1711
  127OSM    H3F13632   5.080   3.845   6.993  3.2619 -0.1226  0.8678
  127OSM    H3G13633   4.990   3.987   6.945  0.2221 -0.4949 -0.1078
  127OSM    C4F13634   5.125   4.025   7.109 -0.6406  0.0142 -0.0428
  127OSM    H4F13635   5.090   4.131   7.106  0.4952  0.4067  0.1953
  127OSM    H4G13636   5.229   4.054   7.133 -0.4395 -1.3438  0.7694
  127OSM    C5F13637   5.063   3.950   7.230 -0.1158 -0.0220  0.6897
  127OSM    H5F13638   5.116   3.857   7.260  1.0859  0.4067 -0.0461
  127OSM    H5G13639   4.956   3.922   7.216 -0.3034  0.8898  0.2281
  127OSM    C6F13640   5.078   4.045   7.346 -0.1767  0.3301  0.1270
  127OSM    H6F13641   5.038   4.141   7.308 -0.4793  1.6161  3.6002
  127OSM    H6G13642   5.181   4.074   7.374 -0.2383 -0.2954  1.0025
  127OSM    C7F13643   4.991   3.992   7.459 -0.3503  0.0827  0.4274
  127OSM    H7F13644   5.002   3.883   7.476 -0.3992  0.1230  0.7242
  127OSM    H7G13645   4.887   4.013   7.426  0.4333  0.4952 -1.8418
  127OSM    C8F13646   5.008   4.056   7.597 -0.3707 -0.5991  0.6190
  127OSM    H8F13647   5.114   4.037   7.625  0.0350 -0.3991 -0.7631
  127OSM    H8G13648   4.936   4.020   7.674 -2.7005  0.9644 -0.7380
  127OSM    C9F13649   4.989   4.205   7.574 -0.4623  1.0559 -0.0244
  127OSM    H9F13650   5.058   4.246   7.499  1.2296 -1.4020  0.1197
  127OSM   C10F13651   4.901   4.286   7.628  0.1735 -1.1939 -0.1041
  127OSM   H10F13652   4.902   4.393   7.605  0.5160 -1.4105 -1.0820
  127OSM   C11F13653   4.800   4.249   7.732  0.3325 -0.7480 -0.6362
  127OSM   H11F13654   4.810   4.157   7.793 -0.7261 -0.5931 -0.2106
  127OSM   H11G13655   4.706   4.231   7.676  0.0933 -1.0441 -0.1403
  127OSM   C12F13656   4.768   4.362   7.836  0.2005  0.3869  0.1668
  127OSM   H12F13657   4.737   4.445   7.769 -0.4843 -0.4088 -0.5110
  127OSM   H12G13658   4.858   4.375   7.899 -1.5933  3.1143  2.3168
  127OSM   C13F13659   4.639   4.329   7.920  0.1998 -0.8492  1.0600
  127OSM   H13F13660   4.680   4.261   7.998 -0.2224 -2.0267  0.2685
  127OSM   H13G13661   4.566   4.275   7.856 -0.4182  0.6037  0.5257
  127OSM   C14F13662   4.564   4.445   7.988  0.3301 -0.4332 -0.7375
  127OSM   H14F13663   4.460   4.406   7.977  0.5593 -1.7483  1.3799
  127OSM   H14G13664   4.573   4.534   7.923 -0.2370 -0.9172 -1.4873
  127OSM   C15F13665   4.610   4.471   8.136  0.2949  0.1310 -0.1230
  127OSM   H15F13666   4.720   4.488   8.144  0.0084  2.0607  0.0053
  127OSM   H15G13667   4.590   4.386   8.204  1.5677 -0.2976 -0.2769
  127OSM   C16F13668   4.528   4.581   8.207  0.0005 -0.2622 -0.0164
  127OSM   H16F13669   4.422   4.557   8.227  0.0473 -1.7147 -1.3732
  127OSM   H16G13670   4.535   4.671   8.142  0.8185 -0.1314  0.2471
  127OSM   C17F13671   4.585   4.604   8.347 -1.4582  0.2331 -0.9960
  127OSM   H17F13672   4.690   4.632   8.324 -1.2524  0.5097  0.2532
  127OSM   H17G13673   4.590   4.510   8.406  2.8575 -0.2698 -2.0183
  127OSM   C18F13674   4.523   4.713   8.434  0.1542  0.2938 -0.3824
  127OSM   H18F13675   4.562   4.716   8.538 -1.5173  0.2584  0.2597
  127OSM   H18G13676   4.412   4.711   8.427  0.1262  0.8876 -0.1670
  127OSM   H18H13677   4.544   4.813   8.391 -0.7439  0.8774  0.4758
  128OSM      N13678   0.303   0.931   5.768  0.0462  0.4536 -0.2982
  128OSM    C1513679   0.364   0.793   5.776  0.6243  0.3851  0.3632
  128OSM   H15A13680   0.410   0.770   5.681 -1.9918  0.9294 -1.1025
  128OSM   H15B13681   0.299   0.711   5.806  0.6682  0.0895 -0.3337
  128OSM   H15C13682   0.440   0.795   5.852  1.5886 -0.0907 -0.5629
  128OSM    C1413683   0.413   1.029   5.746  0.5468 -0.0786 -0.5699
  128OSM   H14A13684   0.472   1.009   5.657  0.1824 -0.7003 -0.6756
  128OSM   H14B13685   0.478   1.032   5.832 -1.2159  0.2078  0.7655
  128OSM   H14C13686   0.362   1.123   5.734  1.1490  0.5780  1.8392
  128OSM    C1313687   0.189   0.941   5.672 -0.3492  0.0412  0.0704
  128OSM   H13A13688   0.132   1.024   5.710  0.7237 -0.2341  2.4360
  128OSM   H13B13689   0.124   0.856   5.689 -0.6539  0.5133  1.3692
  128OSM   H13C13690   0.219   0.943   5.569  1.1277  1.3218  0.5067
  128OSM    C1213691   0.253   0.950   5.912 -0.7766  0.2217 -0.0874
  128OSM   H12A13692   0.235   1.055   5.932 -0.2905  0.1905  0.5287
  128OSM   H12B13693   0.332   0.924   5.981 -0.3379 -0.6278 -0.9098
  128OSM    C1113694   0.129   0.868   5.975  0.3374  0.1561 -0.4561
  128OSM   H11A13695   0.042   0.887   5.908  0.0905 -3.1700 -1.1517
  128OSM   H11B13696   0.098   0.907   6.074 -3.4937 -1.3195 -0.9921
  128OSM      P13697   0.226   0.665   6.096  0.1276 -0.3206  0.1746
  128OSM    O1313698   0.257   0.522   6.078  0.0416 -0.3178  0.4052
  128OSM    O1413699   0.338   0.759   6.135  0.2139  0.5001 -0.4397
  128OSM    O1113700   0.118   0.679   6.209  0.1267  0.4160  0.2110
  128OSM    O1213701   0.149   0.728   5.971 -0.4001  0.1802  0.2335
  128OSM    C1S13702   0.107   0.595   6.323  0.0981  0.0751  0.2594
  128OSM    H1S13703   0.128   0.487   6.307  0.6983  0.2785 -0.3328
  128OSM    H1T13704  -0.002   0.597   6.346  0.0433 -0.8378  0.1278
  128OSM     NF13705   0.196   0.574   6.561 -0.4632 -0.2443  0.0565
  128OSM    HNF13706   0.133   0.580   6.637  2.5755  0.6849  2.6029
  128OSM    C2S13707   0.181   0.662   6.448 -0.0607  0.4005 -0.0209
  128OSM    H2S13708   0.280   0.690   6.406  0.0941 -1.4973 -1.0071
  128OSM    C3S13709   0.113   0.797   6.486  0.0552 -0.3557 -0.1796
  128OSM    H3S13710   0.024   0.768   6.547  0.5058  0.2258  0.7668
  128OSM     O313711   0.060   0.873   6.377  0.1357 -0.6830  0.2774
  128OSM    HO313712   0.048   0.815   6.301 -0.1865 -0.6520  0.3017
  128OSM    C4S13713   0.210   0.887   6.567 -0.1265 -0.1515 -0.3592
  128OSM    H4S13714   0.230   0.850   6.669  0.4588  1.9346  0.3138
  128OSM    C5S13715   0.278   0.991   6.517  0.4225  0.7260 -0.1756
  128OSM    H5S13716   0.247   1.025   6.417 -0.2373  0.7005  0.0218
  128OSM    C6S13717   0.375   1.078   6.588 -1.0747  0.5798 -0.2870
  128OSM    H6S13718   0.338   1.183   6.587 -1.5013  0.4531  1.3596
  128OSM    H6T13719   0.470   1.080   6.530 -0.7039 -1.3068  0.2147
  128OSM    C7S13720   0.408   1.068   6.738  0.6328 -0.0958  0.1672
  128OSM    H7S13721   0.451   0.967   6.756 -0.1468 -0.4835 -0.1244
  128OSM    H7T13722   0.314   1.069   6.797 -0.7018 -1.2272 -1.8631
  128OSM    C8S13723   0.498   1.181   6.784 -0.1841  0.9456 -0.1369
  128OSM    H8S13724   0.432   1.267   6.805 -0.5864  0.3758  0.9675
  128OSM    H8T13725   0.563   1.209   6.699 -1.3736  1.4421 -0.8931
  128OSM    C9S13726   0.581   1.158   6.913 -0.1853  0.4996 -0.7808
  128OSM    H9S13727   0.661   1.235   6.900  0.1134  0.1111 -1.2777
  128OSM    H9T13728   0.621   1.056   6.898 -1.6787 -0.3550  0.9032
  128OSM   C10S13729   0.504   1.185   7.044  0.0166 -0.1318  0.7509
  128OSM   H10S13730   0.486   1.294   7.038  2.7883  0.3211  0.0880
  128OSM   H10T13731   0.573   1.162   7.127 -0.0843  0.2884  0.9516
  128OSM   C11S13732   0.364   1.115   7.055  0.1659 -0.3660 -0.3481
  128OSM   H11S13733   0.377   1.021   6.997  4.1218 -0.7302  1.0077
  128OSM   H11T13734   0.296   1.189   7.007  2.0022  0.2726 -2.0257
  128OSM   C12S13735   0.330   1.089   7.199  0.0164 -1.0866  0.4189
  128OSM   H12S13736   0.362   0.990   7.239  2.1389  0.4157  2.5957
  128OSM   H12T13737   0.222   1.084   7.224 -0.0961 -0.3366  0.0875
  128OSM   C13S13738   0.374   1.202   7.299 -0.0936 -0.2984 -1.0339
  128OSM   H13S13739   0.350   1.294   7.242 -0.6078 -1.5076 -2.8350
  128OSM   H13T13740   0.484   1.199   7.305 -0.0665 -1.3680 -1.7490
  128OSM   C14S13741   0.302   1.194   7.435 -0.3743  0.2567  0.3702
  128OSM   H14S13742   0.331   1.108   7.500  0.8634  2.1168  2.3218
  128OSM   H14T13743   0.194   1.200   7.410 -0.1714 -0.0068 -0.5863
  128OSM   C15S13744   0.346   1.321   7.512 -1.0341  1.3803 -0.2203
  128OSM   H15S13745   0.310   1.410   7.457  0.4776  2.3127  0.2643
  128OSM   H15T13746   0.456   1.339   7.522 -1.0243  0.4244  1.5921
  128OSM   C16S13747   0.271   1.339   7.648 -0.1975 -0.0722 -0.3941
  128OSM   H16S13748   0.164   1.324   7.626 -0.1445  1.0587 -1.4424
  128OSM   H16T13749   0.292   1.441   7.685 -0.5379 -0.9633  2.3969
  128OSM   C17S13750   0.316   1.234   7.752  0.0251  0.2476 -0.0454
  128OSM   H17S13751   0.322   1.136   7.699  1.9940  1.1152 -1.4843
  128OSM   H17T13752   0.232   1.213   7.822  0.4700  0.0074  0.4212
  128OSM   C18S13753   0.445   1.273   7.821 -0.5798 -0.1761  0.6889
  128OSM   H18S13754   0.498   1.198   7.883  0.9555 -0.0865 -0.4930
  128OSM   H18T13755   0.424   1.367   7.876 -1.5114 -0.0399  0.1076
  128OSM   H18U13756   0.518   1.293   7.740 -0.3862 -1.0213  0.6461
  128OSM    C1F13757   0.276   0.469   6.558 -0.6618  0.2773  0.6886
  128OSM     OF13758   0.333   0.429   6.460  0.2405  0.8996  0.2005
  128OSM    C2F13759   0.296   0.396   6.686  0.1114 -0.9858  0.2886
  128OSM    H2F13760   0.194   0.399   6.732 -0.6385  5.1014 -1.3547
  128OSM    H2G13761   0.363   0.454   6.753  1.1178 -0.6207 -1.0110
  128OSM    C3F13762   0.368   0.261   6.682  0.1798  0.1258  0.2229
  128OSM    H3F13763   0.456   0.252   6.614  0.6476  2.4107  0.4750
  128OSM    H3G13764   0.293   0.187   6.649 -0.7866  1.5842 -0.9037
  128OSM    C4F13765   0.413   0.212   6.820 -0.1587  0.1235  0.6626
  128OSM    H4F13766   0.482   0.280   6.875  0.2290  0.9989 -0.8871
  128OSM    H4G13767   0.476   0.122   6.809 -1.3954 -0.8393  1.2922
  128OSM    C5F13768   0.295   0.173   6.910  0.7176  0.3159  0.1658
  128OSM    H5F13769   0.225   0.114   6.848  0.9791 -0.9483  1.0606
  128OSM    H5G13770   0.248   0.270   6.936 -1.1878 -0.1699 -1.3443
  128OSM    C6F13771   0.324   0.101   7.043  0.5783 -0.3011  0.0360
  128OSM    H6F13772   0.335  -0.008   7.025  1.7990 -0.0118 -1.0426
  128OSM    H6G13773   0.230   0.114   7.101  0.2162  0.2614 -0.6745
  128OSM    C7F13774   0.436   0.165   7.135  0.1439  0.1917  0.7654
  128OSM    H7F13775   0.407   0.272   7.144 -2.3818 -0.4561  0.8651
  128OSM    H7G13776   0.537   0.160   7.089 -1.2185 -0.5024 -2.3097
  128OSM    C8F13777   0.436   0.090   7.270 -1.2121 -0.3166  0.3553
  128OSM    H8F13778   0.470  -0.014   7.253 -0.9748  0.1035 -1.8504
  128OSM    H8G13779   0.330   0.078   7.303 -1.2101  1.0813  0.8895
  128OSM    C9F13780   0.529   0.161   7.368  0.6124  0.5521 -0.6697
  128OSM    H9F13781   0.619   0.208   7.327  0.5123 -0.6905 -2.4013
  128OSM   C10F13782   0.501   0.186   7.495 -0.3277 -0.2437 -0.2820
  128OSM   H10F13783   0.572   0.230   7.566 -2.0887  1.3079  0.5592
  128OSM   C11F13784   0.374   0.149   7.567 -0.5286 -0.3053 -1.2301
  128OSM   H11F13785   0.330   0.051   7.540  0.4165 -1.8732  2.5593
  128OSM   H11G13786   0.300   0.228   7.543  0.9893  1.3962 -0.4646
  128OSM   C12F13787   0.390   0.145   7.721  0.4643 -0.0517 -0.2790
  128OSM   H12F13788   0.290   0.155   7.769 -0.6577 -1.1126 -2.3079
  128OSM   H12G13789   0.454   0.224   7.764  0.2127  0.7461 -1.3580
  128OSM   C13F13790   0.455   0.017   7.770 -0.3315 -0.0432  0.1724
  128OSM   H13F13791   0.563   0.032   7.748 -1.2675  0.6360 -4.4912
  128OSM   H13G13792   0.419  -0.067   7.707 -0.5196  2.4283 -3.2029
  128OSM   C14F13793   0.420  -0.018   7.913  0.3231 -0.1771  0.2872
  128OSM   H14F13794   0.475  -0.112   7.934  1.3385  0.0337 -1.3626
  128OSM   H14G13795   0.310  -0.031   7.923 -0.0957  0.0226 -3.3479
  128OSM   C15F13796   0.479   0.058   8.030  0.3260  0.1205  0.1022
  128OSM   H15F13797   0.439   0.158   8.003  1.6272  0.7019  0.3187
  128OSM   H15G13798   0.589   0.055   8.043  0.3235 -0.2391  0.0674
  128OSM   C16F13799   0.414   0.013   8.161  0.6307  0.1147  0.4269
  128OSM   H16F13800   0.427  -0.097   8.171  1.9106  0.2930  0.8668
  128OSM   H16G13801   0.312   0.054   8.148  0.0762 -0.9791  1.2322
  128OSM   C17F13802   0.478   0.065   8.294 -0.1554  0.4897 -0.2736
  128OSM   H17F13803   0.575   0.014   8.313 -1.0763 -0.7417  1.3502
  128OSM   H17G13804   0.399   0.042   8.369  1.0867  1.5111  1.3962
  128OSM   C18F13805   0.501   0.212   8.290  0.1259 -0.1547 -0.1047
  128OSM   H18F13806   0.527   0.249   8.391 -1.3149 -0.1188  0.2609
  128OSM   H18G13807   0.412   0.275   8.267  0.2534 -0.4039 -1.3374
  128OSM   H18H13808   0.581   0.244   8.219  0.6105  0.6469  0.7917
  129OSM      N13809   4.814   4.262   6.130 -0.5048 -0.6558  0.8639
  129OSM    C1513810   4.841   4.360   6.017  0.7771 -0.2295 -0.0796
  129OSM   H15A13811   4.794   4.456   6.034  2.0959 -0.0033  2.5574
  129OSM   H15B13812   4.805   4.318   5.924  0.2118 -1.9009  0.8601
  129OSM   H15C13813   4.945   4.378   5.997  0.7375  0.1628  0.0580
  129OSM    C1413814   4.877   4.313   6.253 -0.4060 -0.0410 -0.2594
  129OSM   H14A13815   4.971   4.362   6.231 -1.2787  1.9881  0.4207
  129OSM   H14B13816   4.898   4.236   6.325  2.2438  0.1878 -0.7245
  129OSM   H14C13817   4.814   4.391   6.293 -1.7245 -1.5762  0.7129
  129OSM    C1313818   4.663   4.262   6.138 -0.3008  0.1231  0.2800
  129OSM   H13A13819   4.621   4.237   6.234 -2.1941 -0.4287 -0.6762
  129OSM   H13B13820   4.624   4.188   6.070 -0.3654 -1.2801  1.8393
  129OSM   H13C13821   4.626   4.359   6.106  2.4011  0.7351 -1.2165
  129OSM    C1213822   4.858   4.122   6.115  0.1005  0.0877 -0.2977
  129OSM   H12A13823   4.854   4.070   6.209  0.6893  0.7405  0.0925
  129OSM   H12B13824   4.962   4.131   6.084  0.4400 -0.2008  0.7524
  129OSM    C1113825   4.781   4.036   6.011  0.4117 -0.5790  0.1219
  129OSM   H11A13826   4.844   3.947   5.988 -0.3402 -1.0594 -0.1268
  129OSM   H11B13827   4.765   4.089   5.915  0.2994  0.3598  0.6557
  129OSM      P13828   4.632   3.842   6.137  0.2944  0.1739 -0.0313
  129OSM    O1313829   4.506   3.823   6.207  0.1067 -0.6888  0.0152
  129OSM    O1413830   4.667   3.742   6.037  0.4038  0.7549 -0.3438
  129OSM    O1113831   4.748   3.831   6.248 -0.2456  0.0232 -0.9186
  129OSM    O1213832   4.657   3.992   6.074 -0.0773 -0.8050 -0.2504
  129OSM    C1S13833   4.757   3.916   6.359  0.5974 -0.4261  0.4027
  129OSM    H1S13834   4.696   4.008   6.352  2.8764  1.1869  1.0572
  129OSM    H1T13835   4.858   3.962   6.363  0.8878 -0.7711 -2.4067
  129OSM     NF13836   4.778   3.931   6.598  0.2234 -0.4013 -0.4927
  129OSM    HNF13837   4.872   3.941   6.628 -0.2339  1.2891  0.4642
  129OSM    C2S13838   4.737   3.837   6.497 -1.1322  0.4845 -0.5337
  129OSM    H2S13839   4.631   3.807   6.506 -1.9927  3.0628 -1.5171
  129OSM    C3S13840   4.829   3.709   6.497  0.1665  0.8821  0.4048
  129OSM    H3S13841   4.931   3.744   6.473  0.4622  0.3690  0.9089
  129OSM     O313842   4.804   3.613   6.398  0.3082  0.1607  0.3199
  129OSM    HO313843   4.751   3.660   6.333  0.2841 -1.5457 -0.9370
  129OSM    C4S13844   4.837   3.655   6.642  0.4333  0.1399 -0.2353
  129OSM    H4S13845   4.907   3.713   6.703 -1.2351  0.1522  1.7133
  129OSM    C5S13846   4.781   3.549   6.696  0.8718 -0.4004  0.0893
  129OSM    H5S13847   4.707   3.500   6.631  1.1335 -0.0254 -0.5080
  129OSM    C6S13848   4.780   3.494   6.830 -0.2621 -0.5301  0.1771
  129OSM    H6S13849   4.794   3.384   6.824 -0.0804 -0.4433 -1.1207
  129OSM    H6T13850   4.679   3.514   6.872  0.7820  0.6171  2.2397
  129OSM    C7S13851   4.862   3.571   6.936  0.0461 -0.4716  0.1141
  129OSM    H7S13852   4.825   3.675   6.939 -0.0492 -0.4442 -1.7778
  129OSM    H7T13853   4.970   3.566   6.912  0.3674 -0.8885  1.5482
  129OSM    C8S13854   4.853   3.506   7.070 -0.0599 -0.1588 -0.1971
  129OSM    H8S13855   4.896   3.404   7.064 -2.1624 -1.0003 -1.2605
  129OSM    H8T13856   4.752   3.480   7.108  1.0266 -2.6465  1.0789
  129OSM    C9S13857   4.914   3.599   7.179 -0.6935  0.0309 -0.3605
  129OSM    H9S13858   4.869   3.700   7.166 -0.8463  0.2024  1.3707
  129OSM    H9T13859   5.024   3.602   7.161 -0.9356 -1.0675 -2.0897
  129OSM   C10S13860   4.896   3.547   7.325 -0.6234 -0.0806  0.1177
  129OSM   H10S13861   4.876   3.439   7.335  0.6867 -0.1343  2.3317
  129OSM   H10T13862   4.811   3.608   7.363 -1.6594 -1.0326 -0.6332
  129OSM   C11S13863   5.013   3.578   7.418 -0.1911  0.5648 -0.3527
  129OSM   H11S13864   5.031   3.686   7.402 -0.4014  0.8335  1.1694
  129OSM   H11T13865   5.108   3.527   7.390 -0.3097  0.3307 -0.3320
  129OSM   C12S13866   4.989   3.538   7.564  0.4379 -0.2781 -0.4126
  129OSM   H12S13867   5.009   3.431   7.584 -1.1983 -0.4773  0.2210
  129OSM   H12T13868   4.882   3.547   7.592  0.7725  2.1045  0.2458
  129OSM   C13S13869   5.068   3.618   7.661 -0.0863 -0.0345 -0.1188
  129OSM   H13S13870   5.034   3.723   7.651  0.3551  0.1475  0.2644
  129OSM   H13T13871   5.173   3.614   7.624 -0.6898  2.2239 -2.1473
  129OSM   C14S13872   5.062   3.577   7.798  0.2378 -0.1390 -0.2956
  129OSM   H14S13873   5.110   3.478   7.817  0.6115  0.0207 -0.4132
  129OSM   H14T13874   4.959   3.553   7.833 -0.3321  2.0286 -0.4541
  129OSM   C15S13875   5.116   3.683   7.890  0.3873  0.0230  0.0880
  129OSM   H15S13876   5.213   3.723   7.852  0.0567 -0.9340 -1.8234
  129OSM   H15T13877   5.136   3.651   7.994 -0.9417  0.3001  0.4413
  129OSM   C16S13878   5.024   3.806   7.900  0.3336  0.4074  0.6566
  129OSM   H16S13879   4.919   3.777   7.925  0.2363  0.0845 -0.1337
  129OSM   H16T13880   5.020   3.853   7.800 -1.2746  0.7827  0.8694
  129OSM   C17S13881   5.069   3.913   8.005 -0.0993 -0.1074 -0.5390
  129OSM   H17S13882   5.162   3.952   7.958 -0.8940  1.3042 -0.9571
  129OSM   H17T13883   5.094   3.861   8.100 -0.8742  3.0833  1.4960
  129OSM   C18S13884   4.960   4.013   8.034 -0.9062 -0.0640  0.3270
  129OSM   H18S13885   4.882   3.938   8.058 -0.8295 -0.7014 -1.3427
  129OSM   H18T13886   4.925   4.068   7.944  0.1328  2.3376  1.3518
  129OSM   H18U13887   4.978   4.073   8.126  2.3564 -0.9502  0.3139
  129OSM    C1F13888   4.696   4.035   6.631  0.4769  0.2724  0.2092
  129OSM     OF13889   4.579   4.035   6.584 -0.0064 -0.0470  0.0339
  129OSM    C2F13890   4.752   4.155   6.711  1.0639 -0.2273 -0.7106
  129OSM    H2F13891   4.713   4.251   6.670  0.1022 -0.4242 -0.2655
  129OSM    H2G13892   4.858   4.149   6.681  0.8756 -1.6467 -1.1482
  129OSM    C3F13893   4.727   4.138   6.857  0.6849  0.0849 -0.1782
  129OSM    H3F13894   4.759   4.036   6.885  1.0540 -0.4480 -2.4420
  129OSM    H3G13895   4.622   4.158   6.886  1.1822  2.1258  0.3046
  129OSM    C4F13896   4.810   4.239   6.925  0.4476 -0.4133 -0.7991
  129OSM    H4F13897   4.807   4.343   6.887  2.3181 -0.3752 -0.9119
  129OSM    H4G13898   4.910   4.211   6.886  0.8128 -0.5613  0.2300
  129OSM    C5F13899   4.804   4.232   7.087  0.3239  0.0048  0.0631
  129OSM    H5F13900   4.885   4.281   7.143 -0.3932  0.2993  0.8498
  129OSM    H5G13901   4.817   4.124   7.107 -0.0593 -0.3849 -1.6486
  129OSM    C6F13902   4.674   4.264   7.146  0.6055 -0.0954 -0.4610
  129OSM    H6F13903   4.597   4.191   7.111  1.2671 -0.1557 -1.8152
  129OSM    H6G13904   4.649   4.366   7.109  0.8757 -0.3510 -1.3421
  129OSM    C7F13905   4.672   4.258   7.297  0.2679 -0.1293 -0.0923
  129OSM    H7F13906   4.761   4.315   7.332 -0.2726  1.5627 -1.4052
  129OSM    H7G13907   4.691   4.152   7.322 -1.1326 -0.0490  1.3450
  129OSM    C8F13908   4.531   4.286   7.350  0.2834  0.0124 -0.5144
  129OSM    H8F13909   4.534   4.247   7.454  0.9038 -0.9649 -0.8977
  129OSM    H8G13910   4.449   4.235   7.294  1.1700  1.6875 -3.4880
  129OSM    C9F13911   4.489   4.429   7.341 -0.1136 -0.0006 -0.5958
  129OSM    H9F13912   4.493   4.460   7.235 -0.5274  1.0183 -0.3178
  129OSM   C10F13913   4.455   4.508   7.446 -0.0292 -0.4492 -0.6411
  129OSM   H10F13914   4.444   4.615   7.427  0.1015 -0.4584 -0.7700
  129OSM   C11F13915   4.455   4.477   7.596 -1.3366 -0.6803  0.1659
  129OSM   H11F13916   4.482   4.557   7.668 -1.1314 -1.7121  1.2612
  129OSM   H11G13917   4.517   4.389   7.623 -1.1501 -0.4021  0.6594
  129OSM   C12F13918   4.312   4.433   7.639 -0.0498 -0.0154  0.2275
  129OSM   H12F13919   4.314   4.394   7.744 -1.0817  1.1093  0.6718
  129OSM   H12G13920   4.267   4.361   7.567 -1.1987  0.5926  0.3339
  129OSM   C13F13921   4.206   4.553   7.638  0.1048  0.1673  0.2612
  129OSM   H13F13922   4.208   4.598   7.537  2.4478 -1.6406 -0.5388
  129OSM   H13G13923   4.234   4.631   7.712 -1.9961  0.1978  1.0889
  129OSM   C14F13924   4.070   4.511   7.681 -0.0579 -0.0405 -0.3976
  129OSM   H14F13925   4.061   4.531   7.791  0.8733 -1.0515 -0.1326
  129OSM   H14G13926   4.063   4.404   7.654  0.4334  0.1531 -1.3156
  129OSM   C15F13927   3.955   4.579   7.607 -0.5293  0.3905  0.2978
  129OSM   H15F13928   3.968   4.564   7.498 -0.0134 -0.9082  0.5255
  129OSM   H15G13929   3.963   4.689   7.616  0.2701  0.2617  1.2895
  129OSM   C16F13930   3.821   4.536   7.643 -0.1299 -0.5643  0.1356
  129OSM   H16F13931   3.815   4.429   7.672 -0.0444 -0.7513 -0.5085
  129OSM   H16G13932   3.753   4.545   7.556  0.8435  1.0339 -0.4768
  129OSM   C17F13933   3.750   4.626   7.747  0.0355 -0.1945  0.2417
  129OSM   H17F13934   3.656   4.571   7.770  0.9560 -1.3407  1.2762
  129OSM   H17G13935   3.737   4.728   7.704 -3.3284 -0.5629  0.2506
  129OSM   C18F13936   3.832   4.636   7.877 -0.6171 -0.0698  0.9011
  129OSM   H18F13937   3.848   4.538   7.928  0.5378  1.2011  3.0188
  129OSM   H18G13938   3.777   4.694   7.955 -0.2589  1.4720  0.0219
  129OSM   H18H13939   3.924   4.695   7.862 -1.3103  0.5218 -1.1701
  130OSM      N13940   0.170   6.653   6.257  0.1072  0.1275 -0.4019
  130OSM    C1513941   0.165   6.584   6.393  0.6422 -0.3545  0.8969
  130OSM   H15A13942   0.190   6.650   6.475 -0.2889  0.7468  0.3137
  130OSM   H15B13943   0.226   6.495   6.398  0.6569 -0.4663 -0.9833
  130OSM   H15C13944   0.061   6.559   6.408  0.6066 -0.9901 -0.4093
  130OSM    C1413945   0.151   6.544   6.156 -0.3265  0.5501 -0.0817
  130OSM   H14A13946   0.059   6.487   6.158 -2.5658  4.0910  0.5458
  130OSM   H14B13947   0.239   6.481   6.151 -0.5809  0.3216 -2.2022
  130OSM   H14C13948   0.140   6.580   6.055 -0.5757  1.5975  0.3185
  130OSM    C1313949   0.062   6.757   6.248  0.1056 -1.1721  0.3496
  130OSM   H13A13950   0.073   6.835   6.322  0.6846 -0.3653 -0.5623
  130OSM   H13B13951  -0.036   6.713   6.256 -1.0206  1.2146  0.0334
  130OSM   H13C13952   0.066   6.798   6.148 -1.6618  0.5916  0.9687
  130OSM    C1213953   0.300   6.720   6.245  0.3607 -0.6681 -0.7467
  130OSM   H12A13954   0.335   6.745   6.344  1.8141 -1.1196 -1.1298
  130OSM   H12B13955   0.281   6.822   6.215 -1.5225 -0.5645  0.7351
  130OSM    C1113956   0.424   6.653   6.177  0.3789 -0.0636 -0.3020
  130OSM   H11A13957   0.507   6.721   6.206  0.3944 -0.5907  0.9356
  130OSM   H11B13958   0.411   6.662   6.067 -0.0043  0.8900 -0.1826
  130OSM      P13959   0.576   6.448   6.232 -0.5125 -0.1631 -0.1535
  130OSM    O1313960   0.552   6.314   6.292 -0.6029 -0.2044  0.3123
  130OSM    O1413961   0.631   6.445   6.096 -0.5012 -0.0248  0.0439
  130OSM    O1113962   0.663   6.536   6.330  0.0996 -0.7889 -0.0084
  130OSM    O1213963   0.440   6.522   6.221  0.1126 -0.0531 -0.0514
  130OSM    C1S13964   0.611   6.579   6.456 -0.8642 -0.1761  0.0471
  130OSM    H1S13965   0.501   6.595   6.455 -0.8303  0.0610 -1.2388
  130OSM    H1T13966   0.656   6.680   6.470  0.0304 -0.3862 -1.1352
  130OSM     NF13967   0.578   6.525   6.694  0.1957 -0.2804 -0.0212
  130OSM    HNF13968   0.615   6.594   6.755 -1.2624  1.1623 -0.7111
  130OSM    C2S13969   0.659   6.490   6.576  0.0393  0.5888  0.5803
  130OSM    H2S13970   0.648   6.381   6.557  1.1845  0.2869  1.5368
  130OSM    C3S13971   0.810   6.501   6.596  0.0272  0.0554  0.4410
  130OSM    H3S13972   0.828   6.611   6.587 -1.1960  0.2958  0.9192
  130OSM     O313973   0.874   6.447   6.483 -0.4401  0.0459 -0.1309
  130OSM    HO313974   0.807   6.438   6.415  0.3286 -1.1979 -0.7428
  130OSM    C4S13975   0.856   6.435   6.733  0.0609 -0.8824 -0.8217
  130OSM    H4S13976   0.834   6.498   6.821 -2.0103 -1.9414 -0.5378
  130OSM    C5S13977   0.916   6.322   6.753 -0.0690 -0.2746 -0.7948
  130OSM    H5S13978   0.940   6.250   6.673  0.2449  1.3175 -2.1638
  130OSM    C6S13979   0.958   6.267   6.893  0.1782 -1.1818  1.4354
  130OSM    H6S13980   1.050   6.207   6.878  0.0232 -0.4759 -3.2939
  130OSM    H6T13981   0.888   6.191   6.933 -0.0880 -2.0142 -0.5291
  130OSM    C7S13982   0.998   6.368   6.998  0.2619 -0.7578 -0.7888
  130OSM    H7S13983   0.917   6.437   7.030  1.5823 -0.1852  1.4309
  130OSM    H7T13984   1.079   6.432   6.957 -0.1264 -0.9654 -1.8878
  130OSM    C8S13985   1.062   6.306   7.124 -0.1836  0.1143  0.5537
  130OSM    H8S13986   1.143   6.238   7.092 -1.0690 -0.2135 -0.9926
  130OSM    H8T13987   0.988   6.244   7.179  0.7448  0.6300  2.4290
  130OSM    C9S13988   1.115   6.409   7.230  0.2355 -0.7377 -0.2330
  130OSM    H9S13989   1.049   6.498   7.238 -1.1166 -1.5244 -2.3175
  130OSM    H9T13990   1.219   6.442   7.208  0.3022 -0.6079  0.2697
  130OSM   C10S13991   1.119   6.337   7.361  0.5658  0.0484 -0.0450
  130OSM   H10S13992   1.212   6.280   7.383 -0.2568 -0.2627  2.7734
  130OSM   H10T13993   1.034   6.271   7.389 -1.5937  2.8983  0.2848
  130OSM   C11S13994   1.110   6.445   7.465  0.0791 -0.7054 -0.0803
  130OSM   H11S13995   1.027   6.516   7.445  0.9601  0.0297 -1.2333
  130OSM   H11T13996   1.207   6.499   7.459 -0.7255  0.6516 -1.0411
  130OSM   C12S13997   1.105   6.398   7.615  0.1589  0.0085  0.6402
  130OSM   H12S13998   1.197   6.336   7.624  0.2520 -0.0403 -0.5521
  130OSM   H12T13999   1.015   6.334   7.614 -0.9439  1.5399  0.8492
  130OSM   C13S14000   1.092   6.497   7.735  0.6148  0.2691  0.1010
  130OSM   H13S14001   1.061   6.436   7.823  0.0244  0.6855  0.1846
  130OSM   H13T14002   0.997   6.555   7.724 -0.3398 -1.4561 -1.0948
  130OSM   C14S14003   1.219   6.572   7.776 -0.5961  0.9833 -0.1505
  130OSM   H14S14004   1.238   6.660   7.711  1.4570  0.0253 -0.8567
  130OSM   H14T14005   1.308   6.507   7.765 -1.0736  0.6657 -2.4495
  130OSM   C15S14006   1.221   6.643   7.914  0.2362 -0.8290  0.2171
  130OSM   H15S14007   1.136   6.608   7.976 -0.3834 -0.7040 -0.5561
  130OSM   H15T14008   1.226   6.754   7.916  0.4517 -0.8420  0.5063
  130OSM   C16S14009   1.347   6.594   7.989  0.2145 -0.4303 -0.1252
  130OSM   H16S14010   1.435   6.630   7.932 -0.9567 -0.3463 -1.9609
  130OSM   H16T14011   1.346   6.483   7.994  0.8858 -0.4622 -0.5937
  130OSM   C17S14012   1.356   6.647   8.137  0.0229 -0.0508 -0.1868
  130OSM   H17S14013   1.428   6.586   8.196  0.5636 -1.5203 -2.3171
  130OSM   H17T14014   1.261   6.621   8.189  1.1257 -0.2479  1.7671
  130OSM   C18S14015   1.367   6.803   8.152  0.5781 -0.3540  0.8516
  130OSM   H18S14016   1.277   6.855   8.112  0.4117 -0.1181  1.5240
  130OSM   H18T14017   1.456   6.831   8.092 -0.2052  0.5727  0.0940
  130OSM   H18U14018   1.378   6.826   8.260  2.1061 -1.9960  1.0704
  130OSM    C1F14019   0.444   6.507   6.692 -0.1449  0.3126  0.3194
  130OSM     OF14020   0.389   6.438   6.611  0.4618 -0.8144  0.7816
  130OSM    C2F14021   0.367   6.572   6.793 -0.1745 -0.3360 -0.5933
  130OSM    H2F14022   0.316   6.657   6.744 -2.8087 -1.1631  0.6173
  130OSM    H2G14023   0.426   6.606   6.881  1.6533 -1.3663 -1.3836
  130OSM    C3F14024   0.259   6.472   6.853  0.6763 -0.8764 -0.2729
  130OSM    H3F14025   0.313   6.384   6.893 -1.8478 -2.3458 -0.0025
  130OSM    H3G14026   0.183   6.451   6.775 -0.9432  2.8013  0.1993
  130OSM    C4F14027   0.195   6.526   6.979 -0.0817  0.2597  0.4327
  130OSM    H4F14028   0.126   6.607   6.946 -0.6101 -0.1224  0.5825
  130OSM    H4G14029   0.266   6.582   7.044 -0.0720  0.3856  0.3121
  130OSM    C5F14030   0.109   6.429   7.063  0.0038 -0.2356 -0.3468
  130OSM    H5F14031   0.055   6.359   6.996  1.7131 -1.3120 -0.6454
  130OSM    H5G14032   0.035   6.484   7.124  0.3554  1.3292 -1.3150
  130OSM    C6F14033   0.197   6.339   7.153  0.0864  0.0104  0.2160
  130OSM    H6F14034   0.285   6.393   7.195 -0.3790 -1.0708  2.6437
  130OSM    H6G14035   0.242   6.260   7.089 -0.2100  1.9973 -2.5079
  130OSM    C7F14036   0.112   6.273   7.266 -0.3222  0.6089 -0.2930
  130OSM    H7F14037   0.017   6.232   7.225 -0.4093  2.3902 -1.9824
  130OSM    H7G14038   0.087   6.349   7.342 -3.9914 -1.4517  0.6657
  130OSM    C8F14039   0.195   6.156   7.321 -0.2734 -0.2693  0.5240
  130OSM    H8F14040   0.266   6.196   7.397 -2.0710  1.8419  1.1383
  130OSM    H8G14041   0.259   6.104   7.246 -0.1733 -0.9536  1.0715
  130OSM    C9F14042   0.108   6.056   7.383  0.8478  0.1921  0.8862
  130OSM    H9F14043   0.038   6.011   7.311  1.9760  1.4577 -1.0395
  130OSM   C10F14044   0.114   6.013   7.515 -0.0521 -0.3961 -0.2267
  130OSM   H10F14045   0.032   5.951   7.554 -0.2930 -0.7906 -1.3414
  130OSM   C11F14046   0.209   6.049   7.627 -0.8946  0.0935 -0.0354
  130OSM   H11F14047   0.295   6.111   7.594 -1.2831  0.2513 -0.7619
  130OSM   H11G14048   0.242   5.952   7.671 -0.2448  0.5818  0.5673
  130OSM   C12F14049   0.136   6.123   7.735 -0.3909 -0.0364 -0.5491
  130OSM   H12F14050   0.057   6.057   7.777 -0.4659 -1.0188 -2.2119
  130OSM   H12G14051   0.093   6.220   7.702  0.5043  0.1890 -1.0514
  130OSM   C13F14052   0.222   6.166   7.861 -0.0734 -0.2684 -0.3196
  130OSM   H13F14053   0.289   6.245   7.822  1.9250 -0.8592  1.8059
  130OSM   H13G14054   0.286   6.084   7.902 -0.5649 -1.0507 -1.0865
  130OSM   C14F14055   0.141   6.214   7.981  0.2975  0.2640  0.3462
  130OSM   H14F14056   0.104   6.123   8.032 -0.0755  0.5617  0.6160
  130OSM   H14G14057   0.054   6.278   7.952 -0.9664 -0.9871  1.2878
  130OSM   C15F14058   0.224   6.302   8.082  0.7471  0.3175  0.0412
  130OSM   H15F14059   0.265   6.389   8.026 -0.2258  0.2748 -0.7527
  130OSM   H15G14060   0.316   6.245   8.107 -0.7575 -2.7947 -1.1210
  130OSM   C16F14061   0.135   6.351   8.195 -0.0683 -0.0116  0.3031
  130OSM   H16F14062   0.067   6.421   8.141  0.5684  0.6188  0.3090
  130OSM   H16G14063   0.179   6.417   8.273 -0.8202  1.1811 -0.2650
  130OSM   C17F14064   0.050   6.251   8.269  0.4643  0.5381 -0.0138
  130OSM   H17F14065   0.119   6.186   8.327 -0.1128 -0.7237 -0.7222
  130OSM   H17G14066  -0.006   6.187   8.197  2.7625 -0.5978 -0.8240
  130OSM   C18F14067  -0.050   6.325   8.363  0.6714  0.2026  0.5345
  130OSM   H18F14068  -0.106   6.395   8.297  0.9805  0.3324  0.4098
  130OSM   H18G14069  -0.004   6.391   8.440  0.9432  0.0085  0.5397
  130OSM   H18H14070  -0.133   6.259   8.396  0.2340  1.2505  1.5820
  131OSM      N14071   4.474   2.490   5.769  0.0857 -0.4476  0.0497
  131OSM    C1514072   4.557   2.501   5.645 -0.2977 -0.4152 -0.1782
  131OSM   H15A14073   4.632   2.575   5.668  0.5993 -0.2379 -3.4447
  131OSM   H15B14074   4.494   2.535   5.564  0.7452  0.1488 -0.7546
  131OSM   H15C14075   4.608   2.412   5.614  0.9584  0.1929  0.1324
  131OSM    C1414076   4.425   2.630   5.803 -0.4075  0.3356  0.0398
  131OSM   H14A14077   4.501   2.701   5.833 -0.5899  0.4573  0.2201
  131OSM   H14B14078   4.360   2.631   5.889 -1.2680 -2.4750 -0.5227
  131OSM   H14C14079   4.372   2.673   5.719 -2.8859  0.8610  1.7988
  131OSM    C1314080   4.364   2.391   5.719 -0.5532  0.4374 -0.5115
  131OSM   H13A14081   4.279   2.406   5.784  0.6853 -4.4115  2.5274
  131OSM   H13B14082   4.400   2.290   5.733  2.9581  1.8102  1.1136
  131OSM   H13C14083   4.349   2.410   5.614  0.7926 -0.8366 -0.9378
  131OSM    C1214084   4.568   2.432   5.878 -0.2729  0.7391  0.0236
  131OSM   H12A14085   4.607   2.342   5.833 -1.2984 -0.3160  1.2335
  131OSM   H12B14086   4.506   2.421   5.965 -1.9929  1.6860 -1.0597
  131OSM    C1114087   4.693   2.524   5.920  0.1450 -0.4572  0.4918
  131OSM   H11A14088   4.733   2.492   6.019  1.1972 -0.7763 -0.0230
  131OSM   H11B14089   4.652   2.626   5.934  0.3595 -0.1472 -1.0242
  131OSM      P14090   4.880   2.379   5.810  0.2295  0.1729  0.3558
  131OSM    O1314091   4.794   2.282   5.733 -0.6027 -0.3959  0.3353
  131OSM    O1414092   5.013   2.426   5.754  0.3346  0.4360  0.6748
  131OSM    O1114093   4.908   2.320   5.954  0.1847  0.1452  0.1954
  131OSM    O1214094   4.793   2.510   5.822  0.9718  0.2510 -0.4307
  131OSM    C1S14095   4.987   2.396   6.043  0.2029 -0.5125 -0.2899
  131OSM    H1S14096   4.966   2.505   6.045 -0.1201 -0.5605 -0.9646
  131OSM    H1T14097   5.096   2.388   6.024  0.2199  0.9954 -0.8467
  131OSM     NF14098   5.021   2.431   6.283  0.0279  0.0244  0.2028
  131OSM    HNF14099   5.096   2.420   6.348  1.8433 -0.2283 -1.8603
  131OSM    C2S14100   4.980   2.330   6.186 -0.6070 -0.0142 -0.5634
  131OSM    H2S14101   4.872   2.306   6.196 -0.2989 -1.1347  0.1890
  131OSM    C3S14102   5.040   2.187   6.198 -0.7733 -0.0269 -0.5367
  131OSM    H3S14103   5.149   2.201   6.217 -1.1903  1.3556  0.8872
  131OSM     O314104   5.022   2.114   6.077  0.2687  0.4294 -0.0967
  131OSM    HO314105   5.000   2.181   6.012 -0.7911 -0.7551 -0.9868
  131OSM    C4S14106   4.990   2.118   6.322 -0.5541  0.2864 -1.2822
  131OSM    H4S14107   4.880   2.114   6.329 -0.3308 -4.2037  1.6458
  131OSM    C5S14108   5.057   2.067   6.424 -0.1692  0.2289 -0.3599
  131OSM    H5S14109   5.166   2.079   6.431 -0.3466  0.8244  1.8606
  131OSM    C6S14110   4.982   2.014   6.544 -0.2945  0.4887 -0.4733
  131OSM    H6S14111   5.038   1.920   6.566  0.3124  1.4509  2.1922
  131OSM    H6T14112   4.885   1.969   6.514  1.7129 -2.5405 -2.7698
  131OSM    C7S14113   4.976   2.111   6.660 -0.2238  0.4555  0.4338
  131OSM    H7S14114   4.899   2.189   6.644 -0.4152  0.1400 -0.1901
  131OSM    H7T14115   5.075   2.159   6.674  1.1982 -1.8643 -1.3705
  131OSM    C8S14116   4.976   2.035   6.799  0.3733  0.1297  0.1773
  131OSM    H8S14117   5.078   2.004   6.828  0.7710  1.4617  0.2669
  131OSM    H8T14118   4.921   1.939   6.790 -2.2686  1.5510  0.4959
  131OSM    C9S14119   4.921   2.108   6.922  0.1778 -0.3484 -1.0815
  131OSM    H9S14120   4.811   2.113   6.916  0.3193  1.4177 -2.3455
  131OSM    H9T14121   4.967   2.209   6.932 -1.1581  0.2764 -1.1904
  131OSM   C10S14122   4.952   2.027   7.061 -0.6746  0.3432 -0.0145
  131OSM   H10S14123   5.063   2.025   7.067 -0.5942 -0.6010 -1.7312
  131OSM   H10T14124   4.917   1.923   7.045 -1.9737  0.3922  2.1409
  131OSM   C11S14125   4.886   2.102   7.181 -0.3799  0.0009 -0.1066
  131OSM   H11S14126   4.775   2.099   7.187 -0.3384  0.3670  0.8819
  131OSM   H11T14127   4.915   2.209   7.172 -1.9174  0.5601  1.5068
  131OSM   C12S14128   4.935   2.080   7.322  0.0406 -0.2255 -0.6377
  131OSM   H12S14129   5.044   2.096   7.334  0.4392 -2.2848 -1.3369
  131OSM   H12T14130   4.915   1.976   7.356  2.7703  0.2914  2.7825
  131OSM   C13S14131   4.870   2.170   7.427 -0.1508  0.6499  0.8899
  131OSM   H13S14132   4.759   2.172   7.436 -0.4283  0.4190 -1.9850
  131OSM   H13T14133   4.889   2.276   7.400 -0.6337  0.0879 -1.7635
  131OSM   C14S14134   4.932   2.135   7.568  0.3100  0.3643  0.6811
  131OSM   H14S14135   5.040   2.112   7.579  0.2341  0.7462  2.3321
  131OSM   H14T14136   4.887   2.036   7.592 -0.6280  0.1821 -1.6706
  131OSM   C15S14137   4.894   2.240   7.671 -0.3575 -0.1812 -0.3855
  131OSM   H15S14138   4.797   2.286   7.643 -0.7778 -1.5277 -1.2118
  131OSM   H15T14139   4.972   2.319   7.679 -0.4651  0.5180 -4.8228
  131OSM   C16S14140   4.871   2.181   7.814 -0.2155 -0.0603 -0.3152
  131OSM   H16S14141   4.945   2.098   7.822 -2.6335 -2.0140  2.9827
  131OSM   H16T14142   4.768   2.141   7.808  0.4322 -1.5385 -2.2446
  131OSM   C17S14143   4.896   2.281   7.921  0.2777 -0.3320 -0.3696
  131OSM   H17S14144   4.841   2.238   8.007  0.5898  1.9393  1.0074
  131OSM   H17T14145   4.844   2.374   7.888  0.4816 -0.4718 -1.0843
  131OSM   C18S14146   5.036   2.315   7.961  0.2619 -0.2311  0.0687
  131OSM   H18S14147   5.085   2.388   7.893  0.4873  2.2651  2.8074
  131OSM   H18T14148   5.098   2.223   7.965  0.9894  0.3044  1.6212
  131OSM   H18U14149   5.045   2.352   8.065 -2.3646  0.2261  0.1558
  131OSM    C1F14150   4.944   2.546   6.310  0.6566  1.2467 -0.3127
  131OSM     OF14151   4.831   2.550   6.268  0.3270  0.0096  0.0847
  131OSM    C2F14152   4.999   2.655   6.389 -0.5213  0.1828 -0.1382
  131OSM    H2F14153   4.973   2.749   6.337 -1.4350 -1.1188 -2.0936
  131OSM    H2G14154   5.109   2.645   6.394 -0.5696  0.0513  0.6798
  131OSM    C3F14155   4.940   2.656   6.537  0.4723 -0.1062  0.3539
  131OSM    H3F14156   4.833   2.676   6.518  0.8283  0.5809 -1.0054
  131OSM    H3G14157   4.958   2.745   6.602 -0.7738  0.7093 -0.3964
  131OSM    C4F14158   4.961   2.531   6.623  0.2894  0.3821  0.1849
  131OSM    H4F14159   5.068   2.519   6.648  0.3429 -1.0367 -0.6755
  131OSM    H4G14160   4.933   2.438   6.568  0.9282  1.6614 -2.3977
  131OSM    C5F14161   4.885   2.544   6.757 -0.7699 -0.1953  0.3345
  131OSM    H5F14162   4.837   2.447   6.782 -0.5994  0.2272  2.4189
  131OSM    H5G14163   4.804   2.619   6.748 -2.6164 -2.1350  0.5317
  131OSM    C6F14164   4.972   2.582   6.879  0.5724 -0.1477  1.3633
  131OSM    H6F14165   5.000   2.685   6.849 -0.5209 -0.8970 -2.5523
  131OSM    H6G14166   5.052   2.506   6.887  0.8983  0.0562  0.1405
  131OSM    C7F14167   4.889   2.605   7.008 -0.3131 -0.2354  0.4380
  131OSM    H7F14168   4.809   2.529   7.023 -1.1305  0.6015  0.3643
  131OSM    H7G14169   4.822   2.692   6.991 -0.6699 -0.2233  1.8430
  131OSM    C8F14170   4.971   2.639   7.138 -0.6917 -0.7709 -0.1137
  131OSM    H8F14171   5.052   2.707   7.103 -0.5496  0.5242  2.5927
  131OSM    H8G14172   5.027   2.552   7.179 -2.7289 -2.1741 -0.2391
  131OSM    C9F14173   4.884   2.702   7.247 -0.2189  0.0441  0.0261
  131OSM    H9F14174   4.841   2.797   7.213  2.5082  1.3158 -0.0452
  131OSM   C10F14175   4.868   2.670   7.382  0.1116 -0.4697 -0.3965
  131OSM   H10F14176   4.789   2.726   7.434  0.0158  0.7192 -1.7917
  131OSM   C11F14177   4.933   2.556   7.459  0.3449  0.0288  0.1970
  131OSM   H11F14178   5.013   2.513   7.394 -0.5312  1.2169 -1.7306
  131OSM   H11G14179   4.857   2.480   7.485 -2.7450  2.6957 -0.7103
  131OSM   C12F14180   5.007   2.605   7.591  0.2064 -0.2900 -0.5197
  131OSM   H12F14181   5.086   2.682   7.571  1.1642 -0.2404  3.0868
  131OSM   H12G14182   5.065   2.524   7.640 -1.8966 -2.1203 -1.0053
  131OSM   C13F14183   4.913   2.657   7.704 -0.1058 -0.4331 -0.7588
  131OSM   H13F14184   4.835   2.592   7.750  0.2796 -0.6080 -0.3389
  131OSM   H13G14185   4.859   2.744   7.662  0.9970  0.3084 -0.6559
  131OSM   C14F14186   4.998   2.720   7.823 -0.6740  0.2206  0.5878
  131OSM   H14F14187   5.068   2.801   7.793 -1.0465  0.9998  1.7641
  131OSM   H14G14188   5.046   2.635   7.875  1.8946 -0.3773 -2.5882
  131OSM   C15F14189   4.896   2.791   7.921 -0.0126  0.4139  0.1490
  131OSM   H15F14190   4.816   2.719   7.947  0.0676  0.2296 -0.1033
  131OSM   H15G14191   4.861   2.887   7.878  0.6729 -0.7046 -3.0776
  131OSM   C16F14192   4.950   2.819   8.060  0.2786 -0.4302 -0.2173
  131OSM   H16F14193   4.888   2.903   8.100  2.0174  0.0419  1.5917
  131OSM   H16G14194   5.057   2.849   8.061  0.9717 -2.6698 -2.4697
  131OSM   C17F14195   4.946   2.698   8.148  0.3125  0.6623  0.1026
  131OSM   H17F14196   4.940   2.606   8.085  0.8805  1.3015 -0.9023
  131OSM   H17G14197   4.849   2.700   8.201 -1.7273  2.3188 -3.4804
  131OSM   C18F14198   5.066   2.682   8.237  0.3643  0.0334 -0.0262
  131OSM   H18F14199   5.081   2.779   8.290  1.4200 -0.7772  1.1909
  131OSM   H18G14200   5.155   2.667   8.172 -0.4642 -2.9817 -0.5521
  131OSM   H18H14201   5.055   2.596   8.307  1.8304  0.0860  0.3014
  132OSM      N14202   6.688   3.626   6.120 -0.0758  0.2089  0.1698
  132OSM    C1514203   6.569   3.571   6.056  0.1106 -0.1144 -0.0673
  132OSM   H15A14204   6.535   3.624   5.968  2.1813 -0.1852 -0.9256
  132OSM   H15B14205   6.484   3.565   6.122  0.6227  1.5132  0.7394
  132OSM   H15C14206   6.585   3.471   6.018  0.1379  0.0890 -0.5970
  132OSM    C1414207   6.690   3.608   6.272 -0.5282 -0.5358  0.1358
  132OSM   H14A14208   6.617   3.675   6.313 -0.4398  1.3198 -2.6121
  132OSM   H14B14209   6.788   3.612   6.317  0.8129 -1.7207 -2.5238
  132OSM   H14C14210   6.667   3.504   6.291 -1.8066 -0.1462  0.7026
  132OSM    C1314211   6.812   3.554   6.068 -0.1764  0.0764  0.1180
  132OSM   H13A14212   6.901   3.597   6.113 -1.9352  0.5224  3.2902
  132OSM   H13B14213   6.813   3.563   5.960  2.3907 -0.3612  0.0716
  132OSM   H13C14214   6.814   3.450   6.096  3.4405 -0.1879 -0.8404
  132OSM    C1214215   6.694   3.776   6.089  0.5916 -0.7638 -0.2771
  132OSM   H12A14216   6.598   3.820   6.113  0.6173 -0.2954 -0.9994
  132OSM   H12B14217   6.694   3.789   5.981 -1.3258  0.5315 -0.1434
  132OSM    C1114218   6.812   3.853   6.145  0.5292 -0.9431  0.2773
  132OSM   H11A14219   6.796   3.853   6.255 -3.3627  0.0844 -0.2261
  132OSM   H11B14220   6.792   3.955   6.104  0.7569 -0.5788  1.0587
  132OSM      P14221   7.068   3.813   6.195  0.4406  0.0095 -0.2784
  132OSM    O1314222   7.066   3.686   6.274  0.2509 -0.2454  0.4648
  132OSM    O1414223   7.178   3.829   6.101  0.3960  0.5591 -0.0098
  132OSM    O1114224   7.049   3.940   6.292  0.7540  0.0974  0.0289
  132OSM    O1214225   6.939   3.811   6.105  0.0011 -0.5758  0.3378
  132OSM    C1S14226   7.004   3.911   6.424  0.3464  0.2418 -0.3036
  132OSM    H1S14227   7.074   3.843   6.478  2.0377  2.0389 -0.1826
  132OSM    H1T14228   6.903   3.866   6.421  1.2661 -1.9576  0.2555
  132OSM     NF14229   6.952   3.994   6.643 -0.4231  0.6895 -0.3428
  132OSM    HNF14230   6.865   3.994   6.692  0.0558  2.5777  0.5451
  132OSM    C2S14231   6.984   4.041   6.508 -0.2394  0.4687  0.2055
  132OSM    H2S14232   7.080   4.095   6.515 -0.0227  0.8271 -4.3276
  132OSM    C3S14233   6.880   4.126   6.442  0.0103 -0.2983 -0.7233
  132OSM    H3S14234   6.781   4.077   6.437  0.2713 -1.2379  2.3654
  132OSM     O314235   6.903   4.165   6.305  0.5787  0.0274  0.1235
  132OSM    HO314236   6.970   4.107   6.269  0.4833  0.3998 -0.6475
  132OSM    C4S14237   6.850   4.243   6.528 -0.3322  0.2812  0.2983
  132OSM    H4S14238   6.760   4.216   6.584  0.5597 -1.0378  1.1371
  132OSM    C5S14239   6.910   4.361   6.534 -0.3818  0.2927  0.0945
  132OSM    H5S14240   6.977   4.380   6.450  0.5504 -1.6435  0.3738
  132OSM    C6S14241   6.888   4.479   6.627  0.1767  0.1374  0.3901
  132OSM    H6S14242   6.821   4.553   6.578  2.4529  2.8170  1.1758
  132OSM    H6T14243   6.989   4.522   6.641  1.4949 -1.3219 -4.0267
  132OSM    C7S14244   6.816   4.425   6.755  0.2779 -0.6846 -0.2867
  132OSM    H7S14245   6.716   4.377   6.749 -0.7460  1.5826 -2.5721
  132OSM    H7T14246   6.791   4.524   6.800 -0.0923 -0.4442 -1.0176
  132OSM    C8S14247   6.904   4.343   6.854  0.3454 -0.5708  0.0764
  132OSM    H8S14248   6.992   4.404   6.883 -1.1271  1.5486  0.2093
  132OSM    H8T14249   6.929   4.252   6.796  0.4361 -0.7230  0.3514
  132OSM    C9S14250   6.822   4.298   6.977 -0.1067  0.1551  0.3990
  132OSM    H9S14251   6.747   4.227   6.937  0.6347  0.0843 -0.8802
  132OSM    H9T14252   6.771   4.386   7.022 -2.5165 -1.1823  0.3278
  132OSM   C10S14253   6.909   4.239   7.084 -0.9182  0.8336 -0.3369
  132OSM   H10S14254   6.971   4.314   7.137 -2.7400  0.4965  2.3762
  132OSM   H10T14255   6.962   4.152   7.040 -2.2673 -0.5733  0.7230
  132OSM   C11S14256   6.839   4.183   7.211 -0.9487 -0.2031 -0.4052
  132OSM   H11S14257   6.786   4.090   7.183 -1.7947  0.7282 -1.9547
  132OSM   H11T14258   6.756   4.251   7.240  0.4342  1.2356  0.2909
  132OSM   C12S14259   6.930   4.165   7.332 -0.1075  0.2691 -0.6264
  132OSM   H12S14260   6.992   4.257   7.339  0.7752  0.1055 -4.7392
  132OSM   H12T14261   7.006   4.087   7.309 -1.3356 -1.5131  1.1558
  132OSM   C13S14262   6.868   4.128   7.461  0.1882  0.6473  0.4951
  132OSM   H13S14263   6.805   4.036   7.452  1.4877 -0.3104  1.0445
  132OSM   H13T14264   6.793   4.205   7.491  0.8176  0.6668  2.0540
  132OSM   C14S14265   6.969   4.126   7.567 -0.4572 -0.1687 -0.6481
  132OSM   H14S14266   7.041   4.209   7.554  1.8623 -2.0549 -0.1233
  132OSM   H14T14267   7.031   4.034   7.561  1.2593  0.7423  2.1846
  132OSM   C15S14268   6.909   4.131   7.706  0.0800  0.0523  0.2121
  132OSM   H15S14269   6.840   4.045   7.719  0.5749 -0.2806  0.6411
  132OSM   H15T14270   6.852   4.224   7.727 -0.4250  0.1023 -1.3106
  132OSM   C16S14271   7.018   4.121   7.811 -0.0831 -0.5155 -0.1961
  132OSM   H16S14272   7.088   4.205   7.791 -2.2919  1.0285 -1.6196
  132OSM   H16T14273   7.080   4.032   7.784 -0.7452 -1.0372  0.0112
  132OSM   C17S14274   6.971   4.111   7.952  0.1328  0.3270  0.0530
  132OSM   H17S14275   6.920   4.013   7.966  2.8781 -0.7015  3.7926
  132OSM   H17T14276   6.896   4.189   7.975 -1.1784 -0.7590 -0.5358
  132OSM   C18S14277   7.080   4.111   8.058 -0.3384  0.2654 -0.4433
  132OSM   H18S14278   7.032   4.098   8.157 -0.2349  0.8890 -0.3125
  132OSM   H18T14279   7.129   4.209   8.077  0.9903  0.3631 -3.9089
  132OSM   H18U14280   7.155   4.030   8.051 -1.0788 -0.4289 -0.4862
  132OSM    C1F14281   7.047   3.949   6.727  0.7448  0.0900 -1.0404
  132OSM     OF14282   7.168   3.972   6.713  0.2874  0.1576  0.2804
  132OSM    C2F14283   6.997   3.881   6.850 -0.5118 -0.6065  0.3579
  132OSM    H2F14284   6.975   3.776   6.820 -0.2239 -0.2189 -1.2708
  132OSM    H2G14285   6.901   3.918   6.893 -2.7249 -3.9861 -1.4298
  132OSM    C3F14286   7.098   3.885   6.963  0.0545 -0.0660  0.2184
  132OSM    H3F14287   7.132   3.989   6.981  0.3035  0.1617 -1.4524
  132OSM    H3G14288   7.191   3.828   6.942 -0.0487  1.6023 -5.7263
  132OSM    C4F14289   7.028   3.846   7.097 -0.5200  0.8076 -0.5500
  132OSM    H4F14290   6.998   3.741   7.079 -0.2775  0.6343  0.0784
  132OSM    H4G14291   6.942   3.915   7.112  0.4649  2.2538 -1.3194
  132OSM    C5F14292   7.130   3.835   7.208 -0.3053 -0.3176  0.8331
  132OSM    H5F14293   7.204   3.918   7.204 -1.8198  1.0490  0.6998
  132OSM    H5G14294   7.200   3.754   7.179  0.5783  0.8292 -0.2844
  132OSM    C6F14295   7.073   3.812   7.348 -0.2461 -0.1228  0.0841
  132OSM    H6F14296   7.003   3.726   7.348 -1.1740  0.5861 -2.2706
  132OSM    H6G14297   7.001   3.893   7.371  0.2725  0.6371 -0.9545
  132OSM    C7F14298   7.164   3.800   7.463  0.0536 -0.2074 -1.0766
  132OSM    H7F14299   7.185   3.906   7.489  1.3134 -0.4707 -0.9826
  132OSM    H7G14300   7.264   3.759   7.437  1.0682  1.4943  0.0705
  132OSM    C8F14301   7.116   3.714   7.575 -0.2594 -0.2938 -0.0999
  132OSM    H8F14302   7.087   3.617   7.529  0.2525 -0.8679  0.7767
  132OSM    H8G14303   7.025   3.762   7.619  1.4137  1.8333  1.1683
  132OSM    C9F14304   7.228   3.690   7.676  0.4961  0.7653  0.0038
  132OSM    H9F14305   7.324   3.651   7.639  0.7636  1.6792 -0.2652
  132OSM   C10F14306   7.224   3.713   7.806 -0.4897  0.2003 -0.0038
  132OSM   H10F14307   7.314   3.681   7.861 -0.6857 -1.6183 -0.6976
  132OSM   C11F14308   7.113   3.768   7.885  0.0229 -0.2272 -0.3015
  132OSM   H11F14309   7.017   3.768   7.829 -0.6320 -0.2348  0.7934
  132OSM   H11G14310   7.140   3.870   7.918 -0.0220  0.1722 -1.4837
  132OSM   C12F14311   7.078   3.689   8.021 -0.5487 -0.3005  0.1345
  132OSM   H12F14312   7.047   3.587   7.990 -2.0157  0.0228  0.5038
  132OSM   H12G14313   7.001   3.748   8.075  0.0326  0.7031 -0.1217
  132OSM   C13F14314   7.191   3.689   8.125  0.6876 -0.1504  0.0141
  132OSM   H13F14315   7.221   3.790   8.161  0.9194 -0.8647  1.8569
  132OSM   H13G14316   7.277   3.640   8.074  0.5771  1.8820 -2.2329
  132OSM   C14F14317   7.157   3.607   8.248 -0.5871 -0.2745  1.4765
  132OSM   H14F14318   7.106   3.511   8.225 -0.5520 -0.0982  0.6321
  132OSM   H14G14319   7.081   3.671   8.297 -1.4122 -0.1023 -0.0143
  132OSM   C15F14320   7.267   3.570   8.347 -0.8607 -0.1051 -0.3571
  132OSM   H15F14321   7.338   3.490   8.313 -0.7653 -0.6443  1.0584
  132OSM   H15G14322   7.218   3.531   8.439  0.1490  1.2577  0.7795
  132OSM   C16F14323   7.362   3.678   8.390 -0.1003 -0.3463  0.4239
  132OSM   H16F14324   7.298   3.764   8.420  1.0733  1.1322 -1.1553
  132OSM   H16G14325   7.422   3.716   8.304  0.7519 -0.0744  1.1242
  132OSM   C17F14326   7.445   3.630   8.503  0.3011  0.1557  0.3035
  132OSM   H17F14327   7.386   3.559   8.565 -2.3224 -0.2009 -2.4932
  132OSM   H17G14328   7.469   3.713   8.573 -1.4877 -0.2617  1.4333
  132OSM   C18F14329   7.586   3.577   8.459  0.1467  0.0192 -0.3742
  132OSM   H18F14330   7.570   3.492   8.390  0.0637  0.8416 -1.3778
  132OSM   H18G14331   7.640   3.537   8.548 -0.7916  0.8908  0.6042
  132OSM   H18H14332   7.637   3.657   8.402  1.5354 -1.0221 -0.6125
  133OSM      N14333   1.006   4.422   6.310 -0.5859  0.7194 -0.1014
  133OSM    C1514334   0.956   4.285   6.274  0.3194  0.1000  0.4308
  133OSM   H15A14335   1.030   4.218   6.233 -0.3767  0.8964 -2.2246
  133OSM   H15B14336   0.869   4.298   6.212  0.6655 -1.2147 -0.3486
  133OSM   H15C14337   0.925   4.237   6.365 -1.1055 -0.4882 -0.3528
  133OSM    C1414338   1.107   4.410   6.414  0.3636  0.0356  0.5264
  133OSM   H14A14339   1.151   4.507   6.434  2.7231 -0.7828 -0.5260
  133OSM   H14B14340   1.186   4.338   6.398 -1.5907 -1.7221 -1.5628
  133OSM   H14C14341   1.061   4.383   6.507  1.0024 -0.6172  0.6575
  133OSM    C1314342   1.072   4.478   6.187  0.3480  0.4318 -1.0355
  133OSM   H13A14343   1.148   4.408   6.157 -1.0642 -0.3254 -2.9564
  133OSM   H13B14344   1.115   4.575   6.207  1.4445 -0.0547 -0.9870
  133OSM   H13C14345   1.004   4.469   6.103  0.7226 -2.1462 -1.0798
  133OSM    C1214346   0.883   4.503   6.347  0.0481 -0.5506 -0.3736
  133OSM   H12A14347   0.912   4.600   6.385  2.2992 -0.8834 -1.1618
  133OSM   H12B14348   0.832   4.460   6.432  0.4366 -0.4783 -0.1020
  133OSM    C1114349   0.773   4.529   6.234 -0.0252 -1.4514 -0.3606
  133OSM   H11A14350   0.815   4.592   6.153  0.3033 -0.4442  0.5846
  133OSM   H11B14351   0.694   4.587   6.286  0.3502  0.7489 -2.1585
  133OSM      P14352   0.581   4.353   6.201  0.1789 -0.0052  0.3390
  133OSM    O1314353   0.470   4.446   6.173  0.1929  0.1269  0.1248
  133OSM    O1414354   0.575   4.221   6.139  0.0921  0.5374 -0.3132
  133OSM    O1114355   0.586   4.342   6.359 -0.5359 -0.5116  0.3489
  133OSM    O1214356   0.720   4.411   6.169  0.0738 -0.0341  0.2118
  133OSM    C1S14357   0.554   4.217   6.421  0.4884 -0.6758  0.6449
  133OSM    H1S14358   0.613   4.132   6.380  0.1131 -0.8916  0.5459
  133OSM    H1T14359   0.445   4.198   6.408  0.8144 -0.8039 -2.2449
  133OSM     NF14360   0.620   4.090   6.626 -0.1607 -0.5373 -0.2725
  133OSM    HNF14361   0.546   4.048   6.677 -1.3055  1.6540 -0.0771
  133OSM    C2S14362   0.594   4.224   6.573  0.0641  0.3962  0.1251
  133OSM    H2S14363   0.688   4.282   6.582  1.2599 -1.4745 -0.0883
  133OSM    C3S14364   0.483   4.312   6.643  0.3269  0.2476  0.0462
  133OSM    H3S14365   0.392   4.250   6.634 -0.1604  0.8404  0.8614
  133OSM     O314366   0.456   4.438   6.584  0.2765  0.3961  0.9269
  133OSM    HO314367   0.492   4.425   6.496 -1.9578 -1.4729  0.2209
  133OSM    C4S14368   0.517   4.337   6.789 -0.3757 -1.3623 -0.2639
  133OSM    H4S14369   0.616   4.383   6.798  0.4812 -3.0448 -1.0949
  133OSM    C5S14370   0.458   4.289   6.898  0.1520 -0.0332 -0.3565
  133OSM    H5S14371   0.373   4.220   6.899  1.0720 -1.2099 -1.4974
  133OSM    C6S14372   0.504   4.311   7.044  0.5029  0.5596 -0.1697
  133OSM    H6S14373   0.441   4.387   7.094  1.0004  1.6562 -1.2016
  133OSM    H6T14374   0.607   4.351   7.053  1.3781 -1.2699 -1.6393
  133OSM    C7S14375   0.486   4.176   7.114  0.3692 -0.1877 -0.1537
  133OSM    H7S14376   0.528   4.095   7.050 -2.2791 -0.0979 -2.0472
  133OSM    H7T14377   0.378   4.160   7.135  0.5824 -3.4649 -1.1657
  133OSM    C8S14378   0.575   4.177   7.244  0.9262  0.0040  0.3248
  133OSM    H8S14379   0.683   4.194   7.222  0.0559  4.0654 -1.3053
  133OSM    H8T14380   0.572   4.071   7.278 -0.2590 -0.7437 -1.9691
  133OSM    C9S14381   0.531   4.284   7.349  0.3733 -0.0153 -0.1435
  133OSM    H9S14382   0.420   4.284   7.341  0.4577  0.0234 -1.3129
  133OSM    H9T14383   0.574   4.383   7.323 -0.9238  0.8327  0.8787
  133OSM   C10S14384   0.577   4.265   7.498  0.1584  0.8766 -0.5538
  133OSM   H10S14385   0.687   4.253   7.486  0.1887  0.6784 -0.0958
  133OSM   H10T14386   0.540   4.169   7.540  1.9548  1.5867  2.8483
  133OSM   C11S14387   0.550   4.384   7.596  0.1838  0.2208 -0.3939
  133OSM   H11S14388   0.451   4.428   7.573  1.0493  2.0390 -0.7979
  133OSM   H11T14389   0.615   4.471   7.571  1.0817 -0.5878 -0.9140
  133OSM   C12S14390   0.559   4.347   7.741 -0.0906 -0.3062  0.5259
  133OSM   H12S14391   0.659   4.306   7.766 -0.5981 -1.3178  0.9591
  133OSM   H12T14392   0.490   4.266   7.773 -0.9535  0.6822  1.2156
  133OSM   C13S14393   0.550   4.462   7.840  0.7541 -0.9060  0.5460
  133OSM   H13S14394   0.445   4.497   7.829  0.8639 -0.4138  1.0239
  133OSM   H13T14395   0.613   4.547   7.807  0.2686 -0.2517  1.2570
  133OSM   C14S14396   0.588   4.426   7.984  0.6661  0.4968 -0.3173
  133OSM   H14S14397   0.691   4.385   7.981  1.2249  1.2286  4.5706
  133OSM   H14T14398   0.526   4.348   8.031 -0.9758  0.1433 -2.9467
  133OSM   C15S14399   0.568   4.544   8.074 -0.2206  0.4617 -0.2371
  133OSM   H15S14400   0.459   4.566   8.078 -0.6523 -1.4270 -1.1941
  133OSM   H15T14401   0.617   4.630   8.025 -1.3287  2.1300  1.5214
  133OSM   C16S14402   0.633   4.529   8.216  0.5460  0.0270  0.2986
  133OSM   H16S14403   0.742   4.548   8.208  0.6655  0.3236  2.2132
  133OSM   H16T14404   0.601   4.427   8.248 -1.2341  0.3891 -0.2512
  133OSM   C17S14405   0.570   4.639   8.301  0.7733  0.3090  0.0633
  133OSM   H17S14406   0.459   4.630   8.298  0.7652 -0.3266  1.6829
  133OSM   H17T14407   0.602   4.734   8.253  1.4303  1.6716  3.0332
  133OSM   C18S14408   0.624   4.641   8.446 -0.5149  0.1569 -0.4523
  133OSM   H18S14409   0.643   4.537   8.481 -2.1251  0.3699  1.0958
  133OSM   H18T14410   0.548   4.690   8.509 -2.6515 -1.8346 -1.4177
  133OSM   H18U14411   0.711   4.710   8.441 -1.1296  0.8540 -1.6499
  133OSM    C1F14412   0.712   4.015   6.581  0.2953  0.6731 -0.4309
  133OSM     OF14413   0.796   4.054   6.500  0.3565  0.0402 -0.8309
  133OSM    C2F14414   0.718   3.882   6.653  0.2134 -0.0027 -0.0229
  133OSM    H2F14415   0.680   3.892   6.757  0.0967 -0.1956 -0.0489
  133OSM    H2G14416   0.823   3.849   6.669 -0.1460 -0.3516  1.7505
  133OSM    C3F14417   0.648   3.774   6.575  0.7462  0.4457 -0.0485
  133OSM    H3F14418   0.702   3.752   6.480 -2.9371  0.0298 -2.1397
  133OSM    H3G14419   0.540   3.795   6.561  1.1451  2.5387 -0.1255
  133OSM    C4F14420   0.661   3.641   6.648 -0.3018 -0.8090 -0.2511
  133OSM    H4F14421   0.760   3.633   6.698 -0.5108 -0.1430  0.2805
  133OSM    H4G14422   0.651   3.552   6.582  0.4826 -0.1745 -1.2447
  133OSM    C5F14423   0.557   3.635   6.762  0.2252  0.1556 -0.0995
  133OSM    H5F14424   0.458   3.654   6.717 -0.3482  1.5659  1.6940
  133OSM    H5G14425   0.586   3.716   6.833  1.6578 -3.0598  3.1325
  133OSM    C6F14426   0.552   3.505   6.833  0.2184  0.7501  0.2400
  133OSM    H6F14427   0.653   3.489   6.876  1.3140 -3.0381 -3.4358
  133OSM    H6G14428   0.520   3.424   6.764  0.3315 -0.2395  1.3317
  133OSM    C7F14429   0.459   3.516   6.958  0.1036 -0.3114 -0.4125
  133OSM    H7F14430   0.363   3.563   6.925  0.0240  0.1350  0.4317
  133OSM    H7G14431   0.498   3.587   7.034 -2.2543 -1.4232  1.9438
  133OSM    C8F14432   0.435   3.381   7.037  0.1813  0.2506  0.2745
  133OSM    H8F14433   0.419   3.300   6.962  0.3940  0.7766 -0.3491
  133OSM    H8G14434   0.335   3.385   7.085 -0.6297 -2.3157 -1.0860
  133OSM    C9F14435   0.557   3.345   7.118 -0.3796  0.4643  0.2869
  133OSM    H9F14436   0.635   3.296   7.058  1.2822  2.6274  0.5969
  133OSM   C10F14437   0.584   3.343   7.250 -0.0778  0.1196  0.0282
  133OSM   H10F14438   0.679   3.300   7.286 -0.0946 -1.8774 -2.2036
  133OSM   C11F14439   0.482   3.388   7.353  0.4128  0.1539  0.3380
  133OSM   H11F14440   0.390   3.435   7.313  0.0152 -0.6098  0.3451
  133OSM   H11G14441   0.530   3.469   7.413  0.8716 -0.5334  0.9108
  133OSM   C12F14442   0.433   3.289   7.452 -0.1932  0.5333  0.4179
  133OSM   H12F14443   0.513   3.222   7.491  1.2530  2.1842  0.3662
  133OSM   H12G14444   0.365   3.230   7.387 -2.5321  2.1537  1.3546
  133OSM   C13F14445   0.350   3.344   7.571 -0.7396 -0.2287  0.1062
  133OSM   H13F14446   0.267   3.403   7.527  1.7401  1.5932 -2.3004
  133OSM   H13G14447   0.411   3.414   7.633  0.7831 -1.4792  0.0466
  133OSM   C14F14448   0.296   3.234   7.662  0.0034  0.3739  0.0725
  133OSM   H14F14449   0.373   3.185   7.726 -3.5645 -1.2076  3.3199
  133OSM   H14G14450   0.249   3.151   7.605  0.4363 -0.3353  0.7488
  133OSM   C15F14451   0.199   3.297   7.767 -0.2253 -0.8449 -0.4515
  133OSM   H15F14452   0.122   3.351   7.708 -1.1461  0.2479  1.7095
  133OSM   H15G14453   0.247   3.363   7.842  1.4221 -2.3751 -0.1095
  133OSM   C16F14454   0.126   3.189   7.849  0.1720  0.2696 -0.3202
  133OSM   H16F14455   0.204   3.131   7.903 -0.0710 -1.3864 -1.7086
  133OSM   H16G14456   0.078   3.123   7.774  1.0886  0.0227 -0.6957
  133OSM   C17F14457   0.019   3.247   7.950  0.8715 -0.2701 -0.2732
  133OSM   H17F14458  -0.038   3.159   7.988 -0.3431 -0.0419 -1.5326
  133OSM   H17G14459  -0.046   3.312   7.889 -0.7281 -0.6234  1.0428
  133OSM   C18F14460   0.080   3.324   8.064 -0.3243 -0.4908 -0.8830
  133OSM   H18F14461  -0.005   3.362   8.125  0.1522  0.1336 -0.6103
  133OSM   H18G14462   0.129   3.413   8.018  1.8868 -1.8778 -1.2673
  133OSM   H18H14463   0.151   3.259   8.120 -2.5477 -0.5407  2.0066
  134OSM      N14464   1.226   0.611   6.502  0.4133 -0.0477 -0.0910
  134OSM    C1514465   1.374   0.584   6.497 -0.1632  0.6428  0.3811
  134OSM   H15A14466   1.423   0.617   6.587 -1.3711  3.2762  0.1434
  134OSM   H15B14467   1.413   0.637   6.411  0.0498  1.3922  0.9333
  134OSM   H15C14468   1.390   0.479   6.480 -1.5738  0.4243  0.3323
  134OSM    C1414469   1.222   0.751   6.549 -0.1878  0.5400  0.6888
  134OSM   H14A14470   1.298   0.818   6.511  0.3356  0.3605  1.4180
  134OSM   H14B14471   1.256   0.749   6.651  2.4952 -0.4033 -0.1908
  134OSM   H14C14472   1.126   0.800   6.537  0.1328  1.0670  0.2287
  134OSM    C1314473   1.176   0.594   6.359  0.3319  0.1143  0.2106
  134OSM   H13A14474   1.073   0.624   6.350  0.2889  0.3641  1.5095
  134OSM   H13B14475   1.180   0.488   6.336 -2.1560  0.1260 -0.4189
  134OSM   H13C14476   1.242   0.647   6.292  2.4387 -0.4706  1.7571
  134OSM    C1214477   1.162   0.518   6.595 -0.3644 -0.0622  0.1947
  134OSM   H12A14478   1.059   0.545   6.612 -0.7917 -1.2319 -0.4820
  134OSM   H12B14479   1.215   0.528   6.689  1.3822  1.6629 -0.9563
  134OSM    C1114480   1.161   0.367   6.545 -0.6838 -0.3277  0.2467
  134OSM   H11A14481   1.112   0.357   6.445  1.2821 -2.1650 -0.5746
  134OSM   H11B14482   1.103   0.308   6.620 -1.1709  0.7435  0.7139
  134OSM      P14483   1.316   0.177   6.467  0.2303  0.0552 -0.2358
  134OSM    O1314484   1.244   0.164   6.336 -0.2195 -0.1947  0.1549
  134OSM    O1414485   1.462   0.151   6.466 -0.2470  0.0450  0.1219
  134OSM    O1114486   1.247   0.071   6.565 -0.3245 -0.5611 -0.3563
  134OSM    O1214487   1.289   0.306   6.546 -0.0402  0.1865  0.5882
  134OSM    C1S14488   1.296   0.061   6.700 -1.0024  0.9177 -0.1619
  134OSM    H1S14489   1.242   0.135   6.762  1.9221  0.8863  2.5425
  134OSM    H1T14490   1.402   0.095   6.704 -0.4698 -0.7787  0.8780
  134OSM     NF14491   1.344  -0.091   6.896  0.5893  0.8021  0.7699
  134OSM    HNF14492   1.442  -0.110   6.896  0.7100  1.3976 -0.2698
  134OSM    C2S14493   1.283  -0.084   6.767  0.6707  0.3543  1.2367
  134OSM    H2S14494   1.176  -0.110   6.785  1.8205 -3.0861  3.5178
  134OSM    C3S14495   1.347  -0.193   6.668 -0.3846  0.5403 -0.3803
  134OSM    H3S14496   1.451  -0.159   6.649 -0.2582  0.4312  0.1216
  134OSM     O314497   1.289  -0.185   6.543 -0.8441 -0.3624 -0.3640
  134OSM    HO314498   1.252  -0.097   6.533  1.1411  0.1094 -4.8030
  134OSM    C4S14499   1.346  -0.336   6.720 -0.4341  0.2547 -0.0851
  134OSM    H4S14500   1.244  -0.370   6.742  0.5058 -0.6589  3.0232
  134OSM    C5S14501   1.455  -0.412   6.759  0.1780 -0.9058 -1.1126
  134OSM    H5S14502   1.551  -0.366   6.729 -1.1443  1.7948 -1.3488
  134OSM    C6S14503   1.459  -0.550   6.815 -0.4096  0.2797  0.5432
  134OSM    H6S14504   1.523  -0.614   6.750 -0.2876  1.3648 -0.4160
  134OSM    H6T14505   1.355  -0.588   6.805 -0.2686  0.2628 -0.8819
  134OSM    C7S14506   1.513  -0.546   6.960 -0.4393 -0.0569 -0.3331
  134OSM    H7S14507   1.454  -0.479   7.027  0.7901 -0.5735  1.2804
  134OSM    H7T14508   1.619  -0.518   6.976 -1.0252  1.4823  1.0176
  134OSM    C8S14509   1.518  -0.686   7.017  0.5061  0.2670  0.6592
  134OSM    H8S14510   1.587  -0.737   6.947  0.1125 -1.3590  1.4500
  134OSM    H8T14511   1.425  -0.748   7.014  2.2744 -2.4177  0.0076
  134OSM    C9S14512   1.576  -0.702   7.166 -0.1908  0.8692 -0.3363
  134OSM    H9S14513   1.685  -0.678   7.163 -0.2148  1.0365  0.0136
  134OSM    H9T14514   1.571  -0.811   7.187  0.6323  0.5007 -2.0038
  134OSM   C10S14515   1.507  -0.629   7.277 -0.3320 -0.6326  0.0593
  134OSM   H10S14516   1.398  -0.650   7.274 -0.4042 -0.1736 -0.9496
  134OSM   H10T14517   1.521  -0.521   7.254 -0.4235 -0.4395  0.9014
  134OSM   C11S14518   1.553  -0.669   7.415 -0.1393  0.0257  0.1052
  134OSM   H11S14519   1.664  -0.661   7.427  0.4249 -2.5139 -2.9567
  134OSM   H11T14520   1.544  -0.779   7.432  1.9225  0.3960  4.3664
  134OSM   C12S14521   1.487  -0.591   7.526 -0.1598  0.0318 -1.3930
  134OSM   H12S14522   1.381  -0.622   7.538  0.1194 -0.8436 -1.1537
  134OSM   H12T14523   1.495  -0.482   7.506  1.5307  0.1022 -0.4303
  134OSM   C13S14524   1.568  -0.592   7.656  0.1416 -0.1352 -0.8804
  134OSM   H13S14525   1.673  -0.564   7.633 -0.2804  1.0285 -1.4160
  134OSM   H13T14526   1.565  -0.697   7.692 -1.9986  0.2113  0.0689
  134OSM   C14S14527   1.525  -0.509   7.781  0.2413  0.7107 -0.2802
  134OSM   H14S14528   1.423  -0.531   7.820  0.7669 -3.3814 -1.0147
  134OSM   H14T14529   1.536  -0.403   7.748  0.4154  0.7620 -0.0556
  134OSM   C15S14530   1.615  -0.530   7.904  0.2267  1.0015 -0.5915
  134OSM   H15S14531   1.721  -0.522   7.873  0.5498  1.2032  0.5370
  134OSM   H15T14532   1.584  -0.625   7.952 -0.1539  0.4541 -1.9069
  134OSM   C16S14533   1.600  -0.423   8.016 -0.9721  0.2462 -0.0324
  134OSM   H16S14534   1.497  -0.436   8.057 -1.9716  0.0381 -2.5113
  134OSM   H16T14535   1.607  -0.321   7.972  1.8810 -1.0911 -2.8043
  134OSM   C17S14536   1.699  -0.437   8.135 -0.0193 -0.5412  0.3892
  134OSM   H17S14537   1.695  -0.341   8.191  2.0644  0.9386 -1.9169
  134OSM   H17T14538   1.800  -0.440   8.090 -0.2069  0.1041 -0.0753
  134OSM   C18S14539   1.667  -0.555   8.228 -0.0870  0.4367 -0.0573
  134OSM   H18S14540   1.690  -0.649   8.174 -0.8398  0.5492 -0.5783
  134OSM   H18T14541   1.560  -0.561   8.256 -0.0390  1.9477  0.5130
  134OSM   H18U14542   1.723  -0.557   8.324  0.9054  0.1723 -0.6339
  134OSM    C1F14543   1.294  -0.050   7.012  0.3997 -1.1327 -0.3245
  134OSM     OF14544   1.177  -0.017   7.019  0.1232  0.1646 -0.2946
  134OSM    C2F14545   1.376  -0.061   7.134 -0.6232  0.4898  0.8463
  134OSM    H2F14546   1.481  -0.039   7.105 -0.9455 -1.1215 -1.6531
  134OSM    H2G14547   1.389  -0.168   7.162 -4.1168  0.1828  1.5342
  134OSM    C3F14548   1.334   0.020   7.265  0.0956 -0.5022  0.0256
  134OSM    H3F14549   1.237  -0.016   7.307 -0.5149  1.5513  0.4325
  134OSM    H3G14550   1.333   0.130   7.251  0.5089 -0.3808  0.9498
  134OSM    C4F14551   1.437  -0.010   7.380 -0.2065 -0.2376  0.6407
  134OSM    H4F14552   1.537   0.009   7.335 -0.2607  0.7162  0.9201
  134OSM    H4G14553   1.425  -0.117   7.405 -0.2513  0.2449  2.7813
  134OSM    C5F14554   1.411   0.074   7.508  0.4364 -0.1208  0.3153
  134OSM    H5F14555   1.312   0.054   7.554  0.4206  1.5662  1.0327
  134OSM    H5G14556   1.411   0.183   7.486  4.2501 -0.9090 -4.3957
  134OSM    C6F14557   1.535   0.044   7.599 -0.2400  0.0465  0.2580
  134OSM    H6F14558   1.628   0.048   7.539  0.1345  1.6062  0.9208
  134OSM    H6G14559   1.527  -0.061   7.636  0.7353  0.3374  1.3295
  134OSM    C7F14560   1.554   0.142   7.724  0.3804  0.2638 -0.2237
  134OSM    H7F14561   1.470   0.121   7.793  0.2616 -1.5357 -0.8801
  134OSM    H7G14562   1.557   0.244   7.680 -1.4395  0.2606 -0.3793
  134OSM    C8F14563   1.685   0.111   7.786 -0.0186 -0.8460 -0.2211
  134OSM    H8F14564   1.765   0.133   7.713  0.4203 -2.7968 -0.3713
  134OSM    H8G14565   1.692   0.002   7.809  2.1869 -0.4129  1.2813
  134OSM    C9F14566   1.715   0.187   7.916  0.3627  0.8064 -0.3120
  134OSM    H9F14567   1.701   0.296   7.911 -1.4893  0.5024 -3.2446
  134OSM   C10F14568   1.776   0.132   8.028 -0.1522 -0.6746 -0.3502
  134OSM   H10F14569   1.774   0.192   8.120 -0.3236  1.1144 -1.4981
  134OSM   C11F14570   1.829  -0.008   8.053  0.2487 -1.2765  0.1851
  134OSM   H11F14571   1.939  -0.004   8.035  0.0564 -0.7619 -0.8970
  134OSM   H11G14572   1.791  -0.071   7.970 -0.2576 -2.1928  1.0966
  134OSM   C12F14573   1.786  -0.068   8.185  0.0550 -0.4938  0.1996
  134OSM   H12F14574   1.808  -0.176   8.174  1.2572 -0.1252 -1.1115
  134OSM   H12G14575   1.675  -0.060   8.187  0.2250  3.0639 -0.0239
  134OSM   C13F14576   1.827   0.002   8.317 -0.4860 -0.5792 -0.2982
  134OSM   H13F14577   1.798   0.109   8.328  1.1940 -0.4242  3.0647
  134OSM   H13G14578   1.938   0.004   8.322 -0.5272  2.4662  0.1893
  134OSM   C14F14579   1.777  -0.070   8.449 -0.2537 -0.6570  0.6820
  134OSM   H14F14580   1.682  -0.027   8.489  1.8754  1.1490  4.0210
  134OSM   H14G14581   1.854  -0.037   8.522  0.4554 -0.3200 -0.2143
  134OSM   C15F14582   1.759  -0.224   8.457  1.1841  0.3559 -0.3001
  134OSM   H15F14583   1.831  -0.256   8.380 -1.4289  0.2251 -2.7859
  134OSM   H15G14584   1.653  -0.242   8.429  1.1319 -1.4272  0.9771
  134OSM   C16F14585   1.788  -0.279   8.596 -0.1512  0.4644 -0.5400
  134OSM   H16F14586   1.779  -0.195   8.669  1.5633  0.4575 -0.3015
  134OSM   H16G14587   1.896  -0.304   8.597  0.6371  3.6447  1.7426
  134OSM   C17F14588   1.700  -0.399   8.630  0.3264 -0.7762 -0.1513
  134OSM   H17F14589   1.712  -0.495   8.575 -1.7182 -1.5238  0.6897
  134OSM   H17G14590   1.592  -0.376   8.619  0.2387 -0.1315  1.8378
  134OSM   C18F14591   1.731  -0.425   8.778  0.1184  0.6763 -0.2613
  134OSM   H18F14592   1.716  -0.335   8.841  0.1268 -0.6296  1.6703
  134OSM   H18G14593   1.839  -0.449   8.785 -0.1156 -0.6919 -1.0555
  134OSM   H18H14594   1.670  -0.501   8.832 -0.1276  1.0505 -0.0084
  135OSM      N14595   1.018   6.724   6.194  0.4864 -0.1914 -0.0787
  135OSM    C1514596   1.002   6.749   6.053  0.0254  0.0258  0.0113
  135OSM   H15A14597   1.028   6.664   5.992  0.1793  0.4888 -0.5865
  135OSM   H15B14598   1.061   6.830   6.012  1.2212 -0.1444  1.3738
  135OSM   H15C14599   0.898   6.775   6.041  0.3089  0.3350 -1.9528
  135OSM    C1414600   0.939   6.608   6.232  0.9782 -0.0946 -0.1361
  135OSM   H14A14601   0.977   6.516   6.189  0.9073  0.2570 -0.9513
  135OSM   H14B14602   0.834   6.621   6.211  0.0844 -0.4290  3.6355
  135OSM   H14C14603   0.935   6.593   6.339 -3.3974 -2.0765 -0.4795
  135OSM    C1314604   1.161   6.697   6.225  0.3232  0.6377  0.1344
  135OSM   H13A14605   1.176   6.698   6.332 -0.7262  1.2339  0.2768
  135OSM   H13B14606   1.229   6.773   6.189 -0.1118  0.9411 -0.0585
  135OSM   H13C14607   1.199   6.605   6.182 -1.0673 -1.0767  2.4708
  135OSM    C1214608   0.962   6.851   6.265 -0.8460 -0.1128 -0.0105
  135OSM   H12A14609   0.869   6.876   6.217 -0.3807 -0.4104 -1.0832
  135OSM   H12B14610   1.038   6.928   6.267  0.6892 -1.5394 -1.3031
  135OSM    C1114611   0.933   6.841   6.406  0.1552 -0.1660 -0.1039
  135OSM   H11A14612   1.023   6.804   6.461 -1.1218  0.2711  2.3573
  135OSM   H11B14613   0.851   6.769   6.428  2.0447 -2.1544  0.6396
  135OSM      P14614   0.757   7.005   6.525  0.1257  0.1404  0.2512
  135OSM    O1314615   0.742   7.149   6.564 -0.3111 -0.7444 -0.0282
  135OSM    O1414616   0.652   6.947   6.442  0.2006  0.2019  0.2894
  135OSM    O1114617   0.784   6.919   6.650 -0.1425  0.7484  0.5462
  135OSM    O1214618   0.897   6.976   6.449  0.3378  0.0440 -0.1002
  135OSM    C1S14619   0.904   6.938   6.730  0.6232  0.0018 -0.0050
  135OSM    H1S14620   0.954   7.035   6.713  1.8785 -1.0388 -2.5109
  135OSM    H1T14621   0.989   6.869   6.712  0.7579  0.1224  0.1641
  135OSM     NF14622   0.982   6.975   6.948 -0.4046 -0.1926  0.0478
  135OSM    HNF14623   1.035   6.901   6.989  0.7764  0.4740 -0.2436
  135OSM    C2S14624   0.867   6.925   6.881 -0.5247  0.2063  1.2630
  135OSM    H2S14625   0.787   6.999   6.905 -1.2983 -0.1973 -0.0596
  135OSM    C3S14626   0.825   6.781   6.911  0.7602 -1.2255 -1.1719
  135OSM    H3S14627   0.906   6.707   6.894 -0.3158 -2.2356 -2.0179
  135OSM     O314628   0.716   6.747   6.822  0.0737 -0.2100 -0.4862
  135OSM    HO314629   0.724   6.812   6.752  0.6260 -1.3761 -1.5339
  135OSM    C4S14630   0.772   6.777   7.051 -0.0857 -0.1633 -0.1274
  135OSM    H4S14631   0.672   6.821   7.062 -0.3855 -0.8503 -0.0947
  135OSM    C5S14632   0.840   6.715   7.155  0.3183 -0.3577 -0.2683
  135OSM    H5S14633   0.935   6.664   7.136 -0.4317 -1.4836 -1.1019
  135OSM    C6S14634   0.794   6.707   7.296 -0.2307  0.7408 -0.2040
  135OSM    H6S14635   0.829   6.607   7.331  0.6354  0.5330 -1.6027
  135OSM    H6T14636   0.683   6.700   7.302 -0.5368  1.0581 -3.9920
  135OSM    C7S14637   0.855   6.792   7.399  0.2607  0.7664  0.6616
  135OSM    H7S14638   0.837   6.902   7.393 -0.0398  0.7228  0.7457
  135OSM    H7T14639   0.966   6.782   7.392  0.2760  0.6574  1.0943
  135OSM    C8S14640   0.815   6.750   7.541 -0.1525 -0.1233 -0.2414
  135OSM    H8S14641   0.819   6.641   7.560 -0.2908 -0.6782 -3.2050
  135OSM    H8T14642   0.709   6.781   7.554 -0.8783 -3.6748  3.2000
  135OSM    C9S14643   0.903   6.816   7.654  0.9587 -0.2280 -0.9074
  135OSM    H9S14644   1.012   6.815   7.633  0.9146 -0.7495 -1.1195
  135OSM    H9T14645   0.868   6.759   7.743  1.7661  0.8358  0.1015
  135OSM   C10S14646   0.864   6.965   7.676  0.3011 -0.0594 -0.6427
  135OSM   H10S14647   0.754   6.975   7.661  0.6345  0.8027 -2.5224
  135OSM   H10T14648   0.906   7.027   7.595  0.1719 -0.2382 -0.8458
  135OSM   C11S14649   0.906   7.019   7.815 -0.0236  0.0450  0.6261
  135OSM   H11S14650   0.908   7.128   7.795  0.3046 -0.2788 -1.2061
  135OSM   H11T14651   1.012   6.998   7.840 -0.5092 -1.1526  1.7551
  135OSM   C12S14652   0.813   6.988   7.928  0.3441 -0.8449 -0.3487
  135OSM   H12S14653   0.816   6.878   7.942  2.0928 -0.5449  1.9725
  135OSM   H12T14654   0.710   7.020   7.904  0.4446 -0.4696 -0.2930
  135OSM   C13S14655   0.862   7.044   8.066 -0.8733  0.5333 -0.1851
  135OSM   H13S14656   0.779   7.049   8.139 -1.2813 -0.6275 -0.5633
  135OSM   H13T14657   0.902   7.148   8.060  0.8335 -0.0871  0.2126
  135OSM   C14S14658   0.974   6.940   8.120  0.1276  0.0798 -1.2557
  135OSM   H14S14659   1.074   6.943   8.069  0.4399 -0.6708 -0.7053
  135OSM   H14T14660   0.946   6.832   8.112  2.4832 -0.9234  2.6471
  135OSM   C15S14661   1.014   6.964   8.270 -0.3471 -0.2263  0.4609
  135OSM   H15S14662   1.094   6.892   8.299 -0.6132 -0.8630 -0.3630
  135OSM   H15T14663   0.929   6.934   8.335  0.9181 -1.1730  1.7124
  135OSM   C16S14664   1.076   7.099   8.297 -0.4191 -0.1883  0.3028
  135OSM   H16S14665   1.004   7.161   8.354 -1.2052  0.2648 -1.1541
  135OSM   H16T14666   1.117   7.153   8.210 -3.1490  0.3213 -0.7235
  135OSM   C17S14667   1.200   7.089   8.396 -0.8285  0.4847 -0.3096
  135OSM   H17S14668   1.241   7.190   8.416  1.8239 -0.7145  0.4377
  135OSM   H17T14669   1.279   7.031   8.345 -2.5692 -3.3744  1.2466
  135OSM   C18S14670   1.170   7.003   8.527  0.3153 -0.0747  1.1376
  135OSM   H18S14671   1.126   6.904   8.505  1.6413 -0.5286  0.4538
  135OSM   H18T14672   1.087   7.048   8.586  0.1535  0.3871  0.5659
  135OSM   H18U14673   1.260   6.980   8.587  0.0111 -1.1287  1.1957
  135OSM    C1F14674   1.020   7.103   6.963  0.1345 -0.0292 -0.1134
  135OSM     OF14675   0.957   7.196   6.911  0.2345  0.1145 -0.1962
  135OSM    C2F14676   1.150   7.126   7.033 -0.2625  0.1523 -0.4090
  135OSM    H2F14677   1.228   7.172   6.969  0.1952 -0.2182 -0.1181
  135OSM    H2G14678   1.196   7.030   7.066  0.5557  0.2379 -1.2768
  135OSM    C3F14679   1.128   7.223   7.151 -0.1719 -0.4716  0.0345
  135OSM    H3F14680   1.052   7.187   7.223 -0.6571  0.6164  0.0838
  135OSM    H3G14681   1.099   7.325   7.115  1.8633  0.2293  0.3037
  135OSM    C4F14682   1.263   7.239   7.225  0.4715  0.5768  0.0573
  135OSM    H4F14683   1.339   7.268   7.149  0.3752 -0.3304 -0.3934
  135OSM    H4G14684   1.278   7.138   7.267 -0.0816  0.7918  0.7765
  135OSM    C5F14685   1.272   7.343   7.333  1.0791  0.4086  0.2379
  135OSM    H5F14686   1.169   7.338   7.375  1.2653  1.5712  0.8331
  135OSM    H5G14687   1.302   7.440   7.290  0.6802 -0.1806 -1.4251
  135OSM    C6F14688   1.360   7.307   7.445 -0.3953  0.6632  0.2912
  135OSM    H6F14689   1.467   7.316   7.415 -1.1486  1.9634 -2.1571
  135OSM    H6G14690   1.349   7.201   7.475 -2.2978  0.4241 -1.1745
  135OSM    C7F14691   1.329   7.386   7.573 -0.0186 -0.5728 -0.0041
  135OSM    H7F14692   1.233   7.345   7.611 -0.7660 -0.8434 -2.0892
  135OSM    H7G14693   1.314   7.492   7.544 -0.1042 -0.8390 -0.9436
  135OSM    C8F14694   1.438   7.371   7.677  0.2910 -0.6969  0.1977
  135OSM    H8F14695   1.533   7.397   7.627  1.1892  0.1640  2.3119
  135OSM    H8G14696   1.432   7.263   7.703  0.5530 -0.4850  1.1265
  135OSM    C9F14697   1.397   7.463   7.790  0.3147 -0.5381 -0.1637
  135OSM    H9F14698   1.383   7.568   7.763  0.5363 -0.4983 -0.1225
  135OSM   C10F14699   1.351   7.418   7.907 -0.5016 -0.5985  0.6492
  135OSM   H10F14700   1.346   7.489   7.990  0.1162 -1.7203  1.6705
  135OSM   C11F14701   1.356   7.277   7.959  0.1120  0.3707  0.4515
  135OSM   H11F14702   1.315   7.205   7.884 -2.0195  1.7575  0.2540
  135OSM   H11G14703   1.284   7.272   8.044  1.3119  0.2270  1.4650
  135OSM   C12F14704   1.487   7.223   8.018 -0.1060 -0.2207  0.6156
  135OSM   H12F14705   1.573   7.227   7.948 -1.2513  1.9039 -0.7146
  135OSM   H12G14706   1.473   7.116   8.043 -1.3290  0.2246  1.9181
  135OSM   C13F14707   1.521   7.282   8.155 -0.1530  0.2866  0.0049
  135OSM   H13F14708   1.427   7.285   8.215 -0.3960  0.7411 -0.4013
  135OSM   H13G14709   1.556   7.384   8.131 -0.9377  1.0493  2.0102
  135OSM   C14F14710   1.634   7.210   8.238 -0.6458  0.0051  0.2875
  135OSM   H14F14711   1.724   7.208   8.173  0.3156  2.2625  1.4910
  135OSM   H14G14712   1.602   7.106   8.259 -1.4500  0.5205  1.6838
  135OSM   C15F14713   1.682   7.288   8.355 -0.3276  0.0021 -0.8969
  135OSM   H15F14714   1.593   7.307   8.420  0.3557  3.1133 -0.7897
  135OSM   H15G14715   1.712   7.389   8.320 -0.3119  0.9018  1.6237
  135OSM   C16F14716   1.781   7.208   8.441  0.4078 -0.9980  0.1429
  135OSM   H16F14717   1.875   7.173   8.392  1.1531  0.8369  0.2133
  135OSM   H16G14718   1.725   7.114   8.461 -0.5398  0.0416  2.6779
  135OSM   C17F14719   1.820   7.275   8.579 -0.8479  0.1298  1.0303
  135OSM   H17F14720   1.913   7.329   8.551 -0.2512 -1.9203 -1.1079
  135OSM   H17G14721   1.851   7.192   8.647 -0.9646 -0.5514  0.2487
  135OSM   C18F14722   1.720   7.369   8.650  0.1493  0.0671  0.1821
  135OSM   H18F14723   1.618   7.327   8.657 -0.0172  0.0881 -1.7725
  135OSM   H18G14724   1.702   7.463   8.593  2.4536  0.5807  0.2569
  135OSM   H18H14725   1.755   7.409   8.747 -0.1194 -0.5402  0.5266
  136OSM      N14726   5.206   1.675   6.183  0.1755  0.7909 -0.2778
  136OSM    C1514727   5.106   1.586   6.135 -0.2871 -0.1238  0.1731
  136OSM   H15A14728   5.070   1.617   6.038  2.8533  0.4444 -0.8520
  136OSM   H15B14729   5.022   1.582   6.204  0.5302  0.2800  1.1978
  136OSM   H15C14730   5.141   1.484   6.132  0.5501  0.2245 -3.2823
  136OSM    C1414731   5.136   1.801   6.221  0.5544 -0.0386 -0.6376
  136OSM   H14A14732   5.099   1.863   6.140 -0.2006 -0.5793 -0.7135
  136OSM   H14B14733   5.202   1.859   6.283  0.2636  1.5544 -1.7652
  136OSM   H14C14734   5.045   1.782   6.276  1.2810  0.7546  0.8601
  136OSM    C1314735   5.257   1.622   6.311 -0.0430  0.1270  0.0469
  136OSM   H13A14736   5.299   1.524   6.291 -0.3257 -0.5559  2.6090
  136OSM   H13B14737   5.183   1.614   6.390 -0.5143 -2.3073 -0.5890
  136OSM   H13C14738   5.332   1.692   6.344 -0.3717  0.9575 -0.9579
  136OSM    C1214739   5.329   1.705   6.091  0.2809  0.1253 -0.0768
  136OSM   H12A14740   5.403   1.761   6.146 -0.3156  0.3342  0.5268
  136OSM   H12B14741   5.294   1.766   6.010 -2.2318 -0.6694  0.3674
  136OSM    C1114742   5.396   1.583   6.025 -0.6534  0.0099  0.4513
  136OSM   H11A14743   5.464   1.601   5.939 -0.7597  0.1521  0.3987
  136OSM   H11B14744   5.310   1.534   5.974 -0.4684 -2.0161  1.9938
  136OSM      P14745   5.593   1.541   6.190 -0.0136 -0.0079 -0.0810
  136OSM    O1314746   5.698   1.465   6.124  0.1293  0.2740 -0.4991
  136OSM    O1414747   5.603   1.688   6.192 -0.3063 -0.8389 -1.1091
  136OSM    O1114748   5.574   1.487   6.334 -0.6416  0.0130 -0.1393
  136OSM    O1214749   5.462   1.496   6.118 -0.3385  0.3235  0.1930
  136OSM    C1S14750   5.492   1.368   6.362 -0.5124  0.7704  1.3216
  136OSM    H1S14751   5.516   1.280   6.298 -2.3817  1.5209 -0.4550
  136OSM    H1T14752   5.382   1.382   6.351 -0.2739 -0.0910 -2.7269
  136OSM     NF14753   5.493   1.188   6.541 -0.4879  0.2913 -0.0907
  136OSM    HNF14754   5.404   1.163   6.578  0.1704  0.2325  1.5087
  136OSM    C2S14755   5.533   1.322   6.508  0.4536  0.8794  0.7670
  136OSM    H2S14756   5.644   1.327   6.514  0.6574 -0.6154 -1.2817
  136OSM    C3S14757   5.482   1.429   6.614  0.0043  0.4495 -0.4050
  136OSM    H3S14758   5.374   1.447   6.601  0.1471  0.3803 -1.8074
  136OSM     O314759   5.542   1.559   6.585  0.2244 -0.5664  0.4897
  136OSM    HO314760   5.584   1.538   6.502 -1.6259 -0.9388 -0.3807
  136OSM    C4S14761   5.502   1.388   6.754  0.3288 -0.0447  0.2972
  136OSM    H4S14762   5.600   1.411   6.797  1.3665 -2.2658 -0.7914
  136OSM    C5S14763   5.409   1.336   6.838 -0.0275 -0.3567  0.9285
  136OSM    H5S14764   5.306   1.320   6.803 -0.1639 -0.4895  1.3803
  136OSM    C6S14765   5.438   1.289   6.976 -0.3904 -0.7075  0.0427
  136OSM    H6S14766   5.506   1.200   6.979  1.4261  0.5843 -1.9211
  136OSM    H6T14767   5.344   1.239   7.008  0.0478 -1.8925 -0.4922
  136OSM    C7S14768   5.456   1.403   7.072  0.4461  0.0964  0.4956
  136OSM    H7S14769   5.358   1.434   7.115  0.3472 -1.0893  1.1219
  136OSM    H7T14770   5.497   1.493   7.021  1.4661 -1.4252 -1.4652
  136OSM    C8S14771   5.523   1.356   7.206 -0.2656 -0.3143 -0.0784
  136OSM    H8S14772   5.629   1.335   7.182 -0.6702 -1.4914 -0.8920
  136OSM    H8T14773   5.475   1.260   7.236 -0.4009 -0.2091  0.0435
  136OSM    C9S14774   5.505   1.453   7.321  0.0960 -0.2159 -0.2190
  136OSM    H9S14775   5.398   1.476   7.340  0.0891 -1.1503  0.9117
  136OSM    H9T14776   5.564   1.545   7.302 -2.4786  1.6768  0.7732
  136OSM   C10S14777   5.573   1.398   7.449 -0.0282 -0.1552 -0.2698
  136OSM   H10S14778   5.679   1.365   7.446 -0.6412 -2.2117 -0.0315
  136OSM   H10T14779   5.527   1.300   7.473 -0.7165  0.0143 -0.8490
  136OSM   C11S14780   5.565   1.493   7.570  0.7675  0.4270  0.3432
  136OSM   H11S14781   5.458   1.496   7.597 -0.3230 -1.3651 -3.3958
  136OSM   H11T14782   5.585   1.601   7.551  1.4743  0.0175 -1.3722
  136OSM   C12S14783   5.652   1.449   7.684 -0.4937  0.2656  0.3627
  136OSM   H12S14784   5.759   1.450   7.655 -0.8766  1.5844 -1.0283
  136OSM   H12T14785   5.637   1.343   7.717 -1.2969  0.3610  0.3211
  136OSM   C13S14786   5.638   1.531   7.806 -0.0152  0.7638 -0.1346
  136OSM   H13S14787   5.590   1.624   7.768 -0.8727  0.1648 -0.5497
  136OSM   H13T14788   5.738   1.555   7.849  0.2918 -2.5739  1.1258
  136OSM   C14S14789   5.554   1.475   7.920  0.8713 -0.6345  0.5080
  136OSM   H14S14790   5.609   1.393   7.972  2.0486  1.3492  2.4682
  136OSM   H14T14791   5.462   1.429   7.877 -0.2298  1.3916  0.6094
  136OSM   C15S14792   5.502   1.578   8.023 -0.2096 -0.2814 -0.4009
  136OSM   H15S14793   5.452   1.521   8.104  1.2615 -1.0768 -0.0388
  136OSM   H15T14794   5.423   1.642   7.978 -1.1534 -1.0825  0.1016
  136OSM   C16S14795   5.604   1.666   8.082 -0.3451 -0.8971  0.2773
  136OSM   H16S14796   5.553   1.732   8.155  2.4041 -0.1260  1.5524
  136OSM   H16T14797   5.641   1.739   8.006  2.1216  0.4996  2.7393
  136OSM   C17S14798   5.730   1.600   8.144  0.3390  0.4798 -0.0697
  136OSM   H17S14799   5.764   1.518   8.077 -1.7116 -1.4568  1.1754
  136OSM   H17T14800   5.703   1.548   8.239  0.6100  1.5611  0.6087
  136OSM   C18S14801   5.833   1.702   8.180 -0.5367 -0.3216 -0.7585
  136OSM   H18S14802   5.792   1.788   8.238  0.3057 -0.8933  0.7132
  136OSM   H18T14803   5.875   1.755   8.092  0.0792  1.1751  0.4014
  136OSM   H18U14804   5.914   1.655   8.239 -0.6810 -4.6256 -3.8276
  136OSM    C1F14805   5.565   1.079   6.500  0.3560 -0.8490 -0.2408
  136OSM     OF14806   5.667   1.086   6.440 -0.0770  0.7273  0.0757
  136OSM    C2F14807   5.501   0.948   6.521  0.2438 -0.3444  0.0095
  136OSM    H2F14808   5.502   0.892   6.425 -1.0821 -2.6287  1.2821
  136OSM    H2G14809   5.395   0.975   6.541 -0.5104 -2.0637 -1.4759
  136OSM    C3F14810   5.556   0.851   6.628 -0.0043 -0.4727 -0.4605
  136OSM    H3F14811   5.661   0.832   6.596 -0.2383 -2.2172 -0.2313
  136OSM    H3G14812   5.504   0.753   6.622  0.0649 -0.4652 -1.1765
  136OSM    C4F14813   5.529   0.901   6.773 -0.3422  0.5311 -0.6193
  136OSM    H4F14814   5.418   0.905   6.775 -0.3260  0.5809  2.3254
  136OSM    H4G14815   5.567   1.006   6.774  0.6563  0.1937 -1.2713
  136OSM    C5F14816   5.591   0.824   6.890  0.6222  0.4294 -0.0695
  136OSM    H5F14817   5.699   0.842   6.908  0.4821  3.3380 -1.9903
  136OSM    H5G14818   5.576   0.715   6.870 -0.6532  0.2704  1.5893
  136OSM    C6F14819   5.525   0.860   7.024  0.9257 -0.8669  0.0100
  136OSM    H6F14820   5.417   0.879   7.009  0.6254 -1.4858  1.3578
  136OSM    H6G14821   5.573   0.959   7.043 -1.6499  0.9279 -2.4415
  136OSM    C7F14822   5.556   0.781   7.158 -0.4005  0.4997  0.7656
  136OSM    H7F14823   5.659   0.740   7.146 -1.4005 -2.0289  0.5642
  136OSM    H7G14824   5.499   0.687   7.145 -1.3300  0.7689  2.6683
  136OSM    C8F14825   5.536   0.859   7.291  0.0710  0.4481 -0.8911
  136OSM    H8F14826   5.469   0.942   7.261 -0.6047  1.0423  2.1105
  136OSM    H8G14827   5.629   0.904   7.333  0.3448 -1.3656  0.4927
  136OSM    C9F14828   5.461   0.777   7.395 -0.9069  0.2458 -0.8044
  136OSM    H9F14829   5.353   0.776   7.374 -0.7980  0.5527 -1.4215
  136OSM   C10F14830   5.502   0.729   7.514 -0.4270  0.2696 -0.1346
  136OSM   H10F14831   5.424   0.681   7.576 -1.1994 -0.7539 -1.8851
  136OSM   C11F14832   5.641   0.732   7.576  0.5296  0.2281 -0.1408
  136OSM   H11F14833   5.700   0.806   7.518  0.8376  0.4433  0.4459
  136OSM   H11G14834   5.698   0.637   7.570 -1.3347 -0.9090 -0.1277
  136OSM   C12F14835   5.641   0.791   7.722  0.6441 -0.0220 -0.0880
  136OSM   H12F14836   5.743   0.778   7.767  0.9105 -0.3298 -0.7801
  136OSM   H12G14837   5.578   0.725   7.785 -0.4041 -1.1931 -2.3089
  136OSM   C13F14838   5.615   0.938   7.742  0.1720 -0.3736 -0.2759
  136OSM   H13F14839   5.537   0.977   7.673  1.4700  1.0666 -0.9397
  136OSM   H13G14840   5.700   1.005   7.717  1.1345 -0.9412  1.4246
  136OSM   C14F14841   5.573   0.974   7.881  0.2685 -0.0872  0.4401
  136OSM   H14F14842   5.491   0.903   7.909  0.0591 -1.0141 -2.3864
  136OSM   H14G14843   5.541   1.080   7.879  0.7378  0.0378 -0.2544
  136OSM   C15F14844   5.694   0.950   7.974 -0.1510 -0.4158 -0.0813
  136OSM   H15F14845   5.779   1.012   7.938 -1.4623  1.6523  0.3059
  136OSM   H15G14846   5.723   0.843   7.981  2.0738  0.2916  1.9491
  136OSM   C16F14847   5.663   0.975   8.120  0.3747  0.1058  0.1778
  136OSM   H16F14848   5.574   0.913   8.144  1.4081 -1.7178 -0.5682
  136OSM   H16G14849   5.644   1.084   8.128 -1.4640 -0.1974  0.2283
  136OSM   C17F14850   5.773   0.931   8.226  0.7299  0.5233 -0.9035
  136OSM   H17F14851   5.870   0.986   8.224  1.0196  0.0144 -1.1292
  136OSM   H17G14852   5.787   0.828   8.186  1.2018  0.9226 -1.7704
  136OSM   C18F14853   5.730   0.917   8.377 -0.5490  0.2854 -0.3169
  136OSM   H18F14854   5.632   0.864   8.386 -2.3017  3.5977  1.3409
  136OSM   H18G14855   5.729   1.018   8.424 -0.7109  0.0913  0.1053
  136OSM   H18H14856   5.810   0.860   8.428 -0.6785  1.3787  1.1674
  137OSM      N14857   1.880   6.059   6.264 -0.2587 -0.3490 -0.2057
  137OSM    C1514858   1.755   6.021   6.181 -0.4798 -0.1340 -0.0152
  137OSM   H15A14859   1.759   5.925   6.133 -0.2217  0.2738 -0.8160
  137OSM   H15B14860   1.736   6.096   6.105  0.9557  0.3053  0.0434
  137OSM   H15C14861   1.666   6.011   6.241  0.6181 -1.6162  1.4211
  137OSM    C1414862   1.989   6.070   6.160 -0.2482 -0.2509 -0.4176
  137OSM   H14A14863   1.951   6.126   6.075  1.0596 -1.0641 -1.5601
  137OSM   H14B14864   2.007   5.972   6.117  2.6506 -0.1070  0.4151
  137OSM   H14C14865   2.080   6.111   6.200 -1.1681  0.4463  0.9794
  137OSM    C1314866   1.849   6.198   6.305 -0.3927 -0.5190  0.0121
  137OSM   H13A14867   1.937   6.251   6.337  0.0810 -0.5786 -1.1622
  137OSM   H13B14868   1.784   6.208   6.390 -0.9960  2.6538 -0.7473
  137OSM   H13C14869   1.806   6.257   6.225 -1.2747  0.1186  0.9375
  137OSM    C1214870   1.904   5.962   6.374  0.3766 -0.1317  0.1676
  137OSM   H12A14871   1.940   5.871   6.328  3.2579  1.9966 -1.9274
  137OSM   H12B14872   1.812   5.935   6.424  0.3046  0.8672  0.5742
  137OSM    C1114873   2.012   6.000   6.481  0.1855  0.5442  0.5108
  137OSM   H11A14874   2.019   5.932   6.568  0.5612 -0.4462 -0.2906
  137OSM   H11B14875   1.978   6.095   6.528 -1.3286  0.5486 -0.5691
  137OSM      P14876   2.213   5.872   6.373 -0.4523  0.0037  0.0756
  137OSM    O1314877   2.118   5.763   6.352  0.7776  0.5018 -0.1798
  137OSM    O1414878   2.295   5.905   6.258  0.2536 -0.0668 -0.5783
  137OSM    O1114879   2.313   5.820   6.492  0.1259 -0.1291 -0.1568
  137OSM    O1214880   2.147   6.003   6.422 -0.4154  0.2626 -0.6194
  137OSM    C1S14881   2.351   5.902   6.596 -0.3165  0.0594  0.2862
  137OSM    H1S14882   2.331   6.010   6.581  1.3128  0.2278 -0.8182
  137OSM    H1T14883   2.459   5.888   6.620 -0.5629  0.7656  1.8736
  137OSM     NF14884   2.325   5.946   6.835  0.1958 -0.3006  0.0313
  137OSM    HNF14885   2.375   5.912   6.914 -0.6368  1.3352  1.2940
  137OSM    C2S14886   2.272   5.862   6.728 -0.5846 -0.2925 -0.0632
  137OSM    H2S14887   2.168   5.891   6.702  0.1758  0.5475 -2.2497
  137OSM    C3S14888   2.277   5.713   6.752  0.1123  1.1443  0.4318
  137OSM    H3S14889   2.381   5.683   6.778 -0.0792  0.8328  0.8420
  137OSM     O314890   2.239   5.628   6.649  0.0678  0.5994  0.1060
  137OSM    HO314891   2.259   5.674   6.568  0.2427 -2.0520 -1.3838
  137OSM    C4S14892   2.189   5.692   6.869  0.2163  0.3894 -0.4047
  137OSM    H4S14893   2.087   5.725   6.848 -0.2125 -1.7639 -1.9400
  137OSM    C5S14894   2.220   5.627   6.987 -0.5285  0.1591 -0.2488
  137OSM    H5S14895   2.323   5.590   6.996  0.3174  2.2353 -0.9436
  137OSM    C6S14896   2.132   5.612   7.107  0.0675  0.9123 -0.0921
  137OSM    H6S14897   2.082   5.513   7.113 -1.5435  1.8242  2.5445
  137OSM    H6T14898   2.049   5.684   7.094  0.2663  0.9284 -1.3408
  137OSM    C7S14899   2.186   5.626   7.251  0.4757  0.1222  0.5440
  137OSM    H7S14900   2.268   5.551   7.259  0.0744 -0.5427 -1.3003
  137OSM    H7T14901   2.101   5.608   7.321 -2.6111  0.1666 -3.0766
  137OSM    C8S14902   2.244   5.764   7.279 -0.2447  0.8319  1.0038
  137OSM    H8S14903   2.156   5.828   7.258  0.7026  1.9511  0.3909
  137OSM    H8T14904   2.316   5.798   7.201  1.7777 -0.6801  2.1466
  137OSM    C9S14905   2.311   5.783   7.414  0.2517  0.6996 -0.9456
  137OSM    H9S14906   2.344   5.889   7.415 -1.0776  1.1255 -1.2957
  137OSM    H9T14907   2.397   5.713   7.417 -1.1185 -0.9603  0.5778
  137OSM   C10S14908   2.214   5.765   7.530 -0.6130  0.1278 -0.1822
  137OSM   H10S14909   2.167   5.664   7.523 -0.9501  0.3379 -0.8911
  137OSM   H10T14910   2.132   5.839   7.519 -1.4085 -0.8174 -0.6530
  137OSM   C11S14911   2.281   5.770   7.679  0.9920 -0.3322 -0.3067
  137OSM   H11S14912   2.378   5.722   7.655  1.1954 -0.3081  0.4503
  137OSM   H11T14913   2.219   5.710   7.749 -0.3864 -0.0493 -1.2590
  137OSM   C12S14914   2.287   5.918   7.729  0.1390  0.2470 -0.8994
  137OSM   H12S14915   2.188   5.964   7.747  0.2354 -0.4281  1.4405
  137OSM   H12T14916   2.329   5.981   7.647 -1.3146 -0.4371 -2.2027
  137OSM   C13S14917   2.386   5.918   7.850 -1.0798 -0.2889 -0.0210
  137OSM   H13S14918   2.432   6.018   7.867 -0.6271 -0.5249  0.1431
  137OSM   H13T14919   2.462   5.846   7.813  0.5012  1.5566 -0.3981
  137OSM   C14S14920   2.327   5.868   7.989 -0.2970 -1.1523 -0.1255
  137OSM   H14S14921   2.289   5.765   7.974  1.8958 -2.1214  0.6943
  137OSM   H14T14922   2.239   5.932   8.011 -0.0746 -0.3367 -1.5859
  137OSM   C15S14923   2.431   5.869   8.098 -0.6355 -0.2513 -0.5830
  137OSM   H15S14924   2.513   5.795   8.090 -0.6074 -0.7839  3.6111
  137OSM   H15T14925   2.381   5.829   8.189  2.0402  2.2082  2.0475
  137OSM   C16S14926   2.482   6.011   8.130 -0.0125  0.2398  0.5477
  137OSM   H16S14927   2.397   6.082   8.137  0.0608  0.3212  0.6000
  137OSM   H16T14928   2.549   6.052   8.052  0.7052  0.0097  1.0441
  137OSM   C17S14929   2.560   6.023   8.267 -0.1150  0.1473  0.5814
  137OSM   H17S14930   2.506   5.970   8.348 -1.7551  0.9907  0.0567
  137OSM   H17T14931   2.547   6.133   8.276  2.4958  0.8383 -3.0080
  137OSM   C18S14932   2.700   5.966   8.271  0.7333  0.1384  0.6084
  137OSM   H18S14933   2.713   5.859   8.245  2.5222  0.9499 -1.9900
  137OSM   H18T14934   2.740   5.966   8.374  1.9379 -4.1400  0.2375
  137OSM   H18U14935   2.772   6.006   8.196  0.9730 -2.6488 -0.7113
  137OSM    C1F14936   2.308   6.081   6.830  0.0859  0.2944 -0.7616
  137OSM     OF14937   2.231   6.136   6.753  0.0499 -0.6014 -0.4487
  137OSM    C2F14938   2.389   6.167   6.928  0.4925  0.6453 -0.1253
  137OSM    H2F14939   2.494   6.131   6.916 -0.1519 -0.6160 -2.2421
  137OSM    H2G14940   2.357   6.158   7.034  3.4066 -1.1007  0.6954
  137OSM    C3F14941   2.377   6.318   6.888 -0.6266  0.7900  0.4657
  137OSM    H3F14942   2.269   6.341   6.900 -1.4982 -2.4938 -0.5415
  137OSM    H3G14943   2.413   6.333   6.784 -0.1627 -1.2457  0.3155
  137OSM    C4F14944   2.451   6.421   6.979  0.2325  0.2559  0.1250
  137OSM    H4F14945   2.436   6.525   6.944  0.1883 -0.1976 -1.2157
  137OSM    H4G14946   2.556   6.386   6.989  0.0670 -1.2446 -2.7794
  137OSM    C5F14947   2.394   6.428   7.124 -0.1105  0.1034  0.7506
  137OSM    H5F14948   2.430   6.348   7.192  0.1031 -0.3861  0.0662
  137OSM    H5G14949   2.283   6.423   7.115  0.0600 -0.3484 -1.1452
  137OSM    C6F14950   2.415   6.569   7.200  0.0885  0.0305 -0.4718
  137OSM    H6F14951   2.359   6.644   7.141 -0.3172  0.2656  0.2036
  137OSM    H6G14952   2.524   6.593   7.201  0.5608 -2.0010  1.2297
  137OSM    C7F14953   2.360   6.569   7.347  0.5603  0.0158  0.2674
  137OSM    H7F14954   2.253   6.546   7.366  0.8135 -2.2024 -0.8024
  137OSM    H7G14955   2.366   6.675   7.380  1.4822 -0.2983  1.1262
  137OSM    C8F14956   2.442   6.480   7.440 -0.7093 -1.1070  0.0556
  137OSM    H8F14957   2.460   6.375   7.408  1.1956 -0.4254 -1.1682
  137OSM    H8G14958   2.395   6.494   7.540  0.2944  2.1577  0.1409
  137OSM    C9F14959   2.579   6.536   7.456 -0.0476  0.3219 -0.4130
  137OSM    H9F14960   2.655   6.490   7.392  0.2762  0.3910 -0.0834
  137OSM   C10F14961   2.622   6.623   7.549 -0.4505 -0.2827 -0.3339
  137OSM   H10F14962   2.723   6.662   7.530 -0.3203  0.0999  1.1042
  137OSM   C11F14963   2.539   6.697   7.645  0.0535  0.1365 -0.6650
  137OSM   H11F14964   2.485   6.629   7.715  2.1967 -1.3184 -0.3863
  137OSM   H11G14965   2.465   6.768   7.601 -0.6492 -0.1320  0.0627
  137OSM   C12F14966   2.630   6.780   7.742 -0.6900 -0.2148 -0.1757
  137OSM   H12F14967   2.564   6.845   7.804 -1.6602  0.1787 -1.5937
  137OSM   H12G14968   2.689   6.853   7.681 -0.6481 -0.3091 -0.2476
  137OSM   C13F14969   2.724   6.697   7.828 -0.0565 -1.1558  0.0575
  137OSM   H13F14970   2.817   6.669   7.775  0.3119 -1.9135  1.0976
  137OSM   H13G14971   2.681   6.604   7.871 -1.1943 -0.8094 -0.3143
  137OSM   C14F14972   2.775   6.785   7.944  0.5044 -0.2573 -1.1392
  137OSM   H14F14973   2.702   6.780   8.027  0.5537  1.0278 -1.0121
  137OSM   H14G14974   2.768   6.890   7.907  0.2047 -0.7536 -2.5342
  137OSM   C15F14975   2.925   6.753   7.989 -0.3282 -0.1299  0.2510
  137OSM   H15F14976   2.993   6.786   7.908  0.8321 -2.2184  0.3320
  137OSM   H15G14977   2.927   6.642   7.995  0.7866 -0.2977 -2.6767
  137OSM   C16F14978   2.958   6.817   8.131  0.2933 -0.0800 -0.0835
  137OSM   H16F14979   2.928   6.924   8.127 -0.7380 -0.2995  1.1612
  137OSM   H16G14980   3.065   6.794   8.145 -0.3107 -1.2587  2.9037
  137OSM   C17F14981   2.879   6.755   8.249 -0.1403  0.2741 -0.2297
  137OSM   H17F14982   2.872   6.645   8.231 -0.1183  0.1652  0.4389
  137OSM   H17G14983   2.775   6.793   8.238 -0.1693  0.7860  1.6562
  137OSM   C18F14984   2.925   6.777   8.392 -0.8610  0.5211  0.3277
  137OSM   H18F14985   3.017   6.721   8.419 -1.3160 -0.7792 -0.7882
  137OSM   H18G14986   2.845   6.747   8.464 -0.4441 -2.9122 -0.5386
  137OSM   H18H14987   2.957   6.880   8.417  1.0368 -0.5549  2.6469
  138OSM      N14988   2.949   2.039   5.616 -0.1918  0.2326 -0.6505
  138OSM    C1514989   3.032   1.920   5.562 -0.3583  0.1956 -0.4241
  138OSM   H15A14990   3.037   1.831   5.623  0.6993  1.1442  0.9101
  138OSM   H15B14991   3.137   1.943   5.551 -0.2867  0.3766  0.5973
  138OSM   H15C14992   2.994   1.898   5.463  0.6283  0.7539 -0.9251
  138OSM    C1414993   2.975   2.161   5.533  0.1788  0.6362 -0.2142
  138OSM   H14A14994   2.911   2.240   5.569 -1.2016  1.1282 -3.5244
  138OSM   H14B14995   2.970   2.139   5.427  2.7021  0.1499 -0.2727
  138OSM   H14C14996   3.068   2.210   5.559  0.4005  0.4992 -0.7475
  138OSM    C1314997   2.810   1.998   5.622  0.0963 -0.1671 -0.0624
  138OSM   H13A14998   2.739   2.079   5.616  0.2506  0.1114  1.7018
  138OSM   H13B14999   2.788   1.934   5.706 -0.4886 -1.3826 -1.1256
  138OSM   H13C15000   2.783   1.939   5.535  2.0097 -1.7367  0.3712
  138OSM    C1215001   3.016   2.053   5.748 -0.7158  0.5011  0.6120
  138OSM   H12A15002   2.996   1.963   5.805  0.6103 -0.6074 -0.6333
  138OSM   H12B15003   2.966   2.125   5.812  0.3026  0.8958  0.9727
  138OSM    C1115004   3.164   2.082   5.747  0.0935 -0.2202 -0.3777
  138OSM   H11A15005   3.176   2.187   5.713  0.5562  0.3125  1.3639
  138OSM   H11B15006   3.229   2.021   5.681 -0.3524 -0.9318 -0.1634
  138OSM      P15007   3.268   1.942   5.942  0.6365 -0.0098  0.1871
  138OSM    O1315008   3.190   1.824   5.909  0.2532 -0.2961 -0.2489
  138OSM    O1415009   3.410   1.932   5.910 -0.4911  0.3053 -0.4438
  138OSM    O1115010   3.250   1.974   6.095  0.9019  0.0503 -0.0931
  138OSM    O1215011   3.198   2.070   5.882 -0.0523 -0.5373  0.6539
  138OSM    C1S15012   3.130   1.920   6.156  0.0621 -0.1316 -0.4563
  138OSM    H1S15013   3.116   1.811   6.142  2.5531 -0.4621 -0.6248
  138OSM    H1T15014   3.039   1.968   6.114  0.1936 -1.1424 -1.9297
  138OSM     NF15015   3.014   1.892   6.369  0.0967 -0.0431  0.2077
  138OSM    HNF15016   2.960   1.970   6.399  0.6902  0.6485 -0.4716
  138OSM    C2S15017   3.143   1.930   6.313  0.5170  0.0303  0.5726
  138OSM    H2S15018   3.213   1.854   6.351 -0.9821 -0.8549  1.6130
  138OSM    C3S15019   3.169   2.076   6.364 -1.0543  0.1460 -0.2760
  138OSM    H3S15020   3.080   2.135   6.333 -0.8004  0.2250 -0.8758
  138OSM     O315021   3.275   2.142   6.290 -0.0080 -0.1812 -0.4984
  138OSM    HO315022   3.266   2.102   6.203  1.6933 -2.2114  0.2201
  138OSM    C4S15023   3.182   2.082   6.519  0.3265 -0.2727 -0.1832
  138OSM    H4S15024   3.084   2.099   6.566  0.8955 -0.3393  1.0199
  138OSM    C5S15025   3.291   2.079   6.600  0.2261 -0.1741  1.1651
  138OSM    H5S15026   3.390   2.075   6.553  0.6409  1.1572  1.8856
  138OSM    C6S15027   3.293   2.070   6.745 -0.3242  0.4510 -0.5111
  138OSM    H6S15028   3.376   2.129   6.789  0.2484  1.6800 -3.1658
  138OSM    H6T15029   3.322   1.968   6.779  0.3517  1.0847  0.8679
  138OSM    C7S15030   3.172   2.069   6.835  0.3434  0.2584  0.3125
  138OSM    H7S15031   3.106   1.984   6.807 -0.3919  1.4278 -1.5923
  138OSM    H7T15032   3.106   2.156   6.815 -2.0681 -1.5126  0.2935
  138OSM    C8S15033   3.191   2.045   6.986 -0.0536 -0.2740  0.1174
  138OSM    H8S15034   3.233   2.142   7.020  3.1942 -1.6472  0.2866
  138OSM    H8T15035   3.267   1.964   6.995 -0.5085 -0.6558  0.5537
  138OSM    C9S15036   3.068   2.015   7.068 -0.4414  0.2366 -0.7591
  138OSM    H9S15037   3.044   1.910   7.042 -0.2449  0.1359 -0.5347
  138OSM    H9T15038   2.980   2.081   7.052 -0.4202 -0.1647 -2.6969
  138OSM   C10S15039   3.107   2.019   7.219  0.1196  0.1267  0.3625
  138OSM   H10S15040   3.149   2.119   7.245  0.0664  0.5676 -1.2065
  138OSM   H10T15041   3.186   1.943   7.235 -0.1047 -0.0741  0.5249
  138OSM   C11S15042   2.986   1.991   7.309 -0.3841  0.3509  0.2798
  138OSM   H11S15043   2.944   1.895   7.272  1.5868  0.3588 -2.0888
  138OSM   H11T15044   2.915   2.075   7.299 -0.9463 -0.0742  0.6335
  138OSM   C12S15045   3.028   1.984   7.456 -0.1219  0.3331 -0.7611
  138OSM   H12S15046   3.134   1.953   7.449 -0.9936 -2.4897 -1.8703
  138OSM   H12T15047   2.976   1.899   7.503 -2.0136  1.0432 -1.5200
  138OSM   C13S15048   3.012   2.118   7.537 -0.3599 -0.5319  0.3077
  138OSM   H13S15049   2.909   2.159   7.546  0.1526  0.6453  0.9381
  138OSM   H13T15050   3.071   2.193   7.480  0.1194 -1.1851 -0.0732
  138OSM   C14S15051   3.082   2.109   7.683 -0.1439 -0.4337 -0.0471
  138OSM   H14S15052   3.182   2.069   7.655  0.5048  0.4947  0.8894
  138OSM   H14T15053   3.024   2.031   7.737  1.2504 -0.5896  1.2910
  138OSM   C15S15054   3.088   2.226   7.782 -0.3313 -0.0730 -0.4089
  138OSM   H15S15055   2.983   2.259   7.798  0.0401  1.6775 -1.4608
  138OSM   H15T15056   3.146   2.317   7.754 -1.7785  0.8680 -0.3619
  138OSM   C16S15057   3.131   2.186   7.922  0.1691  0.5126 -0.3484
  138OSM   H16S15058   3.240   2.202   7.938  0.2726 -1.9127  1.8361
  138OSM   H16T15059   3.110   2.080   7.948  1.0292  0.1985 -0.9087
  138OSM   C17S15060   3.056   2.281   8.021  0.0340 -0.1505  0.1124
  138OSM   H17S15061   2.946   2.268   8.010 -0.1793  0.8572  0.9784
  138OSM   H17T15062   3.074   2.389   8.004 -0.5519  0.1034  1.1113
  138OSM   C18S15063   3.103   2.244   8.160 -0.1940  0.1651  0.2147
  138OSM   H18S15064   3.212   2.261   8.174 -0.0588 -0.0595 -0.5366
  138OSM   H18T15065   3.086   2.135   8.173 -0.4366  0.4059  1.9776
  138OSM   H18U15066   3.061   2.319   8.230  1.6872  2.0501 -0.6256
  138OSM    C1F15067   2.954   1.773   6.360  0.1850 -0.6695 -0.1208
  138OSM     OF15068   3.004   1.680   6.301  0.3831 -0.5301  0.3233
  138OSM    C2F15069   2.820   1.761   6.422 -0.2891 -0.6821  0.7350
  138OSM    H2F15070   2.748   1.738   6.341  0.6597  2.0545 -0.9118
  138OSM    H2G15071   2.798   1.860   6.466 -1.7455 -0.1179 -1.2383
  138OSM    C3F15072   2.815   1.639   6.524 -0.4565 -0.3388  0.2602
  138OSM    H3F15073   2.888   1.662   6.604 -1.2706  1.6845  0.4393
  138OSM    H3G15074   2.831   1.541   6.474 -4.0136 -1.9337  2.0917
  138OSM    C4F15075   2.688   1.636   6.599 -0.3252  0.4252  0.1278
  138OSM    H4F15076   2.596   1.623   6.538 -1.7117  2.7688  1.6516
  138OSM    H4G15077   2.677   1.740   6.637  1.4597  0.6250  0.1374
  138OSM    C5F15078   2.692   1.538   6.719 -0.7087  1.2417 -0.4002
  138OSM    H5F15079   2.768   1.569   6.794 -1.6259  2.0048  0.2312
  138OSM    H5G15080   2.708   1.434   6.683 -1.5447  1.4390 -1.3543
  138OSM    C6F15081   2.565   1.526   6.801 -0.0355  0.1633 -0.6146
  138OSM    H6F15082   2.471   1.509   6.744  0.8231 -1.1759 -1.6314
  138OSM    H6G15083   2.538   1.623   6.850 -0.0436  1.0738 -2.3900
  138OSM    C7F15084   2.560   1.413   6.906 -0.4722 -0.8949  0.7704
  138OSM    H7F15085   2.653   1.422   6.966  0.6936 -1.5483 -0.8925
  138OSM    H7G15086   2.574   1.313   6.859 -0.4802  0.4944 -2.2555
  138OSM    C8F15087   2.443   1.420   7.005  0.1550 -0.4301 -0.0294
  138OSM    H8F15088   2.349   1.396   6.951  0.0455 -0.2019  0.0607
  138OSM    H8G15089   2.431   1.512   7.065  0.2513 -0.3102 -0.1934
  138OSM    C9F15090   2.464   1.296   7.091  0.2371  0.6046 -0.2646
  138OSM    H9F15091   2.465   1.200   7.038  0.2943  0.0947  0.6494
  138OSM   C10F15092   2.474   1.298   7.226 -0.5527  0.2499  0.2616
  138OSM   H10F15093   2.486   1.203   7.279 -1.5170  0.3800  0.7335
  138OSM   C11F15094   2.482   1.424   7.306 -0.0782 -0.6305  0.2450
  138OSM   H11F15095   2.550   1.495   7.256 -0.3810 -1.1500 -0.9312
  138OSM   H11G15096   2.534   1.403   7.403 -2.5067 -1.7131  1.3640
  138OSM   C12F15097   2.340   1.469   7.339 -0.2707  1.4419  0.5898
  138OSM   H12F15098   2.265   1.396   7.377  1.3869 -0.2056  0.7988
  138OSM   H12G15099   2.280   1.519   7.260  0.2365 -0.6143 -1.1573
  138OSM   C13F15100   2.356   1.573   7.452 -0.2996  0.2125  0.3092
  138OSM   H13F15101   2.264   1.636   7.454  0.5647  1.5704  4.5683
  138OSM   H13G15102   2.439   1.644   7.431  1.3478 -1.5936  0.6064
  138OSM   C14F15103   2.369   1.517   7.600 -0.0372 -0.4166 -0.1315
  138OSM   H14F15104   2.466   1.470   7.629  0.9608  1.1658 -0.8267
  138OSM   H14G15105   2.290   1.446   7.629  0.5699 -0.6441  1.0031
  138OSM   C15F15106   2.352   1.642   7.689  0.0423  0.1119 -0.4510
  138OSM   H15F15107   2.245   1.661   7.711 -0.2090 -2.4275  0.6922
  138OSM   H15G15108   2.404   1.734   7.655  0.5134 -0.2635 -0.7475
  138OSM   C16F15109   2.392   1.613   7.834  0.4751 -0.0269  0.1153
  138OSM   H16F15110   2.502   1.626   7.847  0.5245 -1.2170  0.9544
  138OSM   H16G15111   2.381   1.506   7.860  2.6090 -0.3958 -0.3539
  138OSM   C17F15112   2.315   1.686   7.942 -0.4318  0.2586 -1.0378
  138OSM   H17F15113   2.213   1.641   7.948 -0.0339 -0.4804  0.4854
  138OSM   H17G15114   2.316   1.796   7.928 -0.9992  0.2815 -0.9020
  138OSM   C18F15115   2.378   1.669   8.078 -0.5746 -0.4017  0.2919
  138OSM   H18F15116   2.480   1.714   8.082 -0.8390  0.1321  1.2062
  138OSM   H18G15117   2.367   1.562   8.105  0.1112 -0.6739 -0.4709
  138OSM   H18H15118   2.308   1.724   8.144 -2.3285 -2.0933 -0.1312
  139OSM      N15119   2.092   2.014   5.982 -0.5289 -0.8168  0.4341
  139OSM    C1515120   1.999   1.925   6.053 -1.0326  0.2827 -0.2085
  139OSM   H15A15121   2.046   1.848   6.113  0.7130  0.8678 -0.7893
  139OSM   H15B15122   1.944   1.876   5.975 -0.8880 -1.1680  0.5752
  139OSM   H15C15123   1.928   1.986   6.108 -0.8217  0.5163 -0.1936
  139OSM    C1415124   2.168   1.932   5.880 -0.3184 -0.0438  0.0367
  139OSM   H14A15125   2.249   1.876   5.925  1.1166  2.2094  0.3020
  139OSM   H14B15126   2.226   1.995   5.814  0.2264  2.2906  2.6692
  139OSM   H14C15127   2.102   1.867   5.824  0.8579 -1.1668 -0.0764
  139OSM    C1315128   2.014   2.126   5.911  0.1672  0.1939  0.3051
  139OSM   H13A15129   1.949   2.096   5.830  2.0731 -0.6971 -0.9389
  139OSM   H13B15130   2.083   2.197   5.868 -0.3860  0.7300  0.2897
  139OSM   H13C15131   1.958   2.189   5.979  1.6821  0.9610  0.8537
  139OSM    C1215132   2.192   2.086   6.071 -0.2815  0.1338  0.0999
  139OSM   H12A15133   2.262   2.136   6.006 -1.2854  1.6448  0.1401
  139OSM   H12B15134   2.245   2.009   6.125 -0.6108 -0.0667  0.1401
  139OSM    C1115135   2.131   2.186   6.168  0.3021  0.2290  0.3651
  139OSM   H11A15136   2.186   2.184   6.264  2.2220  0.1845 -0.7162
  139OSM   H11B15137   2.031   2.151   6.201  0.1148  0.1372 -0.2863
  139OSM      P15138   2.009   2.420   6.157  0.3303 -0.2258  0.3039
  139OSM    O1315139   2.058   2.552   6.123  0.0681  0.5691 -0.3622
  139OSM    O1415140   1.880   2.376   6.101  0.0669  0.3838  0.7392
  139OSM    O1115141   2.000   2.407   6.312  0.0807 -0.0526  0.9247
  139OSM    O1215142   2.119   2.320   6.119 -0.3213 -0.3264 -0.3977
  139OSM    C1S15143   2.088   2.475   6.397 -0.1650  0.0921  0.5225
  139OSM    H1S15144   2.078   2.585   6.388 -1.3682  0.0763  1.4928
  139OSM    H1T15145   2.192   2.449   6.369 -0.3479  1.0642 -1.0682
  139OSM     NF15146   2.103   2.551   6.633 -0.1529  0.1699 -0.0840
  139OSM    HNF15147   2.170   2.526   6.703 -0.9781 -1.0703  0.2932
  139OSM    C2S15148   2.053   2.446   6.541 -0.5238  0.7358 -0.1882
  139OSM    H2S15149   1.942   2.454   6.546 -0.5873 -0.5633  0.8460
  139OSM    C3S15150   2.100   2.303   6.576 -0.0628 -0.2185 -0.2112
  139OSM    H3S15151   2.211   2.303   6.573 -0.1066 -1.3761 -2.5304
  139OSM     O315152   2.067   2.199   6.481 -0.0991 -1.0640  0.4242
  139OSM    HO315153   2.061   2.248   6.399  0.4433  0.4892  1.3001
  139OSM    C4S15154   2.042   2.275   6.713 -0.0960  0.0287 -0.5170
  139OSM    H4S15155   2.103   2.318   6.793  0.0471 -0.8999 -0.1190
  139OSM    C5S15156   1.927   2.218   6.739  0.7969 -0.0295  0.5255
  139OSM    H5S15157   1.877   2.181   6.648 -0.4799  1.0491  0.7730
  139OSM    C6S15158   1.864   2.189   6.873  0.1586 -0.3395 -0.4879
  139OSM    H6S15159   1.863   2.079   6.887 -1.0281 -0.0979  1.4428
  139OSM    H6T15160   1.755   2.211   6.868  0.0087 -0.9332  0.0470
  139OSM    C7S15161   1.914   2.253   7.000  0.1060  0.1848  0.5243
  139OSM    H7S15162   1.915   2.363   6.981 -1.5026  0.6473  2.9500
  139OSM    H7T15163   2.023   2.236   7.011 -0.1529 -1.8086  0.1412
  139OSM    C8S15164   1.843   2.204   7.125 -0.5239  0.6027 -0.7836
  139OSM    H8S15165   1.841   2.093   7.120 -3.1095  0.5728  0.2482
  139OSM    H8T15166   1.739   2.240   7.140 -0.0814  1.6182 -0.1079
  139OSM    C9S15167   1.917   2.241   7.255 -0.6462 -0.3122  0.5619
  139OSM    H9S15168   1.917   2.351   7.264 -1.2877 -0.4282  2.1089
  139OSM    H9T15169   2.023   2.209   7.258  0.0671  2.0249  1.3558
  139OSM   C10S15170   1.839   2.166   7.370 -0.3365  0.4220  0.4177
  139OSM   H10S15171   1.854   2.057   7.361 -0.3304  0.4760 -0.2570
  139OSM   H10T15172   1.732   2.193   7.355 -0.3608 -0.3930 -0.9359
  139OSM   C11S15173   1.884   2.213   7.509  0.7471 -0.1739 -0.9261
  139OSM   H11S15174   1.876   2.323   7.522  1.3927 -0.3127  0.7297
  139OSM   H11T15175   1.988   2.182   7.533  1.3421  1.3933 -1.3884
  139OSM   C12S15176   1.793   2.150   7.623  0.4746 -0.0813 -0.1644
  139OSM   H12S15177   1.799   2.039   7.632  2.1846  0.0990  1.2592
  139OSM   H12T15178   1.686   2.168   7.598  0.1869  0.5788  1.4937
  139OSM   C13S15179   1.826   2.212   7.766  0.6012  0.4909  0.7197
  139OSM   H13S15180   1.833   2.322   7.751 -0.6480  0.1872 -2.4017
  139OSM   H13T15181   1.924   2.188   7.811  0.5521 -1.0789  0.0320
  139OSM   C14S15182   1.710   2.194   7.868 -0.3953 -0.1751 -0.5476
  139OSM   H14S15183   1.703   2.084   7.883  2.8975 -0.2919  0.5784
  139OSM   H14T15184   1.612   2.217   7.823  0.6454  2.8755 -1.3567
  139OSM   C15S15185   1.729   2.274   7.995 -0.2282  0.2687  0.7186
  139OSM   H15S15186   1.726   2.383   7.975  0.2430  0.5560  2.1651
  139OSM   H15T15187   1.828   2.246   8.038  0.0264  0.4152  0.2392
  139OSM   C16S15188   1.613   2.250   8.098  0.2886 -0.2511 -0.3570
  139OSM   H16S15189   1.625   2.146   8.132 -0.1473 -1.2431 -3.0966
  139OSM   H16T15190   1.515   2.272   8.050 -1.0399 -2.2629  1.3601
  139OSM   C17S15191   1.628   2.317   8.237 -0.0155 -0.4167 -0.0427
  139OSM   H17S15192   1.602   2.425   8.231  3.5451  0.4940  0.3063
  139OSM   H17T15193   1.734   2.314   8.270 -0.4256  1.1028  1.4648
  139OSM   C18S15194   1.542   2.254   8.347  0.3652 -0.0293  0.3922
  139OSM   H18S15195   1.582   2.277   8.448 -0.0119 -0.5845  0.6702
  139OSM   H18T15196   1.559   2.145   8.340 -0.0164 -0.1222  0.8406
  139OSM   H18U15197   1.433   2.275   8.338  0.6781  2.2248  1.3897
  139OSM    C1F15198   2.057   2.676   6.623  0.2991 -1.0666  0.2122
  139OSM     OF15199   1.957   2.698   6.563 -0.1480  0.0560  0.2242
  139OSM    C2F15200   2.133   2.782   6.692  0.5500  0.0951  0.3762
  139OSM    H2F15201   2.138   2.867   6.620  0.7804  1.0365  1.4881
  139OSM    H2G15202   2.233   2.750   6.727  0.5160  0.0069  0.3931
  139OSM    C3F15203   2.063   2.826   6.826  0.2243 -0.5735 -0.5668
  139OSM    H3F15204   1.974   2.890   6.809  0.2312 -0.7258 -1.1876
  139OSM    H3G15205   2.136   2.894   6.875 -0.3164  0.3799 -1.0699
  139OSM    C4F15206   2.019   2.715   6.923 -0.2817  0.0955  0.2567
  139OSM    H4F15207   2.110   2.657   6.950  0.7731  0.7636 -1.7707
  139OSM    H4G15208   1.940   2.650   6.880 -0.5935  0.3013  0.5125
  139OSM    C5F15209   1.962   2.770   7.052  0.0334 -0.5826 -0.3093
  139OSM    H5F15210   1.899   2.850   7.009  1.8494  0.4654 -1.0736
  139OSM    H5G15211   2.046   2.817   7.107 -2.1585  0.4861  2.2294
  139OSM    C6F15212   1.884   2.668   7.127  0.4312 -0.3733  0.0506
  139OSM    H6F15213   1.938   2.570   7.122  4.0551  1.4546  1.4645
  139OSM    H6G15214   1.783   2.656   7.084 -0.5990 -1.6026  2.6624
  139OSM    C7F15215   1.853   2.712   7.274  0.7509  0.0907  0.2278
  139OSM    H7F15216   1.766   2.782   7.274  0.9519  0.3390  0.1539
  139OSM    H7G15217   1.942   2.756   7.322  1.2942  1.3609 -1.8509
  139OSM    C8F15218   1.819   2.593   7.376  0.8028  0.1822  0.4937
  139OSM    H8F15219   1.814   2.633   7.479  0.5157 -2.4381  1.5283
  139OSM    H8G15220   1.912   2.534   7.367  1.4141  1.3492 -1.2258
  139OSM    C9F15221   1.689   2.532   7.339  0.1458 -0.4187 -0.3070
  139OSM    H9F15222   1.672   2.511   7.232 -2.4613  2.2790 -0.4870
  139OSM   C10F15223   1.586   2.491   7.425 -0.1763 -0.4789  0.0573
  139OSM   H10F15224   1.492   2.459   7.376 -0.3698 -1.6482  1.1570
  139OSM   C11F15225   1.579   2.519   7.573 -0.2882 -0.7010 -0.3945
  139OSM   H11F15226   1.611   2.625   7.590  0.1981 -1.1098  1.4027
  139OSM   H11G15227   1.637   2.445   7.633  0.7505  0.8246  0.5330
  139OSM   C12F15228   1.432   2.516   7.635  0.4006 -0.3029 -0.9987
  139OSM   H12F15229   1.396   2.411   7.638  0.0504 -0.1581  0.3516
  139OSM   H12G15230   1.362   2.572   7.571 -0.1611  0.6692  0.4356
  139OSM   C13F15231   1.425   2.558   7.779 -0.0272 -0.1097  0.4916
  139OSM   H13F15232   1.434   2.669   7.780 -1.8134  0.0932 -1.7750
  139OSM   H13G15233   1.514   2.523   7.836 -0.1881 -0.0815  0.7557
  139OSM   C14F15234   1.293   2.508   7.841 -0.1016 -0.8186  1.0097
  139OSM   H14F15235   1.301   2.398   7.827  1.3062 -0.5615 -0.3709
  139OSM   H14G15236   1.208   2.554   7.785 -0.8264 -1.1043  1.8731
  139OSM   C15F15237   1.285   2.527   7.993  0.4300  0.6568  0.2495
  139OSM   H15F15238   1.239   2.628   8.000 -0.1468  0.4551 -0.5351
  139OSM   H15G15239   1.381   2.538   8.046  0.0394 -0.1650  1.1287
  139OSM   C16F15240   1.189   2.429   8.069 -0.1059 -0.4784  0.2412
  139OSM   H16F15241   1.238   2.330   8.064  0.4198 -0.2975  1.5977
  139OSM   H16G15242   1.097   2.424   8.007 -0.5566 -2.0657  1.0074
  139OSM   C17F15243   1.153   2.478   8.213  0.4658 -0.5269 -0.2417
  139OSM   H17F15244   1.090   2.569   8.206 -0.6550 -1.2550  0.1189
  139OSM   H17G15245   1.236   2.496   8.284 -1.7341  1.7072  1.8342
  139OSM   C18F15246   1.048   2.382   8.275  0.3144  0.1104  0.1803
  139OSM   H18F15247   1.091   2.281   8.291  2.6582  1.0507 -0.0712
  139OSM   H18G15248   0.972   2.374   8.194  0.3447 -3.2476  0.4035
  139OSM   H18H15249   1.001   2.420   8.368 -0.6337  0.3390 -0.3838
  140OSM      N15250   2.071   4.618   6.286 -0.0039 -0.0658  0.6909
  140OSM    C1515251   1.967   4.694   6.359 -0.5015 -0.1593  0.3218
  140OSM   H15A15252   1.994   4.722   6.460  2.7409  3.9325 -1.5058
  140OSM   H15B15253   1.873   4.640   6.368 -0.4847 -0.0843  0.9948
  140OSM   H15C15254   1.939   4.785   6.307  0.6922 -0.5216 -0.9708
  140OSM    C1415255   2.038   4.608   6.137  0.2673 -0.3107 -0.1815
  140OSM   H14A15256   2.025   4.707   6.095 -1.8406 -0.3190  0.3741
  140OSM   H14B15257   1.961   4.534   6.123  0.3771 -0.2605 -1.0461
  140OSM   H14C15258   2.121   4.562   6.086 -0.0918 -1.7866  0.5281
  140OSM    C1315259   2.191   4.704   6.307  0.0208  0.0523  0.1883
  140OSM   H13A15260   2.193   4.796   6.250  0.6106 -0.1198 -0.0689
  140OSM   H13B15261   2.279   4.643   6.293  0.8205  1.1938  0.1605
  140OSM   H13C15262   2.193   4.738   6.410 -0.7772  0.3790  0.0978
  140OSM    C1215263   2.103   4.481   6.336  0.1220  0.2784 -0.2170
  140OSM   H12A15264   2.020   4.413   6.324 -0.6491  1.1823 -0.0079
  140OSM   H12B15265   2.115   4.481   6.443 -2.8756 -0.9556  0.1735
  140OSM    C1115266   2.227   4.410   6.278  0.0005  0.4817 -0.2285
  140OSM   H11A15267   2.215   4.413   6.167 -1.5838  0.6376 -0.0588
  140OSM   H11B15268   2.230   4.301   6.296 -0.9441  0.3054 -1.0754
  140OSM      P15269   2.418   4.437   6.445 -0.2439  0.0182 -0.2634
  140OSM    O1315270   2.462   4.293   6.447 -0.1270 -0.2705  0.7062
  140OSM    O1415271   2.528   4.540   6.463 -0.1759  1.0475  0.3939
  140OSM    O1115272   2.301   4.460   6.546 -0.1671 -0.2054  0.0753
  140OSM    O1215273   2.357   4.467   6.307  0.0312 -0.2240  0.7561
  140OSM    C1S15274   2.302   4.399   6.673  0.5271  0.4367 -0.5580
  140OSM    H1S15275   2.406   4.388   6.711 -0.6705 -1.4631  2.2986
  140OSM    H1T15276   2.258   4.297   6.680  1.6538 -0.0042  0.2126
  140OSM     NF15277   2.232   4.406   6.906 -0.5508  0.2779  0.7160
  140OSM    HNF15278   2.155   4.347   6.929  0.3343 -1.9220 -1.7447
  140OSM    C2S15279   2.226   4.485   6.782 -0.2406 -0.3651 -0.3149
  140OSM    H2S15280   2.276   4.584   6.793 -0.1245 -0.4042 -0.4929
  140OSM    C3S15281   2.080   4.520   6.748  0.1276  0.1851  0.2885
  140OSM    H3S15282   2.033   4.427   6.710  0.3278  0.8999 -1.7977
  140OSM     O315283   2.077   4.609   6.630  0.0308 -0.3454 -0.5522
  140OSM    HO315284   2.165   4.598   6.595 -0.2090  0.4997 -1.4177
  140OSM    C4S15285   2.009   4.568   6.871  0.1486  1.3054  0.8525
  140OSM    H4S15286   1.995   4.488   6.945 -1.4840  0.7043 -0.0928
  140OSM    C5S15287   1.959   4.693   6.899  0.0240  0.1287 -0.3063
  140OSM    H5S15288   1.949   4.773   6.824  0.2305  1.4795  1.0702
  140OSM    C6S15289   1.890   4.739   7.025 -0.5071  0.5386 -0.1653
  140OSM    H6S15290   1.793   4.685   7.032 -0.4438  0.1353 -2.1631
  140OSM    H6T15291   1.875   4.849   7.020  2.1747  0.9255 -0.4784
  140OSM    C7S15292   1.966   4.704   7.152  0.5734 -0.0160  0.2533
  140OSM    H7S15293   2.059   4.765   7.149 -0.0953  1.0553  0.6837
  140OSM    H7T15294   1.994   4.597   7.151  2.3346  0.4316 -0.7163
  140OSM    C8S15295   1.892   4.746   7.282  0.4376  0.9113 -0.4168
  140OSM    H8S15296   1.805   4.680   7.302 -0.8581  2.1696 -1.7735
  140OSM    H8T15297   1.854   4.848   7.261  0.3500  0.9636  0.0065
  140OSM    C9S15298   1.985   4.742   7.411  0.5016 -0.8241 -0.5016
  140OSM    H9S15299   2.042   4.837   7.399  1.7722 -1.7822 -2.2618
  140OSM    H9T15300   2.056   4.657   7.410  0.8462 -0.5392  0.0794
  140OSM   C10S15301   1.909   4.747   7.541 -0.0995 -0.3095  0.3723
  140OSM   H10S15302   1.869   4.644   7.555 -0.9947 -0.0280 -0.0518
  140OSM   H10T15303   1.818   4.812   7.536  2.0467  2.9825  2.0534
  140OSM   C11S15304   1.994   4.779   7.675 -0.0867  0.3393  0.8890
  140OSM   H11S15305   2.019   4.888   7.673 -0.9489  0.5738  1.9875
  140OSM   H11T15306   2.088   4.720   7.674  0.7322  1.5827  2.2654
  140OSM   C12S15307   1.913   4.750   7.803 -0.1657 -0.2243  0.8367
  140OSM   H12S15308   1.887   4.642   7.811  0.7561 -0.4485  0.8381
  140OSM   H12T15309   1.813   4.799   7.807 -0.7985 -1.4844  0.6772
  140OSM   C13S15310   1.977   4.799   7.935 -0.1778  0.9408 -0.1589
  140OSM   H13S15311   1.971   4.910   7.947 -0.4939  0.7550  1.6454
  140OSM   H13T15312   2.083   4.770   7.926 -0.2295  1.1679 -1.5447
  140OSM   C14S15313   1.920   4.732   8.064  0.0174  0.2889 -0.6842
  140OSM   H14S15314   1.895   4.626   8.042 -3.0017  0.5707  1.0759
  140OSM   H14T15315   1.826   4.790   8.075  0.2400  0.1432  2.4202
  140OSM   C15S15316   2.002   4.729   8.192 -0.4159  0.1307  0.9898
  140OSM   H15S15317   2.006   4.831   8.235  2.9961  0.4794  0.0091
  140OSM   H15T15318   2.104   4.700   8.158  0.0385  0.5570  1.9900
  140OSM   C16S15319   1.949   4.622   8.287  0.3770  0.3429  0.2994
  140OSM   H16S15320   1.956   4.526   8.230 -0.5114  0.3691  0.1480
  140OSM   H16T15321   1.842   4.645   8.302 -0.2613 -2.4274  0.3469
  140OSM   C17S15322   2.010   4.598   8.424 -0.1731 -0.4378 -0.8205
  140OSM   H17S15323   1.997   4.678   8.500  0.2213 -0.6859 -0.4889
  140OSM   H17T15324   2.116   4.573   8.400 -0.3668 -1.2357 -0.8701
  140OSM   C18S15325   1.941   4.464   8.479  0.2739  0.4698 -1.0824
  140OSM   H18S15326   1.947   4.434   8.585 -1.2423 -0.0728 -1.1434
  140OSM   H18T15327   1.980   4.376   8.424  1.2766  0.7852 -0.8886
  140OSM   H18U15328   1.833   4.473   8.454 -0.1017  2.9957  1.2181
  140OSM    C1F15329   2.348   4.403   6.970 -0.6712 -0.3411  0.8779
  140OSM     OF15330   2.437   4.483   6.941 -0.0505  0.2509 -0.3623
  140OSM    C2F15331   2.366   4.298   7.078  0.5978 -0.0297  0.8210
  140OSM    H2F15332   2.290   4.220   7.054  1.6471 -0.4676 -1.1631
  140OSM    H2G15333   2.349   4.345   7.177  0.2034  1.6833 -0.0457
  140OSM    C3F15334   2.512   4.242   7.098 -1.2832 -0.1289 -0.5484
  140OSM    H3F15335   2.582   4.324   7.126 -1.4635 -0.8819  2.3043
  140OSM    H3G15336   2.550   4.203   7.002  3.2021 -1.2161  1.5602
  140OSM    C4F15337   2.516   4.136   7.216  0.4363 -0.6758  1.3096
  140OSM    H4F15338   2.607   4.073   7.204 -0.4102 -1.6865  0.0466
  140OSM    H4G15339   2.428   4.069   7.207  0.7884 -0.7837 -1.9044
  140OSM    C5F15340   2.528   4.211   7.343  0.1005  0.2819 -0.9837
  140OSM    H5F15341   2.446   4.285   7.355 -1.6020 -1.6461 -0.4471
  140OSM    H5G15342   2.617   4.277   7.343 -0.4416  1.0726  1.6592
  140OSM    C6F15343   2.495   4.124   7.466  0.6950  0.2017  0.1919
  140OSM    H6F15344   2.386   4.114   7.483  0.8028 -1.3818  0.0338
  140OSM    H6G15345   2.548   4.168   7.553  2.3322  1.1408 -1.2274
  140OSM    C7F15346   2.537   3.978   7.470  0.1398  1.3829 -0.4658
  140OSM    H7F15347   2.648   3.967   7.467  0.2682  2.6429 -0.8226
  140OSM    H7G15348   2.485   3.916   7.395 -0.5669 -0.7584  1.7250
  140OSM    C8F15349   2.481   3.921   7.606 -0.0934  0.7165 -0.2401
  140OSM    H8F15350   2.370   3.925   7.614 -0.2455 -0.8291 -1.2696
  140OSM    H8G15351   2.526   3.990   7.680 -1.3102  0.1741  1.0522
  140OSM    C9F15352   2.531   3.782   7.638 -0.1679  0.3605  0.0209
  140OSM    H9F15353   2.558   3.728   7.546  1.6988  2.9109 -0.9734
  140OSM   C10F15354   2.538   3.720   7.754  0.4426 -0.3265 -0.9901
  140OSM   H10F15355   2.554   3.612   7.750  0.6011 -0.2323 -4.1834
  140OSM   C11F15356   2.506   3.782   7.892  0.0656 -0.1438 -0.2008
  140OSM   H11F15357   2.506   3.893   7.885  0.4283 -0.1575 -0.4302
  140OSM   H11G15358   2.580   3.774   7.975  2.3804  2.2170 -1.9749
  140OSM   C12F15359   2.373   3.744   7.956 -0.6644  0.6814  0.4383
  140OSM   H12F15360   2.382   3.635   7.970  0.5965  0.6631 -0.4687
  140OSM   H12G15361   2.285   3.776   7.895  0.6827  0.1592 -1.8110
  140OSM   C13F15362   2.358   3.802   8.098 -0.3456 -0.4998  0.4279
  140OSM   H13F15363   2.368   3.912   8.093  0.2087 -0.4913  1.3903
  140OSM   H13G15364   2.446   3.772   8.160 -1.9554 -1.3612  2.3459
  140OSM   C14F15365   2.225   3.777   8.175  0.4238 -0.4250  0.0357
  140OSM   H14F15366   2.141   3.783   8.103  1.4068 -1.5662 -1.2273
  140OSM   H14G15367   2.227   3.858   8.251  0.7956  0.7778 -1.2522
  140OSM   C15F15368   2.213   3.641   8.249  0.2393 -0.0234  0.0392
  140OSM   H15F15369   2.302   3.638   8.315  0.2057  2.0293  0.2177
  140OSM   H15G15370   2.209   3.557   8.177 -0.3884  0.5498 -0.6032
  140OSM   C16F15371   2.095   3.630   8.344 -0.6630  1.3041  0.1794
  140OSM   H16F15372   2.003   3.647   8.285  1.2032  0.2191 -3.2165
  140OSM   H16G15373   2.109   3.707   8.422  1.1640 -0.9660  2.1652
  140OSM   C17F15374   2.096   3.494   8.415  0.0518 -0.3484  0.5979
  140OSM   H17F15375   2.199   3.471   8.450  0.0190  1.1374  1.7397
  140OSM   H17G15376   2.093   3.411   8.341  0.3738 -0.8184  1.0995
  140OSM   C18F15377   1.988   3.479   8.522 -0.4790  0.1959  0.0212
  140OSM   H18F15378   1.882   3.480   8.488 -0.3248  0.5889 -0.4516
  140OSM   H18G15379   1.999   3.564   8.593 -1.2574  0.0839  0.2836
  140OSM   H18H15380   2.011   3.380   8.566 -1.9313 -0.0914  0.1447
  141OSM      N15381   1.802   5.236   6.028 -0.2261  0.3166  0.5576
  141OSM    C1515382   1.799   5.154   5.895 -0.0315  0.3818 -1.0238
  141OSM   H15A15383   1.745   5.062   5.910  1.9841 -0.6810 -0.0470
  141OSM   H15B15384   1.901   5.135   5.866  0.4081 -0.1711  0.8650
  141OSM   H15C15385   1.760   5.209   5.810 -0.3966 -0.7290 -1.5875
  141OSM    C1415386   1.845   5.143   6.138  0.1283  0.4311 -0.0736
  141OSM   H14A15387   1.869   5.207   6.222  2.2372 -1.6561  0.9456
  141OSM   H14B15388   1.935   5.086   6.126 -1.1439 -2.2489  2.4637
  141OSM   H14C15389   1.763   5.078   6.164  1.6248 -1.6981 -0.5939
  141OSM    C1315390   1.911   5.333   6.009  0.0913  0.1315 -0.2724
  141OSM   H13A15391   1.890   5.415   5.942 -0.1542  2.6828  2.8236
  141OSM   H13B15392   2.005   5.287   5.980  1.0112  1.2510  0.8951
  141OSM   H13C15393   1.940   5.375   6.104 -1.3727  1.3415 -0.3495
  141OSM    C1215394   1.661   5.284   6.055 -0.0682 -0.4366  0.0849
  141OSM   H12A15395   1.591   5.202   6.058  0.5027 -0.8974  0.8755
  141OSM   H12B15396   1.646   5.349   5.970  0.0634  1.7089  1.6576
  141OSM    C1115397   1.642   5.377   6.185 -0.5611  0.7062 -0.1253
  141OSM   H11A15398   1.670   5.317   6.274  0.2968 -0.6567 -1.2832
  141OSM   H11B15399   1.532   5.390   6.194 -0.6908 -0.4799  0.1058
  141OSM      P15400   1.665   5.634   6.150 -0.0316  0.2477 -0.2851
  141OSM    O1315401   1.784   5.717   6.128 -0.0762 -0.3082  0.3236
  141OSM    O1415402   1.565   5.629   6.035 -0.6094  0.1068  0.0773
  141OSM    O1115403   1.571   5.673   6.275  0.3430  0.4651  0.2472
  141OSM    O1215404   1.720   5.496   6.186 -0.0822 -0.2551  0.1807
  141OSM    C1S15405   1.631   5.691   6.402 -0.2109 -0.1503 -0.1520
  141OSM    H1S15406   1.708   5.771   6.397  0.9429 -1.1961  0.9015
  141OSM    H1T15407   1.680   5.596   6.430  0.9154  0.7595  1.0128
  141OSM     NF15408   1.597   5.751   6.642 -0.4060  0.1775  0.0365
  141OSM    HNF15409   1.573   5.694   6.720 -0.3941  1.1056  0.7274
  141OSM    C2S15410   1.528   5.721   6.516 -0.7446 -0.3950 -0.5824
  141OSM    H2S15411   1.470   5.813   6.495  0.4968  0.8620  1.2755
  141OSM    C3S15412   1.430   5.601   6.526  0.2206 -0.7059 -0.3729
  141OSM    H3S15413   1.483   5.504   6.533  0.5377 -0.4335  1.1547
  141OSM     O315414   1.361   5.587   6.399 -0.1910  0.2876 -0.0113
  141OSM    HO315415   1.423   5.628   6.337  1.7231 -0.2211  1.5215
  141OSM    C4S15416   1.327   5.620   6.631 -0.8281  0.1671 -0.9967
  141OSM    H4S15417   1.356   5.560   6.719 -0.4108 -2.8360 -3.1199
  141OSM    C5S15418   1.205   5.692   6.640 -0.6162  0.5141  0.3630
  141OSM    H5S15419   1.173   5.727   6.541 -0.4995 -0.0657  0.1140
  141OSM    C6S15420   1.102   5.698   6.752 -0.4156 -0.3491 -0.8257
  141OSM    H6S15421   1.104   5.609   6.819 -0.7990 -0.2319 -0.6563
  141OSM    H6T15422   0.998   5.716   6.719 -0.5134 -1.3801 -1.1128
  141OSM    C7S15423   1.168   5.804   6.846 -0.1844 -0.4358 -0.1760
  141OSM    H7S15424   1.128   5.906   6.832  1.9109  0.5319  0.7042
  141OSM    H7T15425   1.279   5.803   6.842 -0.1532  2.6246 -1.6460
  141OSM    C8S15426   1.125   5.759   6.985 -0.2096 -0.3338 -0.4477
  141OSM    H8S15427   1.186   5.670   7.010  1.5012  0.1928 -2.6400
  141OSM    H8T15428   1.022   5.720   6.999 -0.5281  0.6248 -0.0802
  141OSM    C9S15429   1.127   5.871   7.098 -0.2720  0.7777  0.3895
  141OSM    H9S15430   1.065   5.959   7.072  0.4046  1.5418  1.2856
  141OSM    H9T15431   1.230   5.907   7.118 -0.7784  1.5254  1.7140
  141OSM   C10S15432   1.069   5.824   7.232  0.8130 -0.3929  0.1099
  141OSM   H10S15433   1.099   5.720   7.257 -0.5936 -0.6412  0.7835
  141OSM   H10T15434   0.958   5.822   7.224  0.9625 -2.5304 -2.0671
  141OSM   C11S15435   1.121   5.911   7.358  0.3812 -0.6861  0.2732
  141OSM   H11S15436   1.089   6.015   7.338  0.5451 -0.6181  0.3696
  141OSM   H11T15437   1.231   5.898   7.357  0.4321 -0.2865 -0.5890
  141OSM   C12S15438   1.077   5.852   7.491 -0.9825 -0.2506 -1.0223
  141OSM   H12S15439   1.118   5.752   7.515 -0.7805 -0.5705 -2.6516
  141OSM   H12T15440   0.967   5.835   7.488 -1.1214  0.5016 -0.4103
  141OSM   C13S15441   1.103   5.934   7.616  0.0865  0.5663  0.9674
  141OSM   H13S15442   1.136   6.039   7.599  1.0272  0.5890  2.8576
  141OSM   H13T15443   1.196   5.890   7.657  0.8802  0.4307 -0.8867
  141OSM   C14S15444   0.986   5.943   7.713 -0.1252 -0.6671 -0.4237
  141OSM   H14S15445   0.973   5.838   7.747  0.1405 -0.5547  0.0229
  141OSM   H14T15446   0.894   5.974   7.659 -0.4588  0.0491  0.5420
  141OSM   C15S15447   1.021   6.052   7.822  0.1636  0.0018  0.0801
  141OSM   H15S15448   0.942   6.068   7.899 -0.3451  2.8721 -0.9753
  141OSM   H15T15449   1.051   6.141   7.762  1.3751 -0.7108 -0.3971
  141OSM   C16S15450   1.147   6.015   7.900 -0.1380 -0.4672 -0.4490
  141OSM   H16S15451   1.242   6.020   7.841 -0.2454  1.6266 -0.5050
  141OSM   H16T15452   1.121   5.917   7.944 -0.5640  0.1227  0.6282
  141OSM   C17S15453   1.179   6.109   8.018  0.3196 -0.0131  1.2328
  141OSM   H17S15454   1.086   6.118   8.078 -0.3951 -1.3555  0.3231
  141OSM   H17T15455   1.197   6.212   7.981  0.8134 -1.0371 -1.4874
  141OSM   C18S15456   1.297   6.068   8.102 -0.2609  0.0986 -0.3878
  141OSM   H18S15457   1.386   6.075   8.035 -0.7222 -0.0658 -1.0253
  141OSM   H18T15458   1.304   5.961   8.132 -0.3713 -0.3095 -1.7984
  141OSM   H18U15459   1.312   6.130   8.193 -0.5189 -2.0134  1.1114
  141OSM    C1F15460   1.675   5.856   6.657  0.6663  0.4044  0.2071
  141OSM     OF15461   1.668   5.945   6.577  0.0470  0.7755 -0.8774
  141OSM    C2F15462   1.768   5.860   6.778  0.2830  0.4038  0.0608
  141OSM    H2F15463   1.842   5.777   6.773 -1.4757 -1.3163  1.8234
  141OSM    H2G15464   1.701   5.842   6.865  1.1338  1.9024  1.0472
  141OSM    C3F15465   1.828   6.003   6.796  0.1501 -0.4247  0.4648
  141OSM    H3F15466   1.741   6.071   6.799  0.4414 -0.0971  1.7174
  141OSM    H3G15467   1.893   6.044   6.716 -0.7586  1.7326  0.8054
  141OSM    C4F15468   1.913   5.999   6.927 -0.2500  0.1638  0.4456
  141OSM    H4F15469   1.996   5.928   6.909  0.0153  0.4281  0.6416
  141OSM    H4G15470   1.844   5.957   7.003 -2.3039  1.0017 -0.9029
  141OSM    C5F15471   1.950   6.136   6.975 -0.2747  0.5659  0.4200
  141OSM    H5F15472   1.861   6.200   6.990 -0.1738  0.3876  1.8524
  141OSM    H5G15473   2.015   6.193   6.905  0.2118  1.0793  1.2841
  141OSM    C6F15474   2.045   6.146   7.096 -0.1751 -0.1089  0.1171
  141OSM    H6F15475   2.094   6.245   7.080 -0.3570  0.2092  1.5121
  141OSM    H6G15476   2.116   6.060   7.099  2.3352  1.9591  1.8338
  141OSM    C7F15477   1.977   6.158   7.235  0.5352 -0.2121 -0.0281
  141OSM    H7F15478   1.899   6.080   7.239  0.3386 -0.1759 -2.5423
  141OSM    H7G15479   1.922   6.253   7.253  0.9819 -0.0980  0.7743
  141OSM    C8F15480   2.068   6.152   7.355 -0.5683  0.1506 -0.9820
  141OSM    H8F15481   2.121   6.250   7.355 -0.9254  0.3443 -0.8249
  141OSM    H8G15482   2.143   6.072   7.337  0.9404  1.1367  0.7949
  141OSM    C9F15483   2.001   6.120   7.492  0.2306  0.3373 -0.7290
  141OSM    H9F15484   1.930   6.036   7.485 -1.6711  1.7440  0.9308
  141OSM   C10F15485   2.024   6.176   7.610  0.5453 -0.3215 -1.0565
  141OSM   H10F15486   1.971   6.134   7.697  0.2830  0.4078 -0.8612
  141OSM   C11F15487   2.128   6.286   7.629  0.4695 -0.4464 -0.2781
  141OSM   H11F15488   2.070   6.379   7.645 -0.1112 -1.0450  1.1969
  141OSM   H11G15489   2.189   6.288   7.536 -1.4694 -0.0655 -1.5801
  141OSM   C12F15490   2.214   6.273   7.760  0.1733  0.1564 -0.0180
  141OSM   H12F15491   2.262   6.173   7.760  0.2794  0.2020 -0.8916
  141OSM   H12G15492   2.155   6.280   7.854  1.6637  2.5057  0.7948
  141OSM   C13F15493   2.322   6.383   7.767 -0.1180  0.2445  0.4998
  141OSM   H13F15494   2.260   6.473   7.746 -2.5240 -1.2974  0.6907
  141OSM   H13G15495   2.404   6.360   7.696  0.2776  1.2762  0.6102
  141OSM   C14F15496   2.384   6.408   7.903  0.5428  0.3566 -0.1831
  141OSM   H14F15497   2.464   6.486   7.895 -1.1063  1.8943 -2.4452
  141OSM   H14G15498   2.434   6.324   7.954 -0.5836  0.7664  1.6145
  141OSM   C15F15499   2.280   6.467   7.998 -1.1538  0.0605 -0.4398
  141OSM   H15F15500   2.225   6.376   8.030  0.7524 -1.0711 -0.2876
  141OSM   H15G15501   2.200   6.535   7.961  0.1542  0.4605 -2.6210
  141OSM   C16F15502   2.338   6.541   8.128 -0.1255 -0.0857 -0.1517
  141OSM   H16F15503   2.398   6.629   8.097  1.3879 -0.3554  1.8935
  141OSM   H16G15504   2.400   6.465   8.181 -0.3060 -1.0946 -1.3893
  141OSM   C17F15505   2.232   6.598   8.228  0.0547 -0.3279 -0.4449
  141OSM   H17F15506   2.142   6.535   8.215  0.0848 -0.5760  0.5501
  141OSM   H17G15507   2.194   6.692   8.182  1.1093 -0.4475 -1.6071
  141OSM   C18F15508   2.273   6.612   8.373 -0.1902  0.2579  0.0885
  141OSM   H18F15509   2.329   6.526   8.415  1.5462  1.2907 -0.0469
  141OSM   H18G15510   2.202   6.656   8.445 -1.1984  1.4409 -1.5901
  141OSM   H18H15511   2.353   6.690   8.376  0.9398 -0.9657  2.3930
  142OSM      N15512   2.058   1.019   6.109  0.2198  0.5473  0.4177
  142OSM    C1515513   2.048   1.171   6.121 -0.2104  0.6185 -0.3110
  142OSM   H15A15514   1.986   1.200   6.037  1.2833 -0.4384 -1.8180
  142OSM   H15B15515   2.148   1.211   6.113 -0.1032  0.3039 -0.6212
  142OSM   H15C15516   1.997   1.200   6.211  2.4786  3.1514  0.4579
  142OSM    C1415517   2.050   0.994   5.960  0.5659  0.4253 -0.2670
  142OSM   H14A15518   2.143   1.022   5.913 -0.0328 -2.6672 -3.5145
  142OSM   H14B15519   1.964   1.051   5.927 -0.2308  0.6463  2.1352
  142OSM   H14C15520   2.028   0.890   5.941 -0.0647  0.9087 -2.3111
  142OSM    C1315521   2.193   0.982   6.151  0.0590 -0.2895 -0.2287
  142OSM   H13A15522   2.211   1.015   6.253 -1.3897  0.5130 -0.2144
  142OSM   H13B15523   2.267   1.031   6.090 -0.9348  0.1330 -1.0975
  142OSM   H13C15524   2.207   0.875   6.141 -2.5555 -0.5815 -1.2070
  142OSM    C1215525   1.945   0.944   6.175  0.2963  0.4904 -0.2866
  142OSM   H12A15526   1.952   0.836   6.169  0.3587  0.5025 -0.4423
  142OSM   H12B15527   1.852   0.972   6.127  1.1231  2.1481 -0.9676
  142OSM    C1115528   1.935   0.987   6.322  0.5724  0.3618  0.4302
  142OSM   H11A15529   2.035   0.980   6.370  1.1204  0.4766 -0.6700
  142OSM   H11B15530   1.869   0.914   6.374  0.3835 -0.3758 -0.7981
  142OSM      P15531   1.733   1.149   6.377 -0.1283  0.1265 -0.1891
  142OSM    O1315532   1.711   1.298   6.373  0.4945 -0.4842 -0.4218
  142OSM    O1415533   1.644   1.071   6.296  0.8799 -0.5947  0.4309
  142OSM    O1115534   1.725   1.104   6.522  0.3098 -0.0236  0.3767
  142OSM    O1215535   1.890   1.122   6.339 -0.1301 -0.0566  0.2901
  142OSM    C1S15536   1.820   1.152   6.618 -0.7491 -0.1429  0.4556
  142OSM    H1S15537   1.810   1.262   6.634 -2.7205  0.2081 -2.8630
  142OSM    H1T15538   1.924   1.128   6.587 -0.2079  1.0029  1.3466
  142OSM     NF15539   1.895   1.151   6.849 -0.0797  0.9180  0.1914
  142OSM    HNF15540   1.951   1.085   6.899  0.0117  0.4682 -0.4928
  142OSM    C2S15541   1.792   1.098   6.760 -0.8759  0.1805 -0.1506
  142OSM    H2S15542   1.703   1.158   6.790 -0.1569  2.3236 -2.1481
  142OSM    C3S15543   1.767   0.945   6.770  0.3153 -0.4704 -0.7191
  142OSM    H3S15544   1.865   0.896   6.748  0.6053  0.3811 -1.3741
  142OSM     O315545   1.676   0.895   6.667 -0.0519  0.1916 -0.9035
  142OSM    HO315546   1.640   0.973   6.623  0.7865  2.1527  1.7861
  142OSM    C4S15547   1.721   0.916   6.916 -0.2911 -0.1899  0.2345
  142OSM    H4S15548   1.795   0.920   6.997  0.6581  0.3358 -0.6541
  142OSM    C5S15549   1.597   0.874   6.956 -0.0868  0.1617  0.0824
  142OSM    H5S15550   1.514   0.862   6.886  1.2304 -0.2340 -1.4480
  142OSM    C6S15551   1.548   0.840   7.094  0.3567  0.3425 -0.4727
  142OSM    H6S15552   1.545   0.732   7.120 -0.6053  0.9619  2.1522
  142OSM    H6T15553   1.442   0.871   7.102  0.9002  1.6645  2.3752
  142OSM    C7S15554   1.636   0.903   7.204 -0.0793 -0.3181  0.2538
  142OSM    H7S15555   1.641   1.014   7.201 -0.7430 -0.2703  0.7718
  142OSM    H7T15556   1.738   0.860   7.201 -0.3638 -1.0568  1.0239
  142OSM    C8S15557   1.594   0.879   7.349 -0.1693 -0.0478  0.5850
  142OSM    H8S15558   1.603   0.770   7.367  1.2425  0.1598  1.1735
  142OSM    H8T15559   1.489   0.917   7.354 -0.4469 -0.7811  0.4773
  142OSM    C9S15560   1.682   0.947   7.442  0.1227  0.4730 -0.6643
  142OSM    H9S15561   1.710   1.049   7.409  0.4627 -0.0107 -1.8932
  142OSM    H9T15562   1.770   0.878   7.445  0.7358  1.2944  0.3838
  142OSM   C10S15563   1.609   0.966   7.584  0.7099  0.3909  0.0029
  142OSM   H10S15564   1.553   0.874   7.612  1.2922  0.0371  0.0227
  142OSM   H10T15565   1.541   1.053   7.577 -0.7262 -0.5818  1.7053
  142OSM   C11S15566   1.712   0.994   7.695  0.1204  0.4489  0.3522
  142OSM   H11S15567   1.734   1.103   7.683 -0.4522  0.2759 -2.6332
  142OSM   H11T15568   1.804   0.943   7.660  0.0430  0.2709  0.4117
  142OSM   C12S15569   1.660   0.961   7.836  0.5127 -0.2227  0.3387
  142OSM   H12S15570   1.653   0.852   7.858  0.0918 -0.0729  0.9573
  142OSM   H12T15571   1.563   1.014   7.845  0.5028 -0.2212  0.2299
  142OSM   C13S15572   1.756   1.012   7.947 -0.5201  0.3309  0.0863
  142OSM   H13S15573   1.768   1.121   7.932  0.5130  0.3758  1.1621
  142OSM   H13T15574   1.857   0.968   7.930  0.1191  0.8732  2.3352
  142OSM   C14S15575   1.719   0.984   8.093 -0.0848  0.3431 -0.5136
  142OSM   H14S15576   1.778   1.046   8.164 -2.5990  0.1778  1.7822
  142OSM   H14T15577   1.736   0.878   8.123  1.8452  0.5978 -0.6397
  142OSM   C15S15578   1.572   1.015   8.129 -0.6857  0.3877 -0.6154
  142OSM   H15S15579   1.507   0.956   8.061 -0.7723  0.0827 -0.2638
  142OSM   H15T15580   1.564   1.122   8.099 -3.0690  0.4478  0.1271
  142OSM   C16S15581   1.533   0.990   8.276  0.5050  0.3602  0.5234
  142OSM   H16S15582   1.449   1.058   8.300 -0.9093 -1.0104 -0.4967
  142OSM   H16T15583   1.618   1.008   8.346  2.5192 -0.2040 -1.7340
  142OSM   C17S15584   1.495   0.849   8.299  0.5338 -0.0436 -0.1524
  142OSM   H17S15585   1.584   0.784   8.283 -0.2525 -1.0991 -0.3160
  142OSM   H17T15586   1.426   0.809   8.221  0.8697  1.3341 -1.1610
  142OSM   C18S15587   1.431   0.827   8.439 -0.4182 -0.1076 -0.1534
  142OSM   H18S15588   1.338   0.888   8.440  0.5780  1.4731 -1.0811
  142OSM   H18T15589   1.502   0.849   8.522 -2.2978  0.4623  1.3140
  142OSM   H18U15590   1.386   0.727   8.457 -1.1090  0.3679  0.8001
  142OSM    C1F15591   1.932   1.276   6.858  0.4981  0.3118 -0.1466
  142OSM     OF15592   1.865   1.374   6.836  0.3929  0.2823  0.1395
  142OSM    C2F15593   2.056   1.292   6.935  0.3334 -0.5084 -0.0374
  142OSM    H2F15594   2.131   1.350   6.878  0.8276 -0.6342  0.4723
  142OSM    H2G15595   2.116   1.204   6.965 -0.3803 -1.5241 -1.5568
  142OSM    C3F15596   2.037   1.380   7.055 -0.0197  0.4372  0.4532
  142OSM    H3F15597   1.985   1.475   7.032 -1.0666 -0.0535  0.7324
  142OSM    H3G15598   2.135   1.413   7.095 -0.8284  2.7546  0.5541
  142OSM    C4F15599   1.954   1.310   7.173  0.0996 -1.1830  0.3979
  142OSM    H4F15600   2.007   1.217   7.205 -2.5897 -2.1834  2.1513
  142OSM    H4G15601   1.855   1.281   7.132 -0.5121  1.3132  0.0258
  142OSM    C5F15602   1.931   1.414   7.281  0.4592 -0.6594 -1.2371
  142OSM    H5F15603   1.857   1.488   7.245  0.1551  0.3834  1.4149
  142OSM    H5G15604   2.025   1.473   7.292  0.0806 -0.2357 -0.1911
  142OSM    C6F15605   1.894   1.348   7.414  0.4125  0.1057 -0.4777
  142OSM    H6F15606   1.940   1.247   7.427 -1.2736 -0.4040  1.9691
  142OSM    H6G15607   1.783   1.334   7.417  0.3174  1.0041  0.7639
  142OSM    C7F15608   1.938   1.433   7.534 -0.4188 -0.4657 -0.3462
  142OSM    H7F15609   1.882   1.528   7.528 -1.1588 -0.8305  0.8418
  142OSM    H7G15610   2.047   1.456   7.525  0.2531 -3.3127  0.1404
  142OSM    C8F15611   1.914   1.343   7.662  0.0685  0.3514 -0.1034
  142OSM    H8F15612   1.962   1.243   7.655  1.5281  0.9893  0.6013
  142OSM    H8G15613   1.806   1.317   7.665 -0.3620  2.1363  0.6865
  142OSM    C9F15614   1.970   1.406   7.787 -0.1517  0.4242 -0.1998
  142OSM    H9F15615   2.069   1.373   7.821 -0.8019 -1.4311 -0.0598
  142OSM   C10F15616   1.896   1.478   7.873  0.3262 -0.5280 -0.1154
  142OSM   H10F15617   1.947   1.514   7.964 -0.9239 -0.1362  0.4339
  142OSM   C11F15618   1.757   1.525   7.860 -0.0999 -0.4588  0.1564
  142OSM   H11F15619   1.721   1.516   7.756 -1.1295 -1.0497  0.5615
  142OSM   H11G15620   1.760   1.635   7.873 -1.4076 -0.5965  1.6949
  142OSM   C12F15621   1.664   1.465   7.968 -0.3053 -0.6086 -0.8837
  142OSM   H12F15622   1.657   1.357   7.942 -1.3790 -1.0878  1.3330
  142OSM   H12G15623   1.566   1.515   7.953  0.0185  0.9032  1.7442
  142OSM   C13F15624   1.706   1.478   8.111 -0.6026  0.5156 -0.0810
  142OSM   H13F15625   1.708   1.587   8.133 -1.7810  0.9295 -1.9189
  142OSM   H13G15626   1.811   1.442   8.114 -1.0349 -0.7346  1.0522
  142OSM   C14F15627   1.639   1.409   8.233 -0.1740  0.0989  0.0733
  142OSM   H14F15628   1.666   1.302   8.225 -3.1396 -0.6962  0.0596
  142OSM   H14G15629   1.530   1.432   8.233  0.0813  1.4992 -1.8044
  142OSM   C15F15630   1.680   1.463   8.367 -0.1971  0.1163  0.0380
  142OSM   H15F15631   1.660   1.572   8.360  0.4010  0.1391 -1.5966
  142OSM   H15G15632   1.790   1.447   8.370 -0.0775  0.7908 -0.4447
  142OSM   C16F15633   1.610   1.405   8.493 -0.1151  0.2791 -0.2304
  142OSM   H16F15634   1.669   1.446   8.578 -1.8635 -1.0749  1.7029
  142OSM   H16G15635   1.620   1.295   8.499 -0.5561  0.3391  2.0267
  142OSM   C17F15636   1.464   1.452   8.486 -0.5444 -0.4847  0.3275
  142OSM   H17F15637   1.399   1.374   8.442 -3.5646  0.8779  2.2210
  142OSM   H17G15638   1.462   1.534   8.411  1.4301 -0.3751  0.3545
  142OSM   C18F15639   1.404   1.486   8.622  0.4320 -0.4468  0.4722
  142OSM   H18F15640   1.471   1.547   8.686  0.9632 -0.7049  0.1761
  142OSM   H18G15641   1.384   1.392   8.678 -5.6694  1.3569  1.6007
  142OSM   H18H15642   1.306   1.535   8.606  0.6827 -0.0395  0.1508
  143OSM      N15643   4.195   3.620   6.050  0.1323 -0.2520  1.1717
  143OSM    C1515644   4.133   3.753   6.082 -0.1135 -0.0116 -0.0581
  143OSM   H15A15645   4.045   3.741   6.144 -1.7608  0.3944 -2.2178
  143OSM   H15B15646   4.109   3.796   5.985  2.1128  0.1379 -0.5568
  143OSM   H15C15647   4.205   3.811   6.136  1.1884  0.4932 -2.2635
  143OSM    C1415648   4.099   3.549   5.956  0.2991  0.0346 -0.2266
  143OSM   H14A15649   4.071   3.606   5.868  1.5134  2.5333  0.9522
  143OSM   H14B15650   4.014   3.518   6.014 -1.3316 -0.3977 -2.7652
  143OSM   H14C15651   4.153   3.457   5.941 -0.1643 -0.6022  1.8902
  143OSM    C1315652   4.329   3.651   5.989 -0.3816  0.0541  0.0549
  143OSM   H13A15653   4.317   3.700   5.893 -1.1933  0.0413  0.1414
  143OSM   H13B15654   4.379   3.556   5.977 -4.3997 -1.9310 -2.2285
  143OSM   H13C15655   4.381   3.718   6.056 -1.6176 -0.5109  1.6012
  143OSM    C1215656   4.206   3.543   6.174  0.2770  0.0670  0.1576
  143OSM   H12A15657   4.258   3.606   6.245 -0.3589  0.1925  0.5158
  143OSM   H12B15658   4.269   3.456   6.163 -0.7755 -0.4794 -1.7380
  143OSM    C1115659   4.073   3.492   6.239  0.0028 -0.8711  1.6684
  143OSM   H11A15660   4.105   3.431   6.326  0.4772 -1.7052  0.9070
  143OSM   H11B15661   4.022   3.425   6.167 -2.2697  2.5952 -0.0588
  143OSM      P15662   3.829   3.589   6.248 -0.0597  0.2162  0.0157
  143OSM    O1315663   3.762   3.709   6.297  0.0233  0.2855 -0.6512
  143OSM    O1415664   3.803   3.562   6.100 -0.3635 -0.3880  0.0543
  143OSM    O1115665   3.784   3.455   6.325  0.5438 -0.0132  0.0390
  143OSM    O1215666   3.980   3.596   6.293 -0.2321  0.3778 -0.4361
  143OSM    C1S15667   3.814   3.425   6.459 -0.3835  0.8554  0.6312
  143OSM    H1S15668   3.895   3.486   6.504 -0.3533  0.1270  1.5779
  143OSM    H1T15669   3.847   3.318   6.460  1.4797  1.3726 -1.4887
  143OSM     NF15670   3.743   3.391   6.681 -1.0500  0.1068  0.2338
  143OSM    HNF15671   3.731   3.299   6.719  2.7794 -0.7812 -0.4733
  143OSM    C2S15672   3.691   3.430   6.547 -0.2259 -0.0727  0.7966
  143OSM    H2S15673   3.662   3.537   6.539  0.8361  0.1266 -0.6310
  143OSM    C3S15674   3.565   3.348   6.496  0.4208 -0.5882  0.6043
  143OSM    H3S15675   3.602   3.244   6.482  1.2270 -0.3840  1.1881
  143OSM     O315676   3.514   3.398   6.372  0.2741  0.2888  0.3481
  143OSM    HO315677   3.587   3.434   6.322 -0.2029  2.2988  1.0524
  143OSM    C4S15678   3.458   3.345   6.599  0.0029  0.1690 -0.1429
  143OSM    H4S15679   3.408   3.443   6.607  0.3728  0.4192 -0.8718
  143OSM    C5S15680   3.439   3.244   6.684 -0.3878 -0.0850  0.0505
  143OSM    H5S15681   3.496   3.154   6.658 -0.4248 -0.2558  0.5562
  143OSM    C6S15682   3.329   3.232   6.786  0.2739 -0.1079 -0.9086
  143OSM    H6S15683   3.274   3.138   6.762  0.1910 -0.5932  1.1232
  143OSM    H6T15684   3.263   3.317   6.760 -1.0540 -1.5099 -2.1907
  143OSM    C7S15685   3.393   3.237   6.919  0.2721  0.4842 -0.7367
  143OSM    H7S15686   3.309   3.224   6.990  0.3179  1.8466 -0.4132
  143OSM    H7T15687   3.442   3.336   6.936 -1.2361  0.9801  0.8747
  143OSM    C8S15688   3.506   3.130   6.950  0.1572  0.0694 -0.2189
  143OSM    H8S15689   3.598   3.157   6.894  0.1157 -0.0276 -0.3354
  143OSM    H8T15690   3.480   3.034   6.901 -1.0698 -0.3515  1.2028
  143OSM    C9S15691   3.530   3.112   7.095 -0.2612  0.3435  0.3772
  143OSM    H9S15692   3.434   3.082   7.144  0.8146 -2.6902  0.7273
  143OSM    H9T15693   3.557   3.213   7.134  1.8774 -0.0810  0.0612
  143OSM   C10S15694   3.630   2.997   7.120 -0.1607 -0.0727 -0.2865
  143OSM   H10S15695   3.729   3.035   7.089  0.6503 -1.0973  1.0297
  143OSM   H10T15696   3.601   2.916   7.048  1.9455 -1.5897  0.5330
  143OSM   C11S15697   3.632   2.934   7.258 -0.5993  0.2649  0.0230
  143OSM   H11S15698   3.674   2.832   7.246  0.1793  0.3676  1.7284
  143OSM   H11T15699   3.530   2.943   7.300 -0.5644  0.9455 -0.0307
  143OSM   C12S15700   3.722   3.012   7.363 -0.2607  0.4048  0.7240
  143OSM   H12S15701   3.700   3.119   7.381 -1.4416  0.1391  0.9140
  143OSM   H12T15702   3.821   2.998   7.314 -0.0684 -3.3865  1.9845
  143OSM   C13S15703   3.728   2.929   7.488 -0.8235  0.2053 -0.3239
  143OSM   H13S15704   3.822   2.947   7.543 -3.3002  2.1102  3.5180
  143OSM   H13T15705   3.744   2.825   7.454  1.1270  0.1728  0.6295
  143OSM   C14S15706   3.604   2.953   7.573  0.1405 -0.3230 -0.1736
  143OSM   H14S15707   3.515   2.934   7.509 -1.4783 -1.1479  2.2905
  143OSM   H14T15708   3.606   3.058   7.610  0.8666 -0.6803  0.8082
  143OSM   C15S15709   3.590   2.865   7.692 -0.2561 -0.5928  0.2837
  143OSM   H15S15710   3.568   2.763   7.653  0.7894 -1.1611  1.1355
  143OSM   H15T15711   3.506   2.894   7.757 -0.4785 -2.6797  0.9641
  143OSM   C16S15712   3.712   2.859   7.785 -0.2045  0.0595 -0.6692
  143OSM   H16S15713   3.792   2.805   7.729 -0.2710 -1.1103  0.3541
  143OSM   H16T15714   3.698   2.795   7.874  2.2089 -0.0227 -0.3244
  143OSM   C17S15715   3.760   3.003   7.827  0.5842  0.3106 -0.1249
  143OSM   H17S15716   3.677   3.053   7.883 -0.4480 -0.7112 -0.7163
  143OSM   H17T15717   3.796   3.052   7.734  0.0233 -0.3027 -0.6737
  143OSM   C18S15718   3.869   2.997   7.934 -0.3787 -0.4350  0.6788
  143OSM   H18S15719   3.957   2.950   7.886 -1.6596 -1.3849 -0.7753
  143OSM   H18T15720   3.838   2.947   8.028  1.3613 -3.2998 -0.2287
  143OSM   H18U15721   3.902   3.102   7.954 -0.2165 -0.6689  1.6810
  143OSM    C1F15722   3.839   3.461   6.750 -0.2825  0.5932 -0.0610
  143OSM     OF15723   3.881   3.571   6.723  0.4835 -0.3034 -0.0028
  143OSM    C2F15724   3.901   3.376   6.863 -0.2396  0.3671  0.6432
  143OSM    H2F15725   4.006   3.357   6.832 -1.3215 -1.3458 -2.1570
  143OSM    H2G15726   3.850   3.277   6.861  0.2327  0.1363 -0.5794
  143OSM    C3F15727   3.891   3.449   6.994  0.3666 -0.5091 -0.7295
  143OSM    H3F15728   3.786   3.433   7.026  0.7803  0.3688  1.1085
  143OSM    H3G15729   3.906   3.559   6.994  0.1360 -0.4795  0.3793
  143OSM    C4F15730   3.976   3.383   7.102 -0.6668  0.3565  0.2737
  143OSM    H4F15731   4.084   3.408   7.096 -0.4458 -0.6046  0.2914
  143OSM    H4G15732   3.959   3.274   7.108 -0.5069  0.3258  0.1587
  143OSM    C5F15733   3.937   3.432   7.246 -0.3255  0.4080 -0.3609
  143OSM    H5F15734   3.827   3.421   7.248 -0.1483 -1.7739 -1.2717
  143OSM    H5G15735   3.952   3.541   7.256 -1.4624  0.6418 -1.1970
  143OSM    C6F15736   3.986   3.344   7.365 -0.4915  0.3752 -0.0454
  143OSM    H6F15737   4.096   3.329   7.357 -0.1521  2.0533  1.1200
  143OSM    H6G15738   3.943   3.244   7.345 -1.7864  0.3591  2.5725
  143OSM    C7F15739   3.931   3.379   7.504 -0.1416 -0.2404 -0.5136
  143OSM    H7F15740   3.822   3.395   7.503  0.1028  1.6285  1.1492
  143OSM    H7G15741   3.978   3.474   7.536 -2.7877  0.8973  0.0591
  143OSM    C8F15742   3.973   3.273   7.606 -0.1302 -0.3081  0.0685
  143OSM    H8F15743   4.084   3.265   7.604 -0.1614 -1.0930  1.1415
  143OSM    H8G15744   3.932   3.174   7.577  2.8290 -1.4442 -0.4263
  143OSM    C9F15745   3.921   3.319   7.743  0.2621 -0.8142  0.0419
  143OSM    H9F15746   3.813   3.310   7.761  0.1005  0.0290 -0.4424
  143OSM   C10F15747   3.993   3.364   7.846  0.6542 -0.3618 -0.5409
  143OSM   H10F15748   3.938   3.377   7.941 -0.6741 -1.0895 -1.2037
  143OSM   C11F15749   4.143   3.365   7.856  0.2564 -0.2754 -0.2346
  143OSM   H11F15750   4.181   3.452   7.798  1.6352 -0.6163  0.1174
  143OSM   H11G15751   4.187   3.270   7.819  0.3783  0.0042 -0.8149
  143OSM   C12F15752   4.200   3.378   8.004 -0.0265 -0.5404  0.2376
  143OSM   H12F15753   4.159   3.477   8.032 -1.9361 -0.7997 -1.5297
  143OSM   H12G15754   4.311   3.378   8.003 -0.0016  1.8060  0.6009
  143OSM   C13F15755   4.144   3.287   8.122 -0.1808  0.3158 -0.1700
  143OSM   H13F15756   4.168   3.181   8.097  1.8630 -0.0848  3.2111
  143OSM   H13G15757   4.033   3.294   8.118 -0.1818 -0.1350 -1.2889
  143OSM   C14F15758   4.194   3.323   8.260 -0.4283  0.6995 -0.2823
  143OSM   H14F15759   4.193   3.434   8.272 -3.1887  0.6186  0.5168
  143OSM   H14G15760   4.300   3.292   8.266 -0.0345  2.1328  0.4833
  143OSM   C15F15761   4.114   3.272   8.383 -0.4718  0.1157  0.6995
  143OSM   H15F15762   4.020   3.331   8.390 -1.8551 -2.1845  2.5821
  143OSM   H15G15763   4.170   3.299   8.475  0.3595 -0.6847  0.4314
  143OSM   C16F15764   4.085   3.119   8.382  0.3975 -0.4303 -0.2893
  143OSM   H16F15765   4.176   3.056   8.384  0.0100 -1.1243 -2.5174
  143OSM   H16G15766   4.039   3.099   8.282  0.2295 -2.3805  0.1591
  143OSM   C17F15767   3.993   3.069   8.491  0.3790  0.5351 -0.1631
  143OSM   H17F15768   3.943   2.976   8.455 -1.4764  1.5366 -0.2618
  143OSM   H17G15769   3.914   3.145   8.505 -1.9005 -1.7560 -0.1967
  143OSM   C18F15770   4.068   3.029   8.615 -0.3208 -0.9178 -0.1575
  143OSM   H18F15771   4.148   3.102   8.642  0.5232 -1.2664 -1.6611
  143OSM   H18G15772   4.120   2.930   8.614 -0.1612 -0.8307 -0.7527
  143OSM   H18H15773   4.002   3.033   8.704 -0.8725 -3.8671 -0.3849
  144OSM      N15774   3.195   2.494   6.107  1.0633 -0.3762  1.0364
  144OSM    C1515775   3.246   2.376   6.033 -0.5403  0.4570  0.6383
  144OSM   H15A15776   3.297   2.394   5.939  1.3811  0.8854  1.7284
  144OSM   H15B15777   3.162   2.311   6.014  0.0928 -0.2521  0.1740
  144OSM   H15C15778   3.303   2.317   6.103 -1.8755  1.0932  2.2879
  144OSM    C1415779   3.303   2.591   6.133  0.1810  0.0161 -0.2020
  144OSM   H14A15780   3.259   2.675   6.185 -0.6875  0.6652 -1.9251
  144OSM   H14B15781   3.352   2.627   6.044 -0.4997  1.9437  0.1923
  144OSM   H14C15782   3.374   2.547   6.201  0.1253 -1.6175 -1.1590
  144OSM    C1315783   3.077   2.552   6.031 -0.0549  0.1055 -0.2708
  144OSM   H13A15784   3.093   2.573   5.927  2.2496 -1.8391 -0.3661
  144OSM   H13B15785   3.045   2.644   6.077  1.5262  0.9900 -0.8997
  144OSM   H13C15786   2.995   2.482   6.034  0.7149 -0.8381 -0.8954
  144OSM    C1215787   3.133   2.448   6.240 -0.1688 -0.3571  0.1417
  144OSM   H12A15788   3.214   2.400   6.293 -1.0246 -1.2685  0.6381
  144OSM   H12B15789   3.065   2.365   6.230 -0.7992 -0.2814  3.3401
  144OSM    C1115790   3.074   2.554   6.337 -0.0303 -0.7841 -0.3546
  144OSM   H11A15791   3.149   2.635   6.341 -0.3860 -0.4656 -0.1424
  144OSM   H11B15792   3.050   2.522   6.441  0.0701  1.1758  0.2841
  144OSM      P15793   2.819   2.511   6.301  0.2533 -0.0513 -0.2753
  144OSM    O1315794   2.693   2.581   6.268 -0.0809  0.1324 -0.2603
  144OSM    O1415795   2.838   2.383   6.230 -0.1524  0.2340 -0.2127
  144OSM    O1115796   2.810   2.481   6.454 -0.9701  0.0242 -0.7702
  144OSM    O1215797   2.952   2.604   6.285  0.2071 -0.1132 -0.3641
  144OSM    C1S15798   2.783   2.577   6.554  0.4340 -0.3506 -0.0549
  144OSM    H1S15799   2.678   2.605   6.535  0.7210 -0.2347 -1.4756
  144OSM    H1T15800   2.857   2.660   6.548 -1.5887  1.3736 -1.4804
  144OSM     NF15801   2.752   2.623   6.787  0.5409  0.7762  1.0667
  144OSM    HNF15802   2.826   2.653   6.847  0.8155  3.8158 -0.6747
  144OSM    C2S15803   2.780   2.512   6.697  0.0234 -0.7852 -0.3281
  144OSM    H2S15804   2.696   2.439   6.698 -1.4799  0.9176  1.0332
  144OSM    C3S15805   2.911   2.448   6.737 -0.3414 -0.2827 -0.7793
  144OSM    H3S15806   2.999   2.512   6.716  1.4529 -1.0417  3.7783
  144OSM     O315807   2.937   2.333   6.656 -0.3430 -0.2455 -0.0243
  144OSM    HO315808   2.868   2.340   6.589 -1.2607 -1.1013  0.8121
  144OSM    C4S15809   2.916   2.404   6.888 -0.0695  0.0149  0.5744
  144OSM    H4S15810   2.836   2.332   6.911  1.0002 -0.6618  2.2749
  144OSM    C5S15811   2.991   2.459   6.986 -0.0530 -0.3670 -0.4280
  144OSM    H5S15812   3.052   2.547   6.964  0.8968 -0.8106  0.4218
  144OSM    C6S15813   2.985   2.434   7.135  0.0804  0.8187  0.5139
  144OSM    H6S15814   3.081   2.467   7.182 -0.0612  1.8052  0.1174
  144OSM    H6T15815   2.956   2.328   7.155 -3.4363  1.1282 -2.5362
  144OSM    C7S15816   2.868   2.506   7.214 -0.7054  0.0884 -0.4994
  144OSM    H7S15817   2.773   2.454   7.188  0.4273 -2.2531 -0.1113
  144OSM    H7T15818   2.866   2.609   7.171 -0.5240 -0.0707 -0.8908
  144OSM    C8S15819   2.880   2.511   7.363 -0.8634 -0.0529 -0.7156
  144OSM    H8S15820   2.950   2.594   7.388 -2.2500 -0.0866  3.6739
  144OSM    H8T15821   2.907   2.409   7.396  0.0623  0.1325 -0.8969
  144OSM    C9S15822   2.752   2.550   7.435  0.5907 -0.8939 -0.2325
  144OSM    H9S15823   2.694   2.458   7.459 -1.0800  0.3090  0.5381
  144OSM    H9T15824   2.686   2.609   7.368  0.0344 -2.5420 -1.1736
  144OSM   C10S15825   2.766   2.619   7.570 -0.5483  0.2095 -0.2610
  144OSM   H10S15826   2.662   2.638   7.606 -1.5409 -1.7157 -1.9787
  144OSM   H10T15827   2.813   2.719   7.558 -0.8128  0.4603  0.7129
  144OSM   C11S15828   2.850   2.530   7.661  0.1280  0.0988  0.4975
  144OSM   H11S15829   2.949   2.496   7.623  0.7414  1.0675  1.2308
  144OSM   H11T15830   2.800   2.430   7.656 -0.8397  0.6067 -0.1999
  144OSM   C12S15831   2.858   2.568   7.807 -0.1575  0.1140 -0.1378
  144OSM   H12S15832   2.874   2.678   7.808 -1.7638  0.4016 -2.2084
  144OSM   H12T15833   2.952   2.532   7.854  0.7452  2.4995 -0.0471
  144OSM   C13S15834   2.737   2.524   7.887  0.4866 -0.4133 -0.0797
  144OSM   H13S15835   2.735   2.413   7.895 -1.7967 -0.3363  0.7622
  144OSM   H13T15836   2.651   2.575   7.839 -0.4900  0.9408  2.9530
  144OSM   C14S15837   2.727   2.584   8.031 -0.3281  0.7046 -0.2361
  144OSM   H14S15838   2.766   2.688   8.033  1.6589  0.0290 -1.6614
  144OSM   H14T15839   2.796   2.520   8.091 -1.3447 -0.1430  0.0466
  144OSM   C15S15840   2.576   2.601   8.082  0.1603 -0.0089 -0.4695
  144OSM   H15S15841   2.529   2.501   8.095 -0.0741 -0.3165 -3.4234
  144OSM   H15T15842   2.514   2.651   8.005 -0.6252 -1.5074 -0.8397
  144OSM   C16S15843   2.566   2.675   8.215 -0.1715 -0.0073 -0.0153
  144OSM   H16S15844   2.587   2.784   8.209 -1.5867  0.1631 -3.1717
  144OSM   H16T15845   2.635   2.623   8.285  0.7005 -0.6864 -1.3538
  144OSM   C17S15846   2.430   2.650   8.281  0.2532  0.2535  0.4448
  144OSM   H17S15847   2.403   2.543   8.275 -1.4826  0.7196 -0.3364
  144OSM   H17T15848   2.353   2.702   8.220  1.3641  2.2739  0.7058
  144OSM   C18S15849   2.415   2.693   8.428  0.2121  0.6288  0.0727
  144OSM   H18S15850   2.426   2.800   8.455 -0.1656  0.3175  1.5034
  144OSM   H18T15851   2.490   2.638   8.489  0.4359  0.1928 -0.5897
  144OSM   H18U15852   2.311   2.664   8.454  0.9947 -0.3700  2.2436
  144OSM    C1F15853   2.625   2.673   6.794  0.0721  0.5824 -0.2715
  144OSM     OF15854   2.531   2.623   6.733  0.5742 -0.4442 -0.3495
  144OSM    C2F15855   2.601   2.798   6.880 -0.2169 -0.0103  0.0892
  144OSM    H2F15856   2.490   2.803   6.894 -0.1532 -0.9903  1.0567
  144OSM    H2G15857   2.636   2.884   6.820  0.6524  0.6172  1.4913
  144OSM    C3F15858   2.654   2.778   7.022 -0.4482 -0.1021  0.6219
  144OSM    H3F15859   2.765   2.786   7.022 -0.5085  1.5244 -2.6337
  144OSM    H3G15860   2.632   2.675   7.057  0.8000 -0.4351  0.4292
  144OSM    C4F15861   2.603   2.887   7.113  0.1819 -0.2760  0.4499
  144OSM    H4F15862   2.492   2.891   7.115  0.0561 -2.6136 -0.6541
  144OSM    H4G15863   2.638   2.988   7.083 -2.0517  0.3325 -0.1691
  144OSM    C5F15864   2.642   2.862   7.265  0.6166  0.1645  0.1924
  144OSM    H5F15865   2.738   2.807   7.259  0.9959  0.8892 -0.5080
  144OSM    H5G15866   2.572   2.789   7.312  1.1640  0.0894  0.8830
  144OSM    C6F15867   2.621   2.987   7.355 -0.3987  0.4353  0.6757
  144OSM    H6F15868   2.523   3.038   7.343 -0.9140 -0.6921 -0.0218
  144OSM    H6G15869   2.703   3.056   7.322  0.6120 -1.2682 -0.4522
  144OSM    C7F15870   2.654   2.972   7.502 -0.3266  0.6294 -0.1611
  144OSM    H7F15871   2.685   3.073   7.534 -0.2608  1.3150 -2.3183
  144OSM    H7G15872   2.744   2.907   7.500 -0.0904  0.8056  2.5823
  144OSM    C8F15873   2.544   2.902   7.586  0.2728 -0.1103  0.5813
  144OSM    H8F15874   2.577   2.861   7.685 -1.2112  0.4909  1.3370
  144OSM    H8G15875   2.511   2.818   7.522  0.7827  0.1215  0.0159
  144OSM    C9F15876   2.428   2.995   7.608  0.0278  0.0743  0.0420
  144OSM    H9F15877   2.354   2.985   7.526 -0.4466  3.1066  0.0592
  144OSM   C10F15878   2.398   3.073   7.709 -0.3491  0.1339  0.0030
  144OSM   H10F15879   2.304   3.129   7.724 -0.3046 -0.0308  0.9442
  144OSM   C11F15880   2.482   3.078   7.829  0.7930 -0.3171  0.3283
  144OSM   H11F15881   2.482   3.181   7.871  0.0544 -0.8727  1.7132
  144OSM   H11G15882   2.589   3.072   7.799  1.3913  0.6825  2.1535
  144OSM   C12F15883   2.452   2.969   7.925  0.7563 -0.1686 -0.2122
  144OSM   H12F15884   2.530   2.971   8.004 -1.6995  1.1938  2.2497
  144OSM   H12G15885   2.460   2.863   7.890  1.5069  0.0974 -0.8530
  144OSM   C13F15886   2.333   2.999   8.015 -0.0998  0.4677  0.7689
  144OSM   H13F15887   2.330   3.101   8.060 -0.6646  0.6873  0.2315
  144OSM   H13G15888   2.334   2.932   8.104 -0.8447  1.0586  1.2221
  144OSM   C14F15889   2.191   2.982   7.951 -0.0336 -0.1582 -0.2511
  144OSM   H14F15890   2.187   2.887   7.895  2.5779 -0.3377 -0.1979
  144OSM   H14G15891   2.178   3.062   7.874 -0.4739  0.5341  0.5247
  144OSM   C15F15892   2.072   3.001   8.044  0.7232  0.1078 -0.0855
  144OSM   H15F15893   1.979   3.014   7.985 -0.2616 -1.5618  1.0532
  144OSM   H15G15894   2.082   3.096   8.101  2.9314 -0.0742 -0.1212
  144OSM   C16F15895   2.040   2.880   8.132  0.1772 -0.6251 -0.0398
  144OSM   H16F15896   2.130   2.841   8.183  0.9071  0.8060 -0.2194
  144OSM   H16G15897   2.011   2.801   8.060  3.0252 -1.5566 -0.2051
  144OSM   C17F15898   1.921   2.897   8.220  0.5003 -0.4236 -0.7363
  144OSM   H17F15899   1.842   2.933   8.151  0.3894  0.5561 -0.0999
  144OSM   H17G15900   1.953   2.981   8.286  0.0900 -0.9521  0.1449
  144OSM   C18F15901   1.888   2.771   8.303 -0.4931  0.2814  0.6937
  144OSM   H18F15902   1.868   2.681   8.241  1.9730  0.9338 -1.1338
  144OSM   H18G15903   1.795   2.789   8.360 -0.8970 -2.4483  0.9666
  144OSM   H18H15904   1.974   2.751   8.370 -2.7225  0.0205  3.5919
  145SAPE     N15905   0.910   3.240  10.765 -0.0780 -0.4314  0.2863
  145SAPE   HN115906   0.974   3.320  10.783 -1.7599  0.6947  1.4519
  145SAPE   HN215907   0.815   3.245  10.808  1.3412  0.1243  3.5022
  145SAPE   HN315908   0.952   3.160  10.817 -0.3676 -1.0625 -0.4350
  145SAPE   C1215909   0.919   3.228  10.614  0.6983 -0.0955  1.4260
  145SAPE  H12A15910   0.861   3.304  10.559 -0.0359  0.4735  2.9533
  145SAPE  H12B15911   0.877   3.128  10.588  0.1728  0.1340  1.3999
  145SAPE   C1115912   1.073   3.241  10.577  0.6902 -0.5283 -0.0048
  145SAPE  H11A15913   1.106   3.342  10.609  3.8786 -0.3827 -3.2882
  145SAPE  H11B15914   1.076   3.228  10.466 -0.2912  1.6960 -0.3215
  145SAPE     P15915   1.316   3.149  10.643 -0.5751  0.0927 -0.3746
  145SAPE   O1315916   1.356   3.272  10.570  0.3991  0.0611  0.5986
  145SAPE   O1415917   1.366   3.129  10.783 -0.1798  0.7819  0.4441
  145SAPE   O1215918   1.156   3.148  10.644  0.5853  0.2361 -0.5232
  145SAPE   O1115919   1.349   3.025  10.554  0.3911  0.1444 -0.2039
  145SAPE    C115920   1.265   2.989  10.442  0.1140  0.4104 -0.0470
  145SAPE    HA15921   1.263   2.878  10.439  1.4557  0.3686  0.5371
  145SAPE    HB15922   1.161   3.023  10.462  0.5866 -0.3669  4.1431
  145SAPE    C215923   1.322   3.043  10.309  0.0231  0.5058  0.4508
  145SAPE    HS15924   1.429   3.017  10.303 -0.1783 -0.1945 -0.2049
  145SAPE   O2115925   1.295   3.186  10.295 -0.1486  0.3257  0.2234
  145SAPE   C2115926   1.395   3.248  10.227 -0.4462 -0.4553  0.0841
  145SAPE   O2215927   1.496   3.199  10.180  0.2671  0.3846  0.3275
  145SAPE   C2215928   1.358   3.398  10.240 -0.0457  0.1429 -0.4899
  145SAPE   H2R15929   1.323   3.407  10.345 -1.0786  0.2487 -0.8405
  145SAPE   H2S15930   1.450   3.459  10.227  0.2032 -0.3647 -1.1368
  145SAPE    C315931   1.264   2.969  10.188 -0.0396 -0.0014  0.5717
  145SAPE    HX15932   1.158   3.001  10.180 -0.4147 -1.3495  0.0431
  145SAPE    HY15933   1.254   2.861  10.209 -1.8011 -0.3992 -2.1617
  145SAPE   O3115934   1.339   2.988  10.066 -0.4720  0.1075  0.2229
  145SAPE   C3115935   1.450   2.924  10.055 -0.0178  0.8231 -0.2962
  145SAPE   O3215936   1.496   2.850  10.140  0.1732 -0.1090  0.1245
  145SAPE   C3215937   1.505   2.963   9.922 -0.0173  0.0688 -0.3887
  145SAPE   H2X15938   1.615   2.978   9.932 -0.3145 -0.0297  4.2604
  145SAPE   H2Y15939   1.460   3.061   9.896  0.4152  0.6336  0.9551
  145SAPE   C2315940   1.257   3.426  10.131  0.4862 -0.5659  0.6481
  145SAPE   H3R15941   1.173   3.354  10.118 -0.9962  1.0498  1.1439
  145SAPE   H3S15942   1.311   3.441  10.035  0.6221  0.2034  0.8415
  145SAPE   C2415943   1.188   3.560  10.170 -0.2543  0.6917  0.5397
  145SAPE   H4R15944   1.172   3.554  10.280 -1.2203 -2.7353  0.2647
  145SAPE   H4S15945   1.088   3.567  10.122  0.5845  0.5534 -1.2678
  145SAPE   C2515946   1.278   3.679  10.132  0.6559 -0.2308  0.3489
  145SAPE   H5R15947   1.331   3.736  10.210  0.3714  0.2196  0.2155
  145SAPE   C2615948   1.296   3.732  10.009 -0.5455  0.6210  0.2925
  145SAPE   H6R15949   1.351   3.828  10.013 -0.2490  0.4524  0.2539
  145SAPE   C2715950   1.213   3.686   9.885  0.1639  0.0321  0.1220
  145SAPE   H7R15951   1.134   3.610   9.903  0.9406 -1.2411 -1.7328
  145SAPE   H7S15952   1.266   3.657   9.792  0.2528  1.0321 -0.1481
  145SAPE   C2815953   1.144   3.809   9.827 -0.3622 -0.8005  0.5761
  145SAPE   H8R15954   1.035   3.812   9.838 -0.2634 -1.9455  1.8749
  145SAPE   C2915955   1.210   3.904   9.757 -0.2699 -0.6558 -0.3824
  145SAPE   H9R15956   1.155   3.998   9.740  2.0543  0.7544 -0.2226
  145SAPE  C21015957   1.356   3.901   9.733 -0.1661  0.5743  0.4507
  145SAPE  H10R15958   1.406   3.802   9.742  1.3110  1.2100 -0.6399
  145SAPE  H10S15959   1.404   3.953   9.819 -1.1690  2.6750 -0.2366
  145SAPE  C21115960   1.379   3.977   9.607  0.0090  0.3324  0.9403
  145SAPE  H11R15961   1.426   4.075   9.618  0.5641  0.3785 -1.4343
  145SAPE  C21215962   1.379   3.923   9.490 -0.0049  0.2852  0.0910
  145SAPE  H12R15963   1.404   3.986   9.403 -0.4491  0.1429 -0.1421
  145SAPE  C21315964   1.331   3.789   9.442  0.2200  0.0979 -0.6804
  145SAPE  H13R15965   1.337   3.720   9.529  0.0604  1.5437  0.5019
  145SAPE  H13S15966   1.408   3.751   9.371  1.6683 -0.0832  0.9637
  145SAPE  C21415967   1.192   3.798   9.390  0.7615 -0.4204 -0.4666
  145SAPE  H14R15968   1.111   3.810   9.463  2.0721 -0.0023  0.9380
  145SAPE  C21515969   1.162   3.761   9.262  0.3229  0.0630 -0.1676
  145SAPE  H15R15970   1.059   3.764   9.223  0.1732 -0.0375  0.2165
  145SAPE  C21615971   1.261   3.727   9.154 -0.2865  0.0959  0.4028
  145SAPE  H16R15972   1.226   3.636   9.100  1.0588 -0.8504  1.0841
  145SAPE  H16S15973   1.358   3.703   9.202 -0.0395  0.5950  0.1551
  145SAPE  C21715974   1.275   3.832   9.041  0.5816 -0.3520  0.2143
  145SAPE  H17R15975   1.172   3.864   9.016  0.4652  0.0690  1.2195
  145SAPE  H17S15976   1.323   3.782   8.954 -2.5539  0.3509 -1.9784
  145SAPE  C21815977   1.347   3.956   9.093  0.8050 -0.2329  0.6183
  145SAPE  H18R15978   1.451   3.934   9.124  0.4903 -2.1965  0.2942
  145SAPE  H18S15979   1.291   3.996   9.181 -0.7221  1.0605 -0.8840
  145SAPE  C21915980   1.359   4.072   8.993 -0.0326  0.0321 -0.3486
  145SAPE  H19R15981   1.410   4.156   9.044 -1.5872  0.7533  0.0710
  145SAPE  H19S15982   1.254   4.104   8.973  0.5493  0.7813 -2.2942
  145SAPE  C22015983   1.426   4.035   8.858 -0.6366  0.4354 -0.1670
  145SAPE  H20R15984   1.537   4.040   8.858 -0.4493 -2.4941  1.3513
  145SAPE  H20S15985   1.379   4.103   8.785 -1.3847 -0.1640 -0.2506
  145SAPE  H20T15986   1.400   3.928   8.845  4.0453 -0.7421 -0.6450
  145SAPE   C3315987   1.488   2.870   9.806  0.5863 -0.0873 -0.3335
  145SAPE   H3X15988   1.382   2.837   9.808  0.0576  1.6240  0.5323
  145SAPE   H3Y15989   1.552   2.779   9.818 -1.2238 -1.2341  0.8706
  145SAPE   C3415990   1.513   2.945   9.671  0.3223 -0.0729  1.2001
  145SAPE   H4X15991   1.435   3.023   9.654 -0.2179 -0.9291 -0.3358
  145SAPE   H4Y15992   1.488   2.868   9.596  0.5145  2.5538 -1.6860
  145SAPE   C3515993   1.651   2.998   9.658  0.4364 -0.1083  0.3521
  145SAPE   H5X15994   1.718   2.917   9.693  0.7259 -0.3135 -0.6522
  145SAPE   H5Y15995   1.677   3.085   9.723 -1.8582  0.1908  0.9044
  145SAPE   C3615996   1.699   3.023   9.520  0.7008  0.3689  0.0164
  145SAPE   H6X15997   1.612   3.028   9.450  0.9235 -1.5519 -0.4259
  145SAPE   H6Y15998   1.769   2.943   9.488 -0.4906 -0.3573 -0.8603
  145SAPE   C3715999   1.773   3.160   9.496 -0.1522  0.3430 -1.0163
  145SAPE   H7X16000   1.859   3.146   9.565 -0.7320  0.6796 -0.2115
  145SAPE   H7Y16001   1.709   3.247   9.520  0.1263  0.2367  0.1441
  145SAPE   C3816002   1.823   3.164   9.351  0.0846  0.3582  0.3342
  145SAPE   H8X16003   1.740   3.173   9.278  0.6021 -0.6894 -0.3869
  145SAPE   H8Y16004   1.846   3.059   9.324 -2.0174  0.4380 -1.9608
  145SAPE   C3916005   1.918   3.272   9.313  0.6982  0.3386 -0.6838
  145SAPE   H9X16006   2.002   3.272   9.385  1.3679  1.3617 -1.4469
  145SAPE   H9Y16007   1.873   3.374   9.305 -0.0772  0.2167  1.9522
  145SAPE  C31016008   1.965   3.237   9.174  0.1011 -0.9941 -0.2631
  145SAPE  H10X16009   1.884   3.253   9.100  1.5007  3.0743 -1.0201
  145SAPE  H10Y16010   2.001   3.133   9.165  2.2472 -0.3228  0.3727
  145SAPE  C31116011   2.084   3.325   9.123 -0.1247  0.5827 -0.3156
  145SAPE  H11X16012   2.164   3.349   9.196  0.5713 -0.4662 -0.7307
  145SAPE  H11Y16013   2.035   3.424   9.115 -2.3569 -0.3058  1.7473
  145SAPE  C31216014   2.145   3.283   8.992  0.2435  0.2393 -0.0947
  145SAPE  H12X16015   2.066   3.277   8.915  1.2051 -0.0583 -1.0733
  145SAPE  H12Y16016   2.184   3.180   9.006 -0.0856  0.1329  0.0407
  145SAPE  C31316017   2.254   3.383   8.951 -0.4157  0.0578  0.8506
  145SAPE  H13X16018   2.324   3.339   8.876  2.1953  3.2020  1.3701
  145SAPE  H13Y16019   2.315   3.400   9.042 -3.3812 -0.8036  3.0781
  145SAPE  C31416020   2.203   3.515   8.892  0.1638 -0.0632  0.1522
  145SAPE  H14X16021   2.117   3.541   8.957 -0.0968  1.2675 -0.7156
  145SAPE  H14Y16022   2.158   3.503   8.791  0.8339  0.8370 -0.2620
  145SAPE  C31516023   2.310   3.619   8.886  0.3263  0.1759  0.8021
  145SAPE  H15X16024   2.375   3.614   8.976  2.3900 -1.8389 -0.7237
  145SAPE  H15Y16025   2.276   3.723   8.875  0.1918  0.1265  0.7554
  145SAPE  C31616026   2.397   3.601   8.758 -0.2699  0.2387 -0.2100
  145SAPE  H16X16027   2.321   3.590   8.678 -1.6586  2.2197  0.7974
  145SAPE  H16Y16028   2.452   3.508   8.781  0.9044  1.1289  0.6534
  145SAPE  C31716029   2.481   3.729   8.712  1.3934 -0.1950 -0.4452
  145SAPE  H17X16030   2.552   3.751   8.795  0.1769  2.3922 -0.0123
  145SAPE  H17Y16031   2.411   3.816   8.705  1.9443  0.6339  3.1211
  145SAPE  C31816032   2.544   3.707   8.567  0.1169 -0.1142 -0.4293
  145SAPE  H18X16033   2.473   3.737   8.487 -0.7422  1.3973  0.8756
  145SAPE  H18Y16034   2.581   3.602   8.562 -2.1558 -0.9581 -0.2515
  145SAPE  H18Z16035   2.636   3.770   8.565 -0.2260  0.3768 -0.9831
  146SAPE     N16036   0.342   5.078  10.986 -0.4453 -0.7857  0.0315
  146SAPE   HN116037   0.335   5.118  11.082  0.6519 -1.3377  0.3461
  146SAPE   HN216038   0.344   4.976  11.005  0.1612 -0.5812  1.1038
  146SAPE   HN316039   0.434   5.096  10.942 -0.4546 -1.5155 -0.2867
  146SAPE   C1216040   0.226   5.113  10.898 -0.5060  0.3455 -0.3326
  146SAPE  H12A16041   0.202   5.221  10.905  0.1350  0.5077 -0.5782
  146SAPE  H12B16042   0.135   5.065  10.940 -0.6995  0.7645 -0.2687
  146SAPE   C1116043   0.251   5.085  10.745 -0.6292  0.1689 -0.7853
  146SAPE  H11A16044   0.331   5.155  10.713 -0.1202  0.2600  0.6472
  146SAPE  H11B16045   0.161   5.111  10.685  0.4347  1.2449 -1.9603
  146SAPE     P16046   0.240   4.837  10.642 -0.4773 -0.2608  0.6772
  146SAPE   O1316047   0.313   4.713  10.675 -0.4459 -0.0302 -0.1179
  146SAPE   O1416048   0.096   4.822  10.672  0.6903  0.3866 -0.4521
  146SAPE   O1216049   0.295   4.951  10.732 -0.6649  0.3614  0.1542
  146SAPE   O1116050   0.252   4.876  10.491  0.8179 -1.0593  0.0797
  146SAPE    C116051   0.323   4.993  10.441  0.4048 -0.1132 -0.7209
  146SAPE    HA16052   0.255   5.080  10.458  1.6379  0.4747  1.3027
  146SAPE    HB16053   0.419   5.011  10.494  1.8288  0.0326 -3.2462
  146SAPE    C216054   0.354   4.980  10.286 -0.8083 -0.3827  0.7049
  146SAPE    HS16055   0.405   5.069  10.243  0.8984 -1.8197 -0.3126
  146SAPE   O2116056   0.239   4.950  10.217 -0.1830 -0.1944 -0.6786
  146SAPE   C2116057   0.141   5.039  10.210  0.6745 -0.0958 -0.7218
  146SAPE   O2216058   0.140   5.151  10.253 -0.3308  0.3681  0.2467
  146SAPE   C2216059   0.017   4.979  10.139  0.3930  0.6282  0.1115
  146SAPE   H2R16060   0.040   4.871  10.127 -0.0259  0.4012  1.2752
  146SAPE   H2S16061  -0.073   4.976  10.204  0.4991 -0.3174  0.2239
  146SAPE    C316062   0.458   4.866  10.269  0.0720  0.5108  0.4581
  146SAPE    HX16063   0.467   4.829  10.165  2.8929 -2.4106  1.6573
  146SAPE    HY16064   0.416   4.778  10.322 -0.2257  2.3826  3.4231
  146SAPE   O3116065   0.590   4.896  10.318 -0.3060 -0.8741  0.2000
  146SAPE   C3116066   0.658   4.971  10.229 -0.3897 -0.7598 -0.3975
  146SAPE   O3216067   0.610   5.020  10.131  0.6096 -0.5067 -0.1726
  146SAPE   C3216068   0.794   4.988  10.279 -0.0632 -0.0198 -0.5146
  146SAPE   H2X16069   0.834   4.900  10.333 -1.0520 -1.8149 -2.6304
  146SAPE   H2Y16070   0.810   5.081  10.337  1.3273 -0.4244 -0.2355
  146SAPE   C2316071  -0.016   5.049  10.002  0.4807  0.1476  0.2076
  146SAPE   H3R16072   0.072   5.056   9.935 -0.1327 -0.5183 -0.6911
  146SAPE   H3S16073  -0.044   5.154  10.023  0.2234  0.3374 -1.0624
  146SAPE   C2416074  -0.135   4.976   9.932  0.3365 -0.3377 -0.3210
  146SAPE   H4R16075  -0.181   5.049   9.862  1.0721  2.1041  1.6940
  146SAPE   H4S16076  -0.207   4.961  10.015 -0.1783 -1.8173 -1.0170
  146SAPE   C2516077  -0.105   4.843   9.879 -0.0129  0.1556 -0.6644
  146SAPE   H5R16078  -0.064   4.773   9.953 -0.4002  0.6203 -0.0014
  146SAPE   C2616079  -0.123   4.797   9.753  0.5614  0.5245 -0.1286
  146SAPE   H6R16080  -0.092   4.695   9.726  0.8582  0.5625  0.0684
  146SAPE   C2716081  -0.188   4.871   9.639 -0.2193 -0.0038  0.4896
  146SAPE   H7R16082  -0.102   4.917   9.584 -2.2483  3.2342 -0.1119
  146SAPE   H7S16083  -0.249   4.956   9.676  1.5493  0.1378  3.2291
  146SAPE   C2816084  -0.281   4.779   9.561 -0.1698  0.2813  0.3098
  146SAPE   H8R16085  -0.353   4.713   9.613  0.5702 -0.2666  0.6373
  146SAPE   C2916086  -0.302   4.794   9.423 -1.1406  0.3884  0.1968
  146SAPE   H9R16087  -0.379   4.736   9.371 -2.0151  0.3442  1.5146
  146SAPE  C21016088  -0.230   4.895   9.336  0.6311  0.0592  0.0260
  146SAPE  H10R16089  -0.128   4.921   9.372  0.5601 -0.9655  0.9949
  146SAPE  H10S16090  -0.287   4.990   9.336 -0.8713 -0.8153 -1.3870
  146SAPE  C21116091  -0.222   4.837   9.201  0.7268 -0.0709 -0.4131
  146SAPE  H11R16092  -0.137   4.770   9.181 -0.1016 -1.0351 -0.7084
  146SAPE  C21216093  -0.308   4.877   9.095 -0.2073 -0.9650  0.7697
  146SAPE  H12R16094  -0.283   4.825   9.001  2.3413  0.9626  0.3481
  146SAPE  C21316095  -0.428   4.972   9.093 -0.3058 -0.5060  0.3481
  146SAPE  H13R16096  -0.477   4.960   9.192 -0.7128  0.4327  0.2606
  146SAPE  H13S16097  -0.499   4.924   9.022 -0.1135 -0.0604 -0.1384
  146SAPE  C21416098  -0.387   5.110   9.053  0.3489 -0.2720 -0.2025
  146SAPE  H14R16099  -0.337   5.154   9.140 -0.3669 -1.1820  0.6742
  146SAPE  C21516100  -0.409   5.181   8.942  0.6755 -0.3080 -0.7145
  146SAPE  H15R16101  -0.357   5.277   8.934 -0.8326  0.7316  1.5234
  146SAPE  C21616102  -0.487   5.134   8.823 -0.4425  0.2973  0.4981
  146SAPE  H16R16103  -0.553   5.046   8.840 -0.4905 -0.0569 -1.3928
  146SAPE  H16S16104  -0.400   5.122   8.755 -0.3000 -0.0530  0.7381
  146SAPE  C21716105  -0.563   5.266   8.777  0.1522 -0.7116 -0.1042
  146SAPE  H17R16106  -0.487   5.346   8.787  0.1456 -0.5048 -1.5629
  146SAPE  H17S16107  -0.644   5.290   8.849 -2.0664  0.4154 -2.8617
  146SAPE  C21816108  -0.622   5.255   8.636 -0.6740  0.6544  0.2683
  146SAPE  H18R16109  -0.673   5.351   8.612 -0.1575  1.6628  2.9949
  146SAPE  H18S16110  -0.702   5.179   8.638 -1.0696  1.0751  0.5598
  146SAPE  C21916111  -0.517   5.214   8.522  0.3474  0.2580 -0.2297
  146SAPE  H19R16112  -0.492   5.108   8.544  0.1249  0.1038 -0.7144
  146SAPE  H19S16113  -0.419   5.266   8.515  1.2332 -1.5525 -1.6134
  146SAPE  C22016114  -0.584   5.203   8.378 -0.5905  0.5287 -0.1238
  146SAPE  H20R16115  -0.674   5.139   8.388 -1.5132  1.9313  0.6849
  146SAPE  H20S16116  -0.501   5.166   8.313  0.3683  0.9258  0.8473
  146SAPE  H20T16117  -0.597   5.307   8.342  0.0062  0.3187 -0.9814
  146SAPE   C3316118   0.887   5.006  10.158  0.2073 -0.7419  0.4870
  146SAPE   H3X16119   0.865   5.095  10.094  3.0366  1.0963  1.9328
  146SAPE   H3Y16120   0.875   4.918  10.091  0.2248  1.2095 -2.1784
  146SAPE   C3416121   1.029   5.021  10.208 -0.8541 -0.2783 -0.6814
  146SAPE   H4X16122   1.053   4.953  10.293 -0.6266  0.3374 -0.2533
  146SAPE   H4Y16123   1.035   5.121  10.257  0.6017 -0.6858 -0.0107
  146SAPE   C3516124   1.139   5.025  10.100  0.3505 -0.0769  0.1148
  146SAPE   H5X16125   1.233   5.075  10.131 -0.2586  0.2197  1.5451
  146SAPE   H5Y16126   1.105   5.070  10.005 -2.7846 -1.4312  0.5349
  146SAPE   C3616127   1.177   4.888  10.069 -0.3508 -0.1334  0.0385
  146SAPE   H6X16128   1.089   4.836  10.025  1.0035 -0.5490 -2.2835
  146SAPE   H6Y16129   1.208   4.839  10.164 -1.5962  2.9535  2.1045
  146SAPE   C3716130   1.298   4.869   9.974 -0.0184  0.0052 -0.6518
  146SAPE   H7X16131   1.380   4.897  10.043 -0.1073 -1.5980  0.1088
  146SAPE   H7Y16132   1.292   4.938   9.887 -1.0995  0.3545 -0.2989
  146SAPE   C3816133   1.303   4.723   9.926 -0.5832 -0.0178 -0.1232
  146SAPE   H8X16134   1.220   4.715   9.853  0.1964  0.2885 -1.0542
  146SAPE   H8Y16135   1.281   4.658  10.013 -0.3239 -0.0706 -0.0950
  146SAPE   C3916136   1.444   4.670   9.874 -0.3727  0.0868 -0.6485
  146SAPE   H9X16137   1.512   4.678   9.962 -1.0116 -1.1128 -0.0293
  146SAPE   H9Y16138   1.482   4.734   9.792  0.5310 -0.3111 -0.5407
  146SAPE  C31016139   1.443   4.517   9.851  0.2900 -0.0714  1.2738
  146SAPE  H10X16140   1.374   4.493   9.767 -0.2491 -0.2459  1.7684
  146SAPE  H10Y16141   1.403   4.457   9.936 -1.3866  0.7938  1.1239
  146SAPE  C31116142   1.579   4.449   9.818  0.5775  0.8735 -0.1116
  146SAPE  H11X16143   1.632   4.474   9.912 -1.6729  0.8139  1.2103
  146SAPE  H11Y16144   1.631   4.488   9.728  0.2600 -0.0317 -0.6910
  146SAPE  C31216145   1.570   4.296   9.815 -0.3222  0.0298 -0.3642
  146SAPE  H12X16146   1.500   4.276   9.731 -1.2435  0.0502  0.3880
  146SAPE  H12Y16147   1.523   4.265   9.911 -0.0590 -0.2145 -0.3149
  146SAPE  C31316148   1.707   4.238   9.788  0.2801  0.9256 -0.3233
  146SAPE  H13X16149   1.786   4.295   9.840  1.5623  0.5606 -1.8291
  146SAPE  H13Y16150   1.730   4.244   9.680  2.7197 -0.7757  0.0560
  146SAPE  C31416151   1.721   4.088   9.830  0.1884  0.1602 -0.5687
  146SAPE  H14X16152   1.809   4.044   9.779 -0.7303 -2.4127 -0.0316
  146SAPE  H14Y16153   1.638   4.029   9.784 -0.0119 -0.4295  0.5317
  146SAPE  C31516154   1.698   4.066   9.980 -0.1085  0.3753 -0.2742
  146SAPE  H15X16155   1.613   4.132  10.010  0.1275  0.8333 -0.5944
  146SAPE  H15Y16156   1.779   4.118  10.035  0.0455 -2.2692  2.1136
  146SAPE  C31616157   1.682   3.922  10.038 -0.5829 -0.3120  0.3318
  146SAPE  H16X16158   1.763   3.866   9.988  1.5274  3.1503 -0.2873
  146SAPE  H16Y16159   1.591   3.872   9.997  0.0746 -2.1048  1.0155
  146SAPE  C31716160   1.704   3.913  10.188 -0.2710  0.2131 -0.0102
  146SAPE  H17X16161   1.798   3.959  10.225  1.1011 -1.6045 -1.1598
  146SAPE  H17Y16162   1.729   3.809  10.219  0.7752  0.2052 -0.8283
  146SAPE  C31816163   1.581   3.959  10.264  0.7263  0.3743 -0.1829
  146SAPE  H18X16164   1.487   3.908  10.235 -0.2850  2.3647 -0.5007
  146SAPE  H18Y16165   1.579   4.068  10.244  1.7043  1.0714  3.2507
  146SAPE  H18Z16166   1.585   3.933  10.372 -2.2421 -2.4115 -0.6605
  147SAPE     N16167   1.891   0.518  10.909  0.7775  0.1554 -0.1403
  147SAPE   HN116168   1.991   0.504  10.885  0.9240  1.4939 -0.3462
  147SAPE   HN216169   1.862   0.436  10.966 -0.6656  0.6471 -0.1374
  147SAPE   HN316170   1.835   0.512  10.822 -2.4412  1.3158  1.7584
  147SAPE   C1216171   1.869   0.649  10.983  0.2244 -0.5146 -0.3151
  147SAPE  H12A16172   1.918   0.639  11.082  0.0918 -1.4326 -0.3395
  147SAPE  H12B16173   1.762   0.673  11.000  0.2054 -0.2370 -0.7975
  147SAPE   C1116174   1.927   0.766  10.908  0.0758  0.1161  0.0746
  147SAPE  H11A16175   2.038   0.757  10.900 -0.0010  0.6334 -1.7668
  147SAPE  H11B16176   1.905   0.855  10.970 -0.3802  2.0029 -2.7008
  147SAPE     P16177   1.935   0.890  10.682 -0.0523  0.3818  0.0979
  147SAPE   O1316178   1.834   1.000  10.658 -0.3261  0.6321 -0.2353
  147SAPE   O1416179   2.068   0.940  10.724 -0.1665  0.3003 -1.1551
  147SAPE   O1216180   1.875   0.781  10.776 -0.2431 -0.0194 -0.6334
  147SAPE   O1116181   1.950   0.811  10.542  0.4570 -0.1471 -0.5464
  147SAPE    C116182   1.850   0.707  10.534  0.8207 -0.8038 -0.2513
  147SAPE    HA16183   1.884   0.611  10.576  0.5989 -1.1667 -0.8923
  147SAPE    HB16184   1.752   0.739  10.576  2.7682  2.2221  2.2051
  147SAPE    C216185   1.823   0.671  10.385  0.0248  0.7069  0.6684
  147SAPE    HS16186   1.795   0.564  10.374 -0.1238  0.7331  0.7854
  147SAPE   O2116187   1.941   0.696  10.316 -0.6935  0.2714  0.0143
  147SAPE   C2116188   2.036   0.607  10.325  0.2751 -0.3835  0.6933
  147SAPE   O2216189   2.026   0.498  10.382 -0.2459 -0.4405 -0.0301
  147SAPE   C2216190   2.153   0.654  10.248  0.2723 -0.0418 -0.4513
  147SAPE   H2R16191   2.120   0.717  10.163 -1.3420  0.5751  0.6262
  147SAPE   H2S16192   2.222   0.703  10.319  2.1580 -1.9531 -0.8711
  147SAPE    C316193   1.710   0.760  10.323 -1.1335 -0.4918  0.0928
  147SAPE    HX16194   1.752   0.862  10.334 -0.3499 -0.7229 -0.6590
  147SAPE    HY16195   1.618   0.750  10.383 -1.4716  1.0210 -0.1626
  147SAPE   O3116196   1.688   0.731  10.184  0.3061 -0.0386  0.2471
  147SAPE   C3116197   1.601   0.632  10.177  0.5198 -0.2150 -0.2160
  147SAPE   O3216198   1.541   0.574  10.262 -0.0624  0.4520  0.2865
  147SAPE   C3216199   1.586   0.587  10.028 -0.1565  0.3062 -0.1296
  147SAPE   H2X16200   1.537   0.668   9.970  0.4021  3.1518  3.2140
  147SAPE   H2Y16201   1.509   0.508  10.023  1.3139 -1.0803 -1.8968
  147SAPE   C2316202   2.227   0.527  10.193 -0.1830 -0.3953  0.5995
  147SAPE   H3R16203   2.265   0.449  10.263 -0.3056 -1.2768 -0.2994
  147SAPE   H3S16204   2.324   0.547  10.144 -0.4579 -1.1221 -0.2511
  147SAPE   C2416205   2.136   0.450  10.090  0.3183  1.1914 -0.8682
  147SAPE   H4R16206   2.043   0.420  10.143 -0.5055  0.0639 -2.8821
  147SAPE   H4S16207   2.193   0.358  10.067 -0.3494  0.6521 -0.3911
  147SAPE   C2516208   2.105   0.543   9.969 -1.1601  0.2518  0.0407
  147SAPE   H5R16209   2.026   0.617   9.992 -0.3129  1.0124  0.5158
  147SAPE   C2616210   2.141   0.534   9.841 -0.7303 -0.8542  0.0635
  147SAPE   H6R16211   2.118   0.620   9.776  1.9118 -0.0509  0.1038
  147SAPE   C2716212   2.233   0.422   9.787 -0.2212 -0.2286 -0.4595
  147SAPE   H7R16213   2.181   0.325   9.769 -0.2889 -0.4308  0.7648
  147SAPE   H7S16214   2.299   0.401   9.874 -0.7300  0.0933  0.0118
  147SAPE   C2816215   2.326   0.443   9.669  0.6968 -0.1290 -0.5710
  147SAPE   H8R16216   2.418   0.385   9.686  0.0231 -0.3088  2.8188
  147SAPE   C2916217   2.310   0.510   9.556  0.2721 -0.5816 -0.9413
  147SAPE   H9R16218   2.395   0.531   9.488  2.0338 -0.1259  1.3539
  147SAPE  C21016219   2.189   0.586   9.523 -0.6231 -0.1502  0.1920
  147SAPE  H10R16220   2.185   0.684   9.574 -1.7217 -0.6560  1.0872
  147SAPE  H10S16221   2.100   0.532   9.560 -1.1025  1.2516  1.0977
  147SAPE  C21116222   2.185   0.609   9.373  0.0261  0.2645 -0.2038
  147SAPE  H11R16223   2.118   0.534   9.329  1.7276  0.2901 -2.9150
  147SAPE  C21216224   2.246   0.701   9.293  0.0747 -0.6959 -0.2165
  147SAPE  H12R16225   2.226   0.692   9.185 -1.3265  0.4979 -0.0769
  147SAPE  C21316226   2.346   0.809   9.335  0.8512  0.8833  0.6112
  147SAPE  H13R16227   2.400   0.856   9.250  0.4589  2.2170  1.0993
  147SAPE  H13S16228   2.424   0.767   9.402 -0.2395 -1.3011  0.5460
  147SAPE  C21416229   2.271   0.920   9.400  0.6347 -0.5165 -0.2832
  147SAPE  H14R16230   2.177   0.939   9.348  0.7112  1.5422  0.2732
  147SAPE  C21516231   2.302   0.984   9.509  0.2250 -0.2085 -0.8189
  147SAPE  H15R16232   2.242   1.065   9.551  2.1557  1.8875 -1.9985
  147SAPE  C21616233   2.426   0.968   9.594 -0.0977  0.2832 -0.4146
  147SAPE  H16R16234   2.463   1.069   9.620 -1.9582  1.0515 -0.7213
  147SAPE  H16S16235   2.514   0.925   9.541  0.2352  1.3609 -0.7522
  147SAPE  C21716236   2.384   0.889   9.726 -0.3129  0.3031  0.3949
  147SAPE  H17R16237   2.482   0.850   9.763 -0.9127  0.6009  2.3609
  147SAPE  H17S16238   2.311   0.808   9.706 -0.9756  1.1608 -0.7236
  147SAPE  C21816239   2.328   0.983   9.829 -0.3074  0.1480 -0.5079
  147SAPE  H18R16240   2.217   0.989   9.838 -0.2443  2.0066 -0.7480
  147SAPE  H18S16241   2.342   1.092   9.809 -1.0366  0.5898  1.2453
  147SAPE  C21916242   2.373   0.927   9.967  0.4401 -0.9051  0.1801
  147SAPE  H19R16243   2.483   0.907   9.962  0.8401  1.0326  0.8632
  147SAPE  H19S16244   2.333   0.825   9.983 -0.4039 -0.3487  1.6221
  147SAPE  C22016245   2.362   1.035  10.074 -0.7550 -0.4178 -0.2844
  147SAPE  H20R16246   2.255   1.044  10.105 -0.9833  3.1748 -1.8657
  147SAPE  H20S16247   2.400   1.129  10.029  1.9496 -0.4308  1.8608
  147SAPE  H20T16248   2.425   1.000  10.159 -2.1327  1.7536  1.7073
  147SAPE   C3316249   1.704   0.545   9.942  0.6281  0.0319 -0.1195
  147SAPE   H3X16250   1.749   0.449   9.972 -2.2638 -1.1290  0.7029
  147SAPE   H3Y16251   1.790   0.615   9.950 -0.5373  1.3251  1.7922
  147SAPE   C3416252   1.666   0.538   9.793  0.2747  0.2834  0.5421
  147SAPE   H4X16253   1.614   0.633   9.773 -0.4386 -0.0969  0.5918
  147SAPE   H4Y16254   1.596   0.453   9.778  1.8223 -0.9482  0.0913
  147SAPE   C3516255   1.785   0.507   9.704  0.0122 -0.4096  0.9614
  147SAPE   H5X16256   1.820   0.403   9.718 -1.8273 -1.3278 -1.0576
  147SAPE   H5Y16257   1.875   0.569   9.725  0.1388  0.6029 -2.2459
  147SAPE   C3616258   1.768   0.523   9.549  0.2082  0.1936  0.5812
  147SAPE   H6X16259   1.844   0.598   9.521  0.5594 -0.7654 -1.1355
  147SAPE   H6Y16260   1.665   0.553   9.522 -0.5349 -2.1843  0.5889
  147SAPE   C3716261   1.812   0.394   9.469  0.6321 -0.6738  0.1319
  147SAPE   H7X16262   1.755   0.305   9.504 -0.4595 -0.0579 -0.0567
  147SAPE   H7Y16263   1.915   0.377   9.508  1.2296 -0.3530 -1.2849
  147SAPE   C3816264   1.795   0.412   9.315  0.3599 -0.7719  0.1291
  147SAPE   H8X16265   1.840   0.513   9.300  2.0651 -1.7600 -1.5378
  147SAPE   H8Y16266   1.687   0.410   9.288  0.3424  0.1747  0.0917
  147SAPE   C3916267   1.874   0.300   9.240 -0.4711 -0.0675 -0.7232
  147SAPE   H9X16268   1.825   0.204   9.264  1.3542 -1.1984 -1.4476
  147SAPE   H9Y16269   1.978   0.302   9.280  0.0913  2.3336 -2.1779
  147SAPE  C31016270   1.898   0.322   9.090 -0.3617 -0.2616 -0.5872
  147SAPE  H10X16271   1.809   0.370   9.044 -0.6957 -2.2449 -2.0756
  147SAPE  H10Y16272   1.918   0.226   9.037 -0.0742 -1.0367  0.9017
  147SAPE  C31116273   2.017   0.404   9.060 -0.5125  0.1470  0.2388
  147SAPE  H11X16274   2.107   0.360   9.107 -0.1649 -0.4685 -0.9638
  147SAPE  H11Y16275   2.006   0.507   9.099  2.2475  0.6833 -0.2750
  147SAPE  C31216276   2.062   0.418   8.906  0.5187 -0.4827 -0.2488
  147SAPE  H12X16277   1.983   0.458   8.840 -2.1101 -1.7037  2.0475
  147SAPE  H12Y16278   2.070   0.321   8.853 -0.9980 -0.7215 -0.0715
  147SAPE  C31316279   2.201   0.493   8.892  0.4801  0.4350 -0.0116
  147SAPE  H13X16280   2.240   0.476   8.790 -1.6479 -0.0351 -0.7919
  147SAPE  H13Y16281   2.269   0.477   8.978  0.0326  0.3432  0.3307
  147SAPE  C31416282   2.170   0.646   8.890  0.7708 -0.1339  0.8018
  147SAPE  H14X16283   2.122   0.678   8.985 -0.2858  1.6287 -0.3083
  147SAPE  H14Y16284   2.100   0.652   8.804  3.0960  0.8547 -1.0954
  147SAPE  C31516285   2.298   0.721   8.863  0.3494 -0.8300  0.6709
  147SAPE  H15X16286   2.347   0.675   8.775 -0.6256 -2.5742  1.0342
  147SAPE  H15Y16287   2.368   0.697   8.945 -1.9349 -1.6709  2.4198
  147SAPE  C31616288   2.271   0.868   8.841  0.2391  0.1344  0.3214
  147SAPE  H16X16289   2.204   0.907   8.921  0.4401  1.9753 -0.3708
  147SAPE  H16Y16290   2.209   0.898   8.754 -1.2619  0.6399  1.5615
  147SAPE  C31716291   2.401   0.957   8.835  0.1734  0.3145 -0.1380
  147SAPE  H17X16292   2.462   0.924   8.922 -1.6193 -0.5558  0.8069
  147SAPE  H17Y16293   2.373   1.064   8.840 -1.6892 -0.1519 -0.1859
  147SAPE  C31816294   2.471   0.939   8.702  0.4677  0.5536  0.9133
  147SAPE  H18X16295   2.519   0.841   8.683  0.6660  0.8283 -0.0428
  147SAPE  H18Y16296   2.549   1.018   8.703  0.7020  0.4129 -2.2143
  147SAPE  H18Z16297   2.401   0.958   8.618  0.4028 -1.4363  0.5062
  148SAPE     N16298   3.136   3.154  10.431  0.4694  0.0703  0.0059
  148SAPE   HN116299   3.187   3.242  10.449  2.4505 -1.3518  1.5567
  148SAPE   HN216300   3.058   3.178  10.366 -0.1610 -0.9524  0.3684
  148SAPE   HN316301   3.103   3.110  10.520 -0.9948 -0.9543 -1.0118
  148SAPE   C1216302   3.233   3.059  10.365  0.2513 -0.2294 -0.5072
  148SAPE  H12A16303   3.314   3.110  10.309  0.1128 -0.0723 -0.5649
  148SAPE  H12B16304   3.187   2.997  10.285 -0.3045 -1.1970  0.5336
  148SAPE   C1116305   3.286   2.968  10.481 -0.4384 -0.1696  0.5336
  148SAPE  H11A16306   3.211   2.922  10.549 -0.0838 -0.7287  0.5534
  148SAPE  H11B16307   3.348   3.024  10.554 -0.6756 -3.1299  3.1447
  148SAPE     P16308   3.517   2.852  10.425 -0.4205 -0.5601 -0.1757
  148SAPE   O1316309   3.571   2.994  10.432  0.6863  0.2178 -0.1828
  148SAPE   O1416310   3.557   2.768  10.543 -0.6237  0.1072  0.0144
  148SAPE   O1216311   3.360   2.861  10.420 -0.2307  0.0522 -0.1014
  148SAPE   O1116312   3.560   2.796  10.284 -0.3410  0.1535  0.2813
  148SAPE    C116313   3.475   2.690  10.217 -0.2585 -0.2822 -0.9117
  148SAPE    HA16314   3.534   2.596  10.211 -0.1534 -0.5923  3.2463
  148SAPE    HB16315   3.385   2.667  10.278  2.5512 -1.4186  2.9997
  148SAPE    C216316   3.409   2.725  10.077 -0.9027  0.0502 -0.1074
  148SAPE    HS16317   3.365   2.636  10.028  0.6659 -1.5481  1.3002
  148SAPE   O2116318   3.520   2.791  10.006  0.3068  0.0182  0.5965
  148SAPE   C2116319   3.590   2.708   9.928 -0.2057  0.2972 -0.2892
  148SAPE   O2216320   3.574   2.590   9.910 -0.2577  0.5776 -0.1031
  148SAPE   C2216321   3.715   2.791   9.902  0.0645  1.1943 -0.3293
  148SAPE   H2R16322   3.684   2.897   9.889 -1.1530  1.0204  1.0787
  148SAPE   H2S16323   3.774   2.786   9.996 -0.0137 -2.2499 -0.3825
  148SAPE    C316324   3.293   2.827  10.083  0.8751 -0.7556  0.4528
  148SAPE    HX16325   3.334   2.928  10.106  3.1077 -1.8573  1.4087
  148SAPE    HY16326   3.218   2.795  10.158 -1.9417  1.8317 -1.1520
  148SAPE   O3116327   3.227   2.822   9.962  0.1709 -0.2691  0.0687
  148SAPE   C3116328   3.147   2.925   9.931  0.5603  0.0412  0.6381
  148SAPE   O3216329   3.113   3.018  10.002  0.5153 -0.2536 -0.6568
  148SAPE   C3216330   3.105   2.905   9.790 -0.4254  0.1440 -0.0030
  148SAPE   H2X16331   3.011   2.960   9.767 -0.2959  0.5895  0.5223
  148SAPE   H2Y16332   3.070   2.800   9.778  0.1126 -0.1712  1.1021
  148SAPE   C2316333   3.796   2.738   9.782  0.1208  0.2905  0.6198
  148SAPE   H3R16334   3.785   2.628   9.775  0.1783  0.3423 -0.3893
  148SAPE   H3S16335   3.903   2.764   9.800  0.3580  1.3496 -2.0791
  148SAPE   C2416336   3.753   2.802   9.650  0.3646  0.0074 -0.0129
  148SAPE   H4R16337   3.840   2.828   9.586 -1.0013 -1.0181 -2.3595
  148SAPE   H4S16338   3.715   2.902   9.680 -2.9220 -0.6347 -1.7993
  148SAPE   C2516339   3.636   2.719   9.586  0.1985 -0.0400  0.3871
  148SAPE   H5R16340   3.556   2.689   9.654  0.5422 -0.1135  0.7593
  148SAPE   C2616341   3.636   2.686   9.458 -0.4006  0.3312 -0.6804
  148SAPE   H6R16342   3.572   2.602   9.424  1.5710 -0.2872 -3.0319
  148SAPE   C2716343   3.745   2.730   9.356  0.3020 -0.9061  0.2018
  148SAPE   H7R16344   3.836   2.666   9.359  0.8489 -0.1370  0.0452
  148SAPE   H7S16345   3.780   2.830   9.391  1.6059 -1.6269  1.0479
  148SAPE   C2816346   3.682   2.738   9.217 -0.0269  0.6748 -0.0559
  148SAPE   H8R16347   3.599   2.672   9.186  0.1585  0.7979 -0.8392
  148SAPE   C2916348   3.746   2.804   9.119  0.5239 -0.3317 -0.4151
  148SAPE   H9R16349   3.694   2.802   9.022  2.5624  0.7836 -1.5634
  148SAPE  C21016350   3.876   2.875   9.121  0.4019 -0.3707 -0.1276
  148SAPE  H10R16351   3.943   2.836   9.201  0.4623  2.4579  1.2619
  148SAPE  H10S16352   3.862   2.982   9.147  2.3735 -0.4727  1.4734
  148SAPE  C21116353   3.950   2.873   8.989  0.1450  0.6313  0.5014
  148SAPE  H11R16354   3.927   2.955   8.919 -0.3339 -0.0531 -0.1397
  148SAPE  C21216355   4.045   2.781   8.948  0.4401  0.6520  0.3308
  148SAPE  H12R16356   4.067   2.795   8.841  0.6993 -0.2795  0.2610
  148SAPE  C21316357   4.106   2.666   9.021  0.1866 -0.1713  0.4172
  148SAPE  H13R16358   4.103   2.575   8.957 -1.3336 -0.0937  0.3428
  148SAPE  H13S16359   4.053   2.643   9.116  0.2223  0.4418  0.5839
  148SAPE  C21416360   4.247   2.704   9.072 -0.0336  0.2185  0.1435
  148SAPE  H14R16361   4.294   2.803   9.059  0.5413 -0.1142 -0.3356
  148SAPE  C21516362   4.331   2.616   9.133  0.2108  0.2736  0.2501
  148SAPE  H15R16363   4.426   2.653   9.174  0.0239  1.6776 -0.5551
  148SAPE  C21616364   4.302   2.465   9.162  0.5527  0.6454  0.4036
  148SAPE  H16R16365   4.387   2.397   9.138  0.0781  1.4621 -3.9839
  148SAPE  H16S16366   4.206   2.422   9.125  0.6896  1.0856 -0.4624
  148SAPE  C21716367   4.292   2.464   9.311 -0.4589 -0.5655 -0.4671
  148SAPE  H17R16368   4.391   2.481   9.359 -1.1903 -1.9237  1.5834
  148SAPE  H17S16369   4.268   2.359   9.337 -0.8142 -0.9318 -2.1974
  148SAPE  C21816370   4.177   2.541   9.381  0.0040  0.5242 -0.5093
  148SAPE  H18R16371   4.082   2.542   9.323 -0.5664  0.8187  0.4294
  148SAPE  H18S16372   4.213   2.646   9.389  0.4229  0.3947 -0.6710
  148SAPE  C21916373   4.151   2.465   9.510  0.4052  0.3079 -0.7832
  148SAPE  H19R16374   4.242   2.470   9.573 -0.9805 -0.6690  1.3630
  148SAPE  H19S16375   4.136   2.355   9.502  2.4701  0.0570 -1.5805
  148SAPE  C22016376   4.051   2.540   9.611  0.1554  0.4191 -0.0556
  148SAPE  H20R16377   4.098   2.636   9.642  2.4629 -0.5273 -0.5443
  148SAPE  H20S16378   4.037   2.488   9.708  0.6036 -0.8537 -0.6649
  148SAPE  H20T16379   3.957   2.569   9.559 -0.2780  1.9485  1.5207
  148SAPE   C3316380   3.214   2.937   9.683 -0.0112  0.1159  0.5700
  148SAPE   H3X16381   3.304   2.872   9.694 -1.2385 -1.6041  0.6938
  148SAPE   H3Y16382   3.257   3.040   9.682 -1.1542  0.6084  1.5414
  148SAPE   C3416383   3.163   2.906   9.543  0.3690 -0.4993 -0.0018
  148SAPE   H4X16384   3.127   3.004   9.505 -3.3659 -2.4032 -1.6531
  148SAPE   H4Y16385   3.086   2.826   9.544  1.2468 -1.3487  0.1604
  148SAPE   C3516386   3.277   2.862   9.453  0.9015 -0.7661  0.2363
  148SAPE   H5X16387   3.312   2.768   9.499  0.6126 -1.0380 -0.0956
  148SAPE   H5Y16388   3.363   2.929   9.474 -0.9228  1.4452  0.8542
  148SAPE   C3616389   3.248   2.839   9.302  0.0838 -0.1536 -0.2724
  148SAPE   H6X16390   3.143   2.876   9.297  0.2740  0.5838  1.0141
  148SAPE   H6Y16391   3.247   2.729   9.288 -0.0783 -0.3906  1.5586
  148SAPE   C3716392   3.332   2.907   9.197  0.4648  0.4014 -0.1928
  148SAPE   H7X16393   3.440   2.898   9.225  0.3391  1.1970  0.5878
  148SAPE   H7Y16394   3.322   3.017   9.209 -0.8820  0.1513  1.0988
  148SAPE   C3816395   3.306   2.876   9.045  0.4313 -0.2831 -0.5720
  148SAPE   H8X16396   3.200   2.901   9.022  0.1114  0.7534  1.9225
  148SAPE   H8Y16397   3.314   2.765   9.039  0.2696 -0.3300  0.1136
  148SAPE   C3916398   3.419   2.954   8.970 -0.0065 -0.7490  0.1003
  148SAPE   H9X16399   3.508   2.967   9.036 -0.3160  5.0999 -0.2956
  148SAPE   H9Y16400   3.376   3.056   8.953 -0.4072 -0.7228  1.1927
  148SAPE  C31016401   3.456   2.885   8.833 -0.0355 -0.3686 -0.2258
  148SAPE  H10X16402   3.375   2.828   8.782  0.3657  0.3102 -1.6306
  148SAPE  H10Y16403   3.527   2.804   8.859  0.5147  0.5744  1.2757
  148SAPE  C31116404   3.520   2.971   8.727  0.3195 -0.0735 -0.2861
  148SAPE  H11X16405   3.627   2.979   8.756  0.6719 -0.0791 -1.5449
  148SAPE  H11Y16406   3.476   3.073   8.722 -1.6839 -0.8495  0.9775
  148SAPE  C31216407   3.526   2.890   8.593  0.2986  0.1309  0.3703
  148SAPE  H12X16408   3.423   2.883   8.549  1.0459 -1.8498 -1.1729
  148SAPE  H12Y16409   3.567   2.791   8.622 -0.8657 -0.3088  0.5337
  148SAPE  C31316410   3.611   2.968   8.491 -0.1271  0.0852 -0.0001
  148SAPE  H13X16411   3.710   2.971   8.543 -0.8265  1.2167  1.2815
  148SAPE  H13Y16412   3.573   3.072   8.484  0.0811  0.2216  0.8780
  148SAPE  C31416413   3.623   2.903   8.357 -0.0605  0.2657 -0.1971
  148SAPE  H14X16414   3.669   2.802   8.362 -2.1928 -0.6911  0.8858
  148SAPE  H14Y16415   3.694   2.973   8.309  1.8503  0.6274  3.0477
  148SAPE  C31516416   3.487   2.888   8.274  0.5296 -0.5124  0.1969
  148SAPE  H15X16417   3.435   2.986   8.275  1.2567 -0.1212  1.6746
  148SAPE  H15Y16418   3.412   2.819   8.319 -1.7139  2.0013  0.4284
  148SAPE  C31616419   3.528   2.831   8.133 -0.1250  0.6189  0.8446
  148SAPE  H16X16420   3.584   2.736   8.138  1.4725  1.5635  1.2213
  148SAPE  H16Y16421   3.590   2.905   8.079  0.0422 -0.4787 -0.4820
  148SAPE  C31716422   3.408   2.824   8.038 -0.1675 -0.4478  0.2526
  148SAPE  H17X16423   3.442   2.792   7.937  1.0678 -1.3350  0.9514
  148SAPE  H17Y16424   3.361   2.924   8.029 -0.1264 -0.4143  0.4095
  148SAPE  C31816425   3.293   2.722   8.072  0.2495  0.4736  0.1562
  148SAPE  H18X16426   3.250   2.743   8.173 -2.1525  1.6606 -1.0667
  148SAPE  H18Y16427   3.343   2.623   8.074 -1.6854 -0.5186  1.8148
  148SAPE  H18Z16428   3.212   2.737   7.998 -0.7184  0.0419  1.0954
  149SAPE     N16429   6.443   4.542  11.148  0.5951  0.1715  0.1686
  149SAPE   HN116430   6.477   4.488  11.065 -0.7273  1.1460 -1.0256
  149SAPE   HN216431   6.525   4.537  11.212  0.4431 -1.5366  0.2688
  149SAPE   HN316432   6.359   4.492  11.183 -0.2514  1.3055 -0.2338
  149SAPE   C1216433   6.421   4.690  11.126 -0.5556 -0.3430 -0.2644
  149SAPE  H12A16434   6.513   4.748  11.101 -1.6706  1.6746  0.2297
  149SAPE  H12B16435   6.391   4.730  11.225 -0.2731  1.6550 -0.9540
  149SAPE   C1116436   6.336   4.723  11.005  0.1674 -0.0379 -0.4522
  149SAPE  H11A16437   6.357   4.677  10.906  0.7422  1.1848 -0.9085
  149SAPE  H11B16438   6.349   4.834  10.998  0.9854 -0.2303 -2.3860
  149SAPE     P16439   6.116   4.579  10.982 -0.0381 -0.4126  0.2717
  149SAPE   O1316440   6.186   4.454  11.019 -0.2223  0.0576 -0.0142
  149SAPE   O1416441   5.978   4.603  11.037 -0.4737 -0.4050 -0.0115
  149SAPE   O1216442   6.197   4.700  11.039 -0.2839 -0.1657 -0.2654
  149SAPE   O1116443   6.130   4.604  10.832  0.2135 -0.0084  0.0706
  149SAPE    C116444   6.109   4.736  10.768  0.7818 -0.0243  0.0870
  149SAPE    HA16445   6.058   4.804  10.840  0.3500  0.6716 -0.8762
  149SAPE    HB16446   6.206   4.783  10.742  0.1692  1.1138 -0.1402
  149SAPE    C216447   6.026   4.724  10.629 -0.3373 -0.2090 -0.0954
  149SAPE    HS16448   6.019   4.834  10.611  2.0355  0.1290  0.8081
  149SAPE   O2116449   5.900   4.650  10.639 -0.5861  0.1721 -0.5554
  149SAPE   C2116450   5.811   4.706  10.722  0.2870  0.1514  0.4985
  149SAPE   O2216451   5.802   4.826  10.754 -0.6461  0.0671  0.1008
  149SAPE   C2216452   5.718   4.589  10.758  0.4862  0.7390 -0.7787
  149SAPE   H2R16453   5.726   4.508  10.683  1.3354  0.4744 -0.4107
  149SAPE   H2S16454   5.763   4.553  10.853 -2.6554 -0.8575  0.1687
  149SAPE    C316455   6.119   4.666  10.509 -0.2261  0.0794  0.1280
  149SAPE    HX16456   6.180   4.582  10.550  1.1744  1.7597  1.5405
  149SAPE    HY16457   6.193   4.742  10.477 -0.8957  0.1577 -1.2715
  149SAPE   O3116458   6.041   4.629  10.391 -0.2564  0.1806 -0.7176
  149SAPE   C3116459   5.991   4.724  10.315  0.1467  0.6439 -0.6052
  149SAPE   O3216460   5.983   4.842  10.340  0.1802 -0.2732 -0.5457
  149SAPE   C3216461   5.960   4.666  10.176 -0.1268  0.0688  0.1045
  149SAPE   H2X16462   5.889   4.738  10.131  2.1400  2.5899  0.4207
  149SAPE   H2Y16463   5.914   4.567  10.195 -2.7777  0.9606 -1.3161
  149SAPE   C2316464   5.572   4.641  10.785 -0.4684  0.2606 -0.6691
  149SAPE   H3R16465   5.588   4.735  10.842 -0.4875 -0.6406  0.8677
  149SAPE   H3S16466   5.517   4.584  10.863  2.1864  2.4150  2.9343
  149SAPE   C2416467   5.486   4.663  10.654  1.4517  0.2383 -0.8075
  149SAPE   H4R16468   5.389   4.699  10.695  0.3616 -1.6106 -1.6870
  149SAPE   H4S16469   5.462   4.566  10.605 -0.0177  1.0547 -1.7499
  149SAPE   C2516470   5.536   4.761  10.556  0.4450 -0.6654 -0.4591
  149SAPE   H5R16471   5.509   4.861  10.592  1.4499 -0.1967 -0.9661
  149SAPE   C2616472   5.592   4.738  10.430  0.8694 -1.1569  0.4328
  149SAPE   H6R16473   5.622   4.827  10.372 -2.2384 -0.2950  0.0323
  149SAPE   C2716474   5.620   4.597  10.376 -0.1362 -0.1506 -0.3511
  149SAPE   H7R16475   5.628   4.525  10.460  1.4419  1.5707  1.0139
  149SAPE   H7S16476   5.720   4.587  10.328 -0.0473  1.2212 -0.4653
  149SAPE   C2816477   5.501   4.549  10.293  0.0395 -0.7376 -0.5401
  149SAPE   H8R16478   5.423   4.507  10.359  1.0344 -0.8088  0.6087
  149SAPE   C2916479   5.497   4.548  10.161  0.1929  0.1230 -0.6867
  149SAPE   H9R16480   5.399   4.521  10.119  0.6964  0.1402 -1.8878
  149SAPE  C21016481   5.604   4.591  10.063 -0.9332 -0.0338 -0.7657
  149SAPE  H10R16482   5.689   4.643  10.112 -0.3073 -0.5746 -1.2599
  149SAPE  H10S16483   5.558   4.671  10.001 -1.5862  0.1223 -0.0860
  149SAPE  C21116484   5.646   4.470   9.978 -0.0379  0.2868 -0.0912
  149SAPE  H11R16485   5.663   4.376  10.033  0.8435  0.7134  0.3725
  149SAPE  C21216486   5.681   4.475   9.846  0.4102 -0.7620 -0.7810
  149SAPE  H12R16487   5.704   4.381   9.794  0.8507 -1.5576  0.8097
  149SAPE  C21316488   5.672   4.595   9.761 -0.7898  0.2578 -0.1510
  149SAPE  H13R16489   5.733   4.565   9.673  0.8430  0.8928  0.7517
  149SAPE  H13S16490   5.734   4.670   9.814  2.9750 -1.9970 -1.2291
  149SAPE  C21416491   5.541   4.654   9.724  0.0072 -0.3829  0.1902
  149SAPE  H14R16492   5.460   4.636   9.797 -0.8561 -0.8787 -0.8791
  149SAPE  C21516493   5.507   4.726   9.620  0.4541  0.1446  0.9086
  149SAPE  H15R16494   5.402   4.753   9.609  0.6635 -0.3112 -2.7474
  149SAPE  C21616495   5.586   4.762   9.493  0.2663  0.2223  0.2592
  149SAPE  H16R16496   5.691   4.726   9.490  0.3196  0.4427 -1.5140
  149SAPE  H16S16497   5.596   4.872   9.481  1.0810  0.1126 -0.1383
  149SAPE  C21716498   5.524   4.692   9.372  0.0610  0.3897  0.5987
  149SAPE  H17R16499   5.433   4.749   9.340  1.4536  3.0792  1.2489
  149SAPE  H17S16500   5.492   4.594   9.412  1.7391 -0.4624 -0.1340
  149SAPE  C21816501   5.635   4.674   9.268 -0.1948  0.1899  0.4197
  149SAPE  H18R16502   5.713   4.600   9.295  0.2665  1.9469  4.2066
  149SAPE  H18S16503   5.683   4.772   9.243  0.8531  0.5077  3.4921
  149SAPE  C21916504   5.581   4.624   9.140 -1.0865 -0.4959  0.0457
  149SAPE  H19R16505   5.516   4.703   9.096  2.2300  3.6898  2.3926
  149SAPE  H19S16506   5.515   4.535   9.153  0.6856 -1.6821  1.0777
  149SAPE  C22016507   5.690   4.586   9.039 -0.6612 -0.1023  0.9292
  149SAPE  H20R16508   5.634   4.528   8.963 -0.6724  0.3430  0.5988
  149SAPE  H20S16509   5.780   4.534   9.078  0.8635  0.5158 -1.6466
  149SAPE  H20T16510   5.732   4.673   8.984 -2.2884  1.5274  2.1973
  149SAPE   C3316511   6.087   4.649  10.085 -0.0760 -0.5896 -0.9251
  149SAPE   H3X16512   6.145   4.559  10.112  1.2341 -0.0706 -1.9224
  149SAPE   H3Y16513   6.160   4.730  10.106  0.2245 -1.6400  2.3588
  149SAPE   C3416514   6.043   4.626   9.938 -0.6725  0.0214 -0.5711
  149SAPE   H4X16515   5.974   4.704   9.899  0.3338  0.1597 -2.1061
  149SAPE   H4Y16516   5.983   4.534   9.924 -0.0779 -0.0867 -2.4757
  149SAPE   C3516517   6.156   4.613   9.833  0.1070 -0.0542 -0.1232
  149SAPE   H5X16518   6.188   4.507   9.844 -2.5922 -0.6271  2.8065
  149SAPE   H5Y16519   6.244   4.676   9.862  0.0865 -0.1103  0.0637
  149SAPE   C3616520   6.125   4.640   9.682  0.1259  0.6216  0.0058
  149SAPE   H6X16521   6.219   4.650   9.624  0.5954 -0.0890  0.6400
  149SAPE   H6Y16522   6.070   4.736   9.673 -1.8037 -0.5674 -1.0523
  149SAPE   C3716523   6.030   4.532   9.623  0.4085  0.0778  0.5061
  149SAPE   H7X16524   5.943   4.522   9.691 -0.0942 -0.1919 -0.1723
  149SAPE   H7Y16525   6.087   4.436   9.617 -0.2537 -0.2363 -0.8752
  149SAPE   C3816526   5.980   4.573   9.478  0.0537 -0.1689 -0.1375
  149SAPE   H8X16527   5.926   4.670   9.478  1.3291  0.5691  1.1785
  149SAPE   H8Y16528   5.906   4.494   9.456 -1.2486  0.6236  1.2543
  149SAPE   C3916529   6.090   4.578   9.367  1.5111  0.3928  0.5255
  149SAPE   H9X16530   6.134   4.477   9.356 -1.4913 -0.8598 -0.7699
  149SAPE   H9Y16531   6.171   4.649   9.394 -0.5094  3.6246 -1.5556
  149SAPE  C31016532   6.037   4.619   9.231  0.3370  0.1766  0.4262
  149SAPE  H10X16533   6.013   4.727   9.218 -0.2592 -0.0665 -0.5296
  149SAPE  H10Y16534   5.947   4.554   9.219  1.4350 -1.2229 -0.4626
  149SAPE  C31116535   6.140   4.582   9.128  0.9279  0.3420 -0.4195
  149SAPE  H11X16536   6.176   4.479   9.150  1.9136  1.1571  2.0148
  149SAPE  H11Y16537   6.226   4.650   9.147  0.3189  1.3431 -1.2555
  149SAPE  C31216538   6.088   4.571   8.982 -0.6697  0.2364  0.2851
  149SAPE  H12X16539   5.992   4.515   8.986  0.4131 -1.6927  0.4313
  149SAPE  H12Y16540   6.158   4.526   8.908 -0.8844  0.1009  0.1605
  149SAPE  C31316541   6.050   4.710   8.946  0.0751 -0.1336  0.7837
  149SAPE  H13X16542   6.135   4.781   8.952 -1.3837  1.8276 -0.7077
  149SAPE  H13Y16543   5.968   4.747   9.011 -2.2049 -1.8276 -1.0167
  149SAPE  C31416544   5.992   4.720   8.801  0.2839 -0.6073 -1.1173
  149SAPE  H14X16545   5.899   4.659   8.796 -1.2507  1.3397  1.9078
  149SAPE  H14Y16546   6.062   4.664   8.735  1.9142  0.0302  0.0378
  149SAPE  C31516547   5.983   4.867   8.747  0.5880 -0.1612  0.5162
  149SAPE  H15X16548   6.083   4.912   8.730 -0.3830  1.8831 -0.0566
  149SAPE  H15Y16549   5.931   4.920   8.830  0.1721  0.2605 -0.0069
  149SAPE  C31616550   5.883   4.864   8.624  0.6701  0.1644  0.6361
  149SAPE  H16X16551   5.788   4.818   8.658 -0.5240  1.7900 -0.4468
  149SAPE  H16Y16552   5.930   4.800   8.546  0.5209 -0.8522  1.3721
  149SAPE  C31716553   5.852   5.004   8.564 -0.1762  0.8489 -0.2681
  149SAPE  H17X16554   5.797   4.983   8.470  1.8981 -0.7652 -1.1708
  149SAPE  H17Y16555   5.948   5.054   8.538  0.0272  0.3076 -0.5637
  149SAPE  C31816556   5.763   5.097   8.644  0.4252  0.0383 -1.2810
  149SAPE  H18X16557   5.747   5.196   8.595 -1.4766  0.9947  1.1831
  149SAPE  H18Y16558   5.807   5.117   8.744  1.6619 -1.8009 -1.4320
  149SAPE  H18Z16559   5.665   5.047   8.661  0.1620  0.1288 -2.4598
  150SAPE     N16560   0.560   4.298  10.811  0.1347 -0.5272 -0.4944
  150SAPE   HN116561   0.551   4.237  10.895  1.6902 -1.8066 -1.2591
  150SAPE   HN216562   0.660   4.326  10.809  0.1630 -0.6450 -0.7201
  150SAPE   HN316563   0.492   4.376  10.823 -0.0771 -0.9114  0.9690
  150SAPE   C1216564   0.540   4.214  10.685 -0.2373 -0.6184  0.4633
  150SAPE  H12A16565   0.630   4.150  10.690 -0.1939 -0.6074 -0.1644
  150SAPE  H12B16566   0.539   4.278  10.594 -0.6339 -3.7363 -1.8150
  150SAPE   C1116567   0.408   4.134  10.699 -0.0228 -0.6278  0.0232
  150SAPE  H11A16568   0.398   4.075  10.605 -1.2195  1.9547 -1.5568
  150SAPE  H11B16569   0.314   4.193  10.701  0.7660  0.6380  1.2335
  150SAPE     P16570   0.437   3.895  10.821  0.1999  0.2892  0.3221
  150SAPE   O1316571   0.558   3.890  10.909 -0.2951 -0.0701 -0.0498
  150SAPE   O1416572   0.312   3.820  10.861  0.3944  0.1979 -0.2916
  150SAPE   O1216573   0.397   4.051  10.814 -0.3848 -0.3539  0.0864
  150SAPE   O1116574   0.469   3.862  10.673  0.6827 -0.1716  1.2276
  150SAPE    C116575   0.588   3.801  10.629 -0.3880 -0.4473  0.2815
  150SAPE    HA16576   0.667   3.811  10.707  0.1507 -0.8909 -0.2001
  150SAPE    HB16577   0.577   3.692  10.613 -1.1329 -0.5195  1.2495
  150SAPE    C216578   0.646   3.856  10.496 -0.0471  0.0486  0.3713
  150SAPE    HS16579   0.654   3.966  10.509  0.9060 -0.1341  1.4730
  150SAPE   O2116580   0.549   3.824  10.393  0.1020 -0.3234 -0.2961
  150SAPE   C2116581   0.521   3.917  10.314 -0.1277 -0.0250  0.3019
  150SAPE   O2216582   0.554   4.034  10.321  0.3040  0.2797 -0.0113
  150SAPE   C2216583   0.440   3.855  10.200 -0.5283  0.8731  0.1776
  150SAPE   H2R16584   0.518   3.816  10.132 -1.6629  0.0823 -0.7056
  150SAPE   H2S16585   0.377   3.775  10.244  0.7126  0.8913  2.0734
  150SAPE    C316586   0.785   3.799  10.460  0.4680  0.7920  1.1143
  150SAPE    HX16587   0.774   3.690  10.443  1.4094  0.6921  1.0885
  150SAPE    HY16588   0.852   3.804  10.549  1.1799  0.0465  0.6311
  150SAPE   O3116589   0.846   3.851  10.340 -0.5865  0.4471 -0.3902
  150SAPE   C3116590   0.909   3.962  10.351 -0.4604  0.5275  0.3173
  150SAPE   O3216591   0.911   4.033  10.451 -0.2242  0.0971 -0.2577
  150SAPE   C3216592   0.986   4.003  10.221 -0.1307 -0.3031 -0.1818
  150SAPE   H2X16593   1.073   3.933  10.222 -0.7937 -1.1525  2.5244
  150SAPE   H2Y16594   1.029   4.104  10.231  1.8516 -1.2767  1.5292
  150SAPE   C2316595   0.355   3.964  10.124  0.5871  0.1302  0.6377
  150SAPE   H3R16596   0.430   4.036  10.084  0.8003 -0.3443  0.1726
  150SAPE   H3S16597   0.297   4.023  10.197  1.0531 -0.7286  1.7125
  150SAPE   C2416598   0.267   3.905  10.008 -0.4976 -0.6560  0.6880
  150SAPE   H4R16599   0.198   3.982   9.967 -0.5651 -1.2478 -0.3166
  150SAPE   H4S16600   0.195   3.832  10.051 -2.6622  1.1436  0.2429
  150SAPE   C2516601   0.347   3.842   9.897  0.2235  0.7650  0.3694
  150SAPE   H5R16602   0.411   3.754   9.913 -0.7751  0.0925  0.6774
  150SAPE   C2616603   0.358   3.898   9.774 -0.4684 -0.5650  0.1763
  150SAPE   H6R16604   0.400   3.832   9.697  0.4706 -0.3859  0.5254
  150SAPE   C2716605   0.315   4.029   9.717  0.3639 -0.3008  0.6208
  150SAPE   H7R16606   0.205   4.023   9.720  0.3828 -0.0826  2.3358
  150SAPE   H7S16607   0.337   4.035   9.609  0.1997 -0.3210  0.5864
  150SAPE   C2816608   0.369   4.151   9.780 -0.1033  0.0046  0.6637
  150SAPE   H8R16609   0.380   4.151   9.890 -1.7039  2.2242  0.8596
  150SAPE   C2916610   0.415   4.262   9.719 -0.3669  0.4750 -0.1643
  150SAPE   H9R16611   0.463   4.344   9.776 -0.3447 -0.3518  1.0197
  150SAPE  C21016612   0.419   4.290   9.567  0.6964  0.7311  0.6370
  150SAPE  H10R16613   0.360   4.381   9.543 -0.9339 -0.7483 -1.1946
  150SAPE  H10S16614   0.367   4.208   9.514 -0.3227  2.3054 -0.8382
  150SAPE  C21116615   0.559   4.295   9.523 -0.2099  0.4433 -0.1279
  150SAPE  H11R16616   0.627   4.223   9.570 -2.7728 -1.3158  0.9640
  150SAPE  C21216617   0.616   4.376   9.438 -0.6815  0.5357  0.1893
  150SAPE  H12R16618   0.719   4.346   9.416 -1.0419  0.0837 -0.9673
  150SAPE  C21316619   0.557   4.491   9.363 -0.1607  0.3372  0.5111
  150SAPE  H13R16620   0.637   4.566   9.347 -0.6247  0.5100 -0.9951
  150SAPE  H13S16621   0.468   4.536   9.412 -1.4648 -1.3484 -0.2575
  150SAPE  C21416622   0.506   4.434   9.227  0.3316  0.5040 -0.4286
  150SAPE  H14R16623   0.493   4.327   9.204  0.6074  0.2293  0.6934
  150SAPE  C21516624   0.488   4.508   9.118 -0.0361 -0.4321 -0.3066
  150SAPE  H15R16625   0.454   4.458   9.026 -1.4352  0.1752 -0.1333
  150SAPE  C21616626   0.505   4.661   9.114  0.3963 -1.0474  0.3955
  150SAPE  H16R16627   0.601   4.690   9.066 -0.5051 -0.7969 -1.2787
  150SAPE  H16S16628   0.513   4.702   9.217  0.1397 -3.9411  1.5947
  150SAPE  C21716629   0.408   4.745   9.030  0.2503 -0.1974 -0.9642
  150SAPE  H17R16630   0.427   4.851   9.061 -0.2611 -0.1533 -0.8095
  150SAPE  H17S16631   0.299   4.732   9.047  0.3026  0.6707  0.0622
  150SAPE  C21816632   0.411   4.724   8.877  0.0296 -0.0828 -0.2113
  150SAPE  H18R16633   0.446   4.620   8.859 -0.7740 -0.3644 -0.1402
  150SAPE  H18S16634   0.493   4.784   8.831  0.4432 -0.4255  0.0728
  150SAPE  C21916635   0.276   4.733   8.802 -0.4734 -0.1134  0.3223
  150SAPE  H19R16636   0.226   4.823   8.844  0.0768  1.0620 -1.4869
  150SAPE  H19S16637   0.220   4.647   8.845  1.4703 -0.0725  3.0750
  150SAPE  C22016638   0.278   4.742   8.652 -0.2780 -0.9523  0.0110
  150SAPE  H20R16639   0.317   4.839   8.615 -1.1964 -0.1780  1.0536
  150SAPE  H20S16640   0.171   4.753   8.623 -0.3176  0.4265  0.6778
  150SAPE  H20T16641   0.335   4.658   8.605  0.7525  0.3620 -1.1284
  150SAPE   C3316642   0.906   3.982  10.086 -0.1920 -0.1892 -0.0406
  150SAPE   H3X16643   0.862   3.881  10.080 -1.2796  0.2930 -0.3977
  150SAPE   H3Y16644   0.985   3.982  10.007  1.8732  0.1178  1.9759
  150SAPE   C3416645   0.793   4.080  10.069 -0.4321  0.5084  0.1830
  150SAPE   H4X16646   0.836   4.175  10.029 -1.1534  0.3789 -0.9043
  150SAPE   H4Y16647   0.732   4.098  10.160 -1.9620 -0.1096 -0.7188
  150SAPE   C3516648   0.691   4.032   9.956 -0.2501 -0.0606  0.0355
  150SAPE   H5X16649   0.602   4.096   9.973 -0.5423 -0.6580  0.7399
  150SAPE   H5Y16650   0.665   3.924   9.960 -0.1479 -0.1985 -2.2975
  150SAPE   C3616651   0.743   4.066   9.810  0.5402 -0.1389 -0.3104
  150SAPE   H6X16652   0.781   4.170   9.813  1.9498 -0.6723  0.6503
  150SAPE   H6Y16653   0.648   4.062   9.752  0.0348 -1.8687  0.6166
  150SAPE   C3716654   0.847   3.976   9.749  0.8256  0.3418  0.5171
  150SAPE   H7X16655   0.827   3.869   9.770  3.2198 -0.4400 -0.8545
  150SAPE   H7Y16656   0.943   4.008   9.795  0.6176  1.6666  0.0767
  150SAPE   C3816657   0.869   3.983   9.599 -0.0629  0.0381  0.5550
  150SAPE   H8X16658   0.963   3.936   9.565  0.7384  0.9210  1.5337
  150SAPE   H8Y16659   0.884   4.089   9.573  0.5344  0.2233  1.6164
  150SAPE   C3916660   0.755   3.918   9.524 -0.2298  0.1847  0.3322
  150SAPE   H9X16661   0.657   3.950   9.566  0.0718  1.6318 -0.0567
  150SAPE   H9Y16662   0.770   3.808   9.534  2.0809  0.5930  1.7099
  150SAPE  C31016663   0.755   3.956   9.376 -0.1506 -0.2751 -0.2158
  150SAPE  H10X16664   0.853   3.924   9.333 -0.4847 -1.3946 -0.1466
  150SAPE  H10Y16665   0.738   4.064   9.356 -0.4301 -0.4263 -0.8167
  150SAPE  C31116666   0.645   3.891   9.296  0.4752  0.9470 -0.5485
  150SAPE  H11X16667   0.546   3.917   9.338 -0.7686 -1.5153 -1.8976
  150SAPE  H11Y16668   0.658   3.781   9.301 -0.5029  0.8649  0.5669
  150SAPE  C31216669   0.645   3.918   9.141  0.5329  0.5272 -0.1571
  150SAPE  H12X16670   0.746   3.893   9.102  0.4541 -0.1372  0.0443
  150SAPE  H12Y16671   0.623   4.026   9.127 -0.1694  0.4205  0.1037
  150SAPE  C31316672   0.528   3.848   9.073  0.2321  0.3443  1.0791
  150SAPE  H13X16673   0.441   3.847   9.142 -0.9126 -0.1123 -0.3381
  150SAPE  H13Y16674   0.558   3.741   9.071  0.2699  0.3249  2.7873
  150SAPE  C31416675   0.505   3.903   8.938  0.0741 -0.5384 -0.1972
  150SAPE  H14X16676   0.602   3.910   8.884  0.5981  0.5015  0.8732
  150SAPE  H14Y16677   0.467   4.007   8.951 -0.3692 -0.7272  0.0124
  150SAPE  C31516678   0.400   3.825   8.859  0.0627  0.5742 -0.3884
  150SAPE  H15X16679   0.308   3.808   8.919  0.0932  0.3949 -0.3909
  150SAPE  H15Y16680   0.442   3.724   8.839  1.3163  0.8583  0.7041
  150SAPE  C31616681   0.355   3.894   8.730  0.7818  0.3370 -0.5569
  150SAPE  H16X16682   0.448   3.899   8.670  0.0151 -0.4899 -1.8486
  150SAPE  H16Y16683   0.329   3.997   8.762  1.3555  1.7320 -4.3709
  150SAPE  C31716684   0.236   3.824   8.656  0.0895  0.0027  0.0152
  150SAPE  H17X16685   0.149   3.830   8.725  0.7340  4.3156  0.5942
  150SAPE  H17Y16686   0.249   3.715   8.637  0.9275  0.3241 -1.2688
  150SAPE  C31816687   0.206   3.883   8.516  0.1391  0.0520  0.1848
  150SAPE  H18X16688   0.300   3.892   8.458 -0.7007 -0.1858 -1.2556
  150SAPE  H18Y16689   0.160   3.983   8.529 -0.7683 -0.1186 -1.5555
  150SAPE  H18Z16690   0.130   3.813   8.473 -0.3337  0.5088  0.2679
  151SAPE     N16691   4.283   1.272  10.801  0.2028 -0.0927 -0.2788
  151SAPE   HN116692   4.271   1.369  10.837 -1.0911 -1.0259  1.8377
  151SAPE   HN216693   4.227   1.212  10.864  1.5507  0.5212  1.5488
  151SAPE   HN316694   4.381   1.236  10.801  0.2378 -0.0234 -1.3754
  151SAPE   C1216695   4.255   1.263  10.653  0.0936  0.3677  0.2421
  151SAPE  H12A16696   4.314   1.345  10.606  1.0502 -0.5264 -0.1404
  151SAPE  H12B16697   4.146   1.278  10.641 -0.3310 -1.3080  1.7447
  151SAPE   C1116698   4.307   1.134  10.588 -0.3117 -0.5717  0.1924
  151SAPE  H11A16699   4.275   1.137  10.482  0.2144  0.9623  0.0618
  151SAPE  H11B16700   4.257   1.048  10.636  1.1687 -2.1909 -1.0759
  151SAPE     P16701   4.531   1.022  10.519 -0.1983 -0.0188 -0.7741
  151SAPE   O1316702   4.669   1.008  10.588  0.3535 -0.4181 -0.0101
  151SAPE   O1416703   4.466   0.893  10.485 -0.7273  0.1131 -0.3125
  151SAPE   O1216704   4.442   1.121  10.604  0.2259  0.1394  0.3740
  151SAPE   O1116705   4.534   1.097  10.383 -0.1084 -0.6441 -0.0591
  151SAPE    C116706   4.563   1.242  10.379  0.2687  0.3360 -0.9476
  151SAPE    HA16707   4.499   1.306  10.443 -0.0703  0.5215 -1.4729
  151SAPE    HB16708   4.665   1.260  10.417  0.7496 -1.1841 -1.4658
  151SAPE    C216709   4.541   1.291  10.238  0.4718 -0.4220 -0.3114
  151SAPE    HS16710   4.621   1.255  10.170 -1.1049 -1.0845 -1.8515
  151SAPE   O2116711   4.554   1.427  10.254  0.0403  0.2334 -0.3585
  151SAPE   C2116712   4.606   1.491  10.151 -0.6513  0.7234 -0.5507
  151SAPE   O2216713   4.649   1.434  10.052 -0.5694  0.3543  0.0274
  151SAPE   C2216714   4.604   1.641  10.177 -0.0383 -0.4234 -0.5387
  151SAPE   H2R16715   4.499   1.661  10.206  0.7382  1.7730  0.9366
  151SAPE   H2S16716   4.668   1.653  10.268  0.8039 -0.3352 -1.1380
  151SAPE    C316717   4.403   1.242  10.188 -0.0803  0.1047  0.2762
  151SAPE    HX16718   4.329   1.312  10.233 -0.4609 -0.0092 -0.1744
  151SAPE    HY16719   4.371   1.147  10.238  0.7952  0.1480  0.9294
  151SAPE   O3116720   4.389   1.244  10.041  0.0944  0.0252  0.6947
  151SAPE   C3116721   4.391   1.122   9.989 -0.8772  0.7946 -0.2386
  151SAPE   O3216722   4.393   1.019  10.058 -0.0029  0.0496 -0.3568
  151SAPE   C3216723   4.402   1.125   9.842  0.0721 -0.1103 -0.4352
  151SAPE   H2X16724   4.480   1.198   9.813  0.4594 -0.8323 -1.1980
  151SAPE   H2Y16725   4.310   1.176   9.806 -1.3053 -1.7589  0.6150
  151SAPE   C2316726   4.653   1.724  10.052  0.3404  0.2861 -0.8398
  151SAPE   H3R16727   4.626   1.830  10.074  2.0180  0.7622 -0.9387
  151SAPE   H3S16728   4.600   1.692   9.960  0.5617  0.0609 -0.8872
  151SAPE   C2416729   4.805   1.717  10.025  0.7432 -0.1684 -0.5960
  151SAPE   H4R16730   4.822   1.607  10.021 -0.6631 -0.3566 -1.7751
  151SAPE   H4S16731   4.868   1.758  10.107  0.6649 -1.0883 -0.0662
  151SAPE   C2516732   4.829   1.790   9.898  0.4195  0.0569 -0.6183
  151SAPE   H5R16733   4.805   1.897   9.898 -3.0641 -0.6732 -1.4052
  151SAPE   C2616734   4.861   1.733   9.780 -0.3976  0.4367  0.5446
  151SAPE   H6R16735   4.879   1.810   9.704 -0.7220 -0.7585 -0.7823
  151SAPE   C2716736   4.883   1.580   9.755 -0.1046  0.5448  0.2784
  151SAPE   H7R16737   4.920   1.517   9.839 -2.0995 -1.9273 -0.6466
  151SAPE   H7S16738   4.963   1.577   9.678  0.6064 -0.7535  1.0412
  151SAPE   C2816739   4.750   1.519   9.719  0.2219 -0.2265  0.7767
  151SAPE   H8R16740   4.689   1.479   9.802 -2.3842  2.4888  0.2678
  151SAPE   C2916741   4.696   1.509   9.598  0.0228  0.0908 -0.4080
  151SAPE   H9R16742   4.594   1.472   9.581  0.0204 -1.6197  3.0128
  151SAPE  C21016743   4.757   1.568   9.470 -0.4103  0.5073 -0.9946
  151SAPE  H10R16744   4.730   1.490   9.395  1.6669 -1.6504  0.4275
  151SAPE  H10S16745   4.868   1.574   9.467 -0.2454 -1.4796  0.2662
  151SAPE  C21116746   4.703   1.709   9.433 -0.1413 -0.3606  0.0460
  151SAPE  H11R16747   4.718   1.785   9.512  0.6815 -2.3201  1.8096
  151SAPE  C21216748   4.648   1.752   9.320 -0.4677  0.4461 -0.6964
  151SAPE  H12R16749   4.599   1.851   9.309 -0.0434  0.7979  0.5496
  151SAPE  C21316750   4.641   1.670   9.193  0.7688  0.7364  0.2106
  151SAPE  H13R16751   4.541   1.673   9.145 -0.1241  1.6863  2.0592
  151SAPE  H13S16752   4.646   1.562   9.215  0.6289  0.7784  0.4562
  151SAPE  C21416753   4.753   1.712   9.107  0.1300  0.6186 -0.0112
  151SAPE  H14R16754   4.851   1.684   9.147  0.7459  1.3933 -0.9632
  151SAPE  C21516755   4.757   1.783   8.995 -0.0628 -0.3781  0.0851
  151SAPE  H15R16756   4.855   1.796   8.946 -0.4007 -0.0476 -0.4996
  151SAPE  C21616757   4.647   1.859   8.926  0.4402 -0.4519 -0.2928
  151SAPE  H16R16758   4.657   1.970   8.934 -0.0500 -0.4431  0.2785
  151SAPE  H16S16759   4.552   1.821   8.971  0.0496 -1.1002 -1.6371
  151SAPE  C21716760   4.641   1.835   8.770 -0.2491 -0.0890 -0.0221
  151SAPE  H17R16761   4.721   1.900   8.730  0.8621 -1.1309  0.4763
  151SAPE  H17S16762   4.545   1.870   8.725 -0.2697  0.9556  0.8168
  151SAPE  C21816763   4.657   1.694   8.726  0.1855 -0.6542  0.3160
  151SAPE  H18R16764   4.563   1.637   8.741 -0.0045  0.1695  2.4064
  151SAPE  H18S16765   4.738   1.635   8.775 -0.0569 -0.4814  0.9375
  151SAPE  C21916766   4.694   1.690   8.575  0.0552 -0.3319  0.1791
  151SAPE  H19R16767   4.618   1.753   8.524  0.2593 -0.9325 -0.8733
  151SAPE  H19S16768   4.677   1.589   8.533  0.4902 -0.2657 -0.1584
  151SAPE  C22016769   4.842   1.714   8.543  0.1746  0.2874 -0.6370
  151SAPE  H20R16770   4.877   1.798   8.606  0.9233 -0.0053 -0.6681
  151SAPE  H20S16771   4.856   1.745   8.437  0.2661  0.4852 -0.5686
  151SAPE  H20T16772   4.895   1.619   8.561 -0.3456 -0.1729 -1.4892
  151SAPE   C3316773   4.413   0.985   9.768 -0.3102  0.5669 -0.5350
  151SAPE   H3X16774   4.326   0.920   9.792 -0.2730  0.9844  0.7616
  151SAPE   H3Y16775   4.511   0.948   9.803 -0.8071  0.2439  0.5370
  151SAPE   C3416776   4.419   1.010   9.613 -0.5741 -0.8157  0.4799
  151SAPE   H4X16777   4.501   1.083   9.594 -0.6092  0.0473  3.3607
  151SAPE   H4Y16778   4.319   1.050   9.583  0.8669  3.5759  1.1422
  151SAPE   C3516779   4.436   0.876   9.527 -0.1740  0.3518  0.3458
  151SAPE   H5X16780   4.375   0.795   9.572  0.7551 -0.7004 -0.2597
  151SAPE   H5Y16781   4.545   0.855   9.524 -0.0890  0.7999  0.3985
  151SAPE   C3616782   4.384   0.897   9.381  0.2664 -0.0669  0.5971
  151SAPE   H6X16783   4.280   0.938   9.389  0.6483  1.5426 -2.2036
  151SAPE   H6Y16784   4.378   0.794   9.340 -1.7396 -0.6779  2.2889
  151SAPE   C3716785   4.467   0.998   9.303 -0.1842  0.6472  0.5599
  151SAPE   H7X16786   4.574   0.969   9.307 -0.3679 -0.2671 -0.7281
  151SAPE   H7Y16787   4.445   1.097   9.349 -0.0521  0.9802 -0.0946
  151SAPE   C3816788   4.428   1.002   9.154 -0.4056  0.0431  0.3245
  151SAPE   H8X16789   4.318   1.000   9.140 -0.2410  0.7510 -1.1539
  151SAPE   H8Y16790   4.479   0.920   9.098 -1.1595 -1.1262  1.3192
  151SAPE   C3916791   4.480   1.139   9.095 -0.3206 -0.6857 -0.3190
  151SAPE   H9X16792   4.578   1.158   9.144 -1.2664  2.6428  0.3533
  151SAPE   H9Y16793   4.417   1.222   9.133  1.1722  0.3229  0.0068
  151SAPE  C31016794   4.497   1.148   8.944 -0.2148  0.3467 -0.2190
  151SAPE  H10X16795   4.395   1.137   8.902 -0.7583 -0.6834  1.2918
  151SAPE  H10Y16796   4.562   1.067   8.905  1.5600  2.2184 -1.2217
  151SAPE  C31116797   4.559   1.282   8.898  0.5322 -0.5307  0.2560
  151SAPE  H11X16798   4.666   1.297   8.926  0.2538  0.8013  0.6270
  151SAPE  H11Y16799   4.515   1.368   8.952 -0.7702 -1.0510  0.0273
  151SAPE  C31216800   4.551   1.304   8.752 -0.2575  0.4025  0.4725
  151SAPE  H12X16801   4.576   1.203   8.714 -0.8595  0.2567  0.4604
  151SAPE  H12Y16802   4.628   1.377   8.719 -0.5779  0.4397 -0.1882
  151SAPE  C31316803   4.412   1.355   8.711  0.8576 -0.4993 -0.0632
  151SAPE  H13X16804   4.393   1.447   8.770 -4.6689 -1.7541  0.3942
  151SAPE  H13Y16805   4.349   1.267   8.740  1.6120 -1.3854 -1.0709
  151SAPE  C31416806   4.399   1.370   8.559 -0.1338  0.2330 -0.0935
  151SAPE  H14X16807   4.350   1.280   8.516 -0.8728  1.3877 -1.7625
  151SAPE  H14Y16808   4.498   1.376   8.508 -0.1405  1.9982  0.0646
  151SAPE  C31516809   4.319   1.503   8.533 -0.4791  0.8334 -0.1353
  151SAPE  H15X16810   4.386   1.582   8.573  2.2105 -0.1644 -2.4637
  151SAPE  H15Y16811   4.224   1.502   8.591 -0.0768  1.2491  0.5274
  151SAPE  C31616812   4.300   1.534   8.380  0.2834 -0.0763  0.4897
  151SAPE  H16X16813   4.257   1.442   8.335  3.1343 -1.3764  0.3158
  151SAPE  H16Y16814   4.401   1.545   8.336 -0.2412 -0.2400 -0.7671
  151SAPE  C31716815   4.209   1.661   8.362 -0.2310  0.1056  1.1934
  151SAPE  H17X16816   4.108   1.634   8.400 -0.7496 -0.0934 -0.2973
  151SAPE  H17Y16817   4.199   1.669   8.252 -0.1562  2.9357  1.3614
  151SAPE  C31816818   4.256   1.790   8.424 -0.3171  0.0164  0.1394
  151SAPE  H18X16819   4.357   1.822   8.388 -1.3217  4.0677  0.6561
  151SAPE  H18Y16820   4.270   1.794   8.534  2.8665  1.1301 -0.2289
  151SAPE  H18Z16821   4.197   1.879   8.395 -0.1603 -0.1185 -0.5932
  152SAPE     N16822   5.097   0.856  10.463  0.0608  0.2393  0.1072
  152SAPE   HN116823   5.055   0.933  10.519  0.2887  0.7790 -0.4648
  152SAPE   HN216824   5.036   0.826  10.385  0.6935 -0.4776 -0.1174
  152SAPE   HN316825   5.112   0.777  10.529 -0.9477 -0.7714 -0.8582
  152SAPE   C1216826   5.235   0.904  10.416 -0.4533 -0.2746 -0.0905
  152SAPE  H12A16827   5.292   0.945  10.503  3.0728  0.4835 -2.6558
  152SAPE  H12B16828   5.210   0.992  10.354 -1.6957  0.5752  1.5553
  152SAPE   C1116829   5.317   0.799  10.348  0.3470 -0.0006 -0.2582
  152SAPE  H11A16830   5.412   0.845  10.312  1.0587 -1.6406 -0.5612
  152SAPE  H11B16831   5.260   0.760  10.261 -2.4458  1.5332  0.8492
  152SAPE     P16832   5.474   0.697  10.535  0.0932 -0.4148 -0.1948
  152SAPE   O1316833   5.442   0.770  10.659 -0.6106 -0.1256  0.2223
  152SAPE   O1416834   5.540   0.565  10.537  0.1672 -0.4724  0.1915
  152SAPE   O1216835   5.344   0.693  10.446 -0.6604  0.3734  0.5319
  152SAPE   O1116836   5.571   0.789  10.452  0.8610 -0.6626 -0.9211
  152SAPE    C116837   5.649   0.726  10.348 -0.8203 -0.1835  0.1710
  152SAPE    HA16838   5.601   0.639  10.298 -3.0327  0.5639  0.9694
  152SAPE    HB16839   5.658   0.799  10.265  2.7612 -0.8764 -0.1668
  152SAPE    C216840   5.789   0.679  10.388  0.1796  0.0522 -1.1387
  152SAPE    HS16841   5.768   0.618  10.479 -0.9500  0.4571 -1.1161
  152SAPE   O2116842   5.870   0.787  10.413  0.6407  0.5239  0.2801
  152SAPE   C2116843   5.979   0.773  10.481  0.1820 -0.5512  0.5071
  152SAPE   O2216844   6.026   0.669  10.516  0.4888 -0.8246 -0.2412
  152SAPE   C2216845   6.029   0.912  10.505  0.3870  0.6856 -0.5367
  152SAPE   H2R16846   5.955   0.988  10.474  1.9420  2.1942 -0.6122
  152SAPE   H2S16847   6.033   0.911  10.616  1.3008 -1.0695 -0.5559
  152SAPE    C316848   5.861   0.581  10.283 -0.0460 -0.1670  0.1875
  152SAPE    HX16849   5.803   0.487  10.268  0.7148 -0.6731  0.3843
  152SAPE    HY16850   5.954   0.548  10.334  0.0114  0.7990  0.7098
  152SAPE   O3116851   5.890   0.642  10.159  0.8357 -0.0161 -0.1249
  152SAPE   C3116852   6.018   0.644  10.105 -0.3499  0.1906 -0.3466
  152SAPE   O3216853   6.116   0.602  10.163 -0.6093  0.0579  0.5843
  152SAPE   C3216854   6.009   0.705   9.974  0.7006 -0.9907  0.1315
  152SAPE   H2X16855   6.038   0.812   9.971 -2.3715 -0.1335 -0.6827
  152SAPE   H2Y16856   5.908   0.687   9.931  0.9586  1.8966 -1.8214
  152SAPE   C2316857   6.175   0.931  10.451 -0.6283 -0.2097  0.2805
  152SAPE   H3R16858   6.234   0.838  10.466 -1.3343 -1.0482 -1.8323
  152SAPE   H3S16859   6.228   1.011  10.506 -1.6526 -0.5748  1.8142
  152SAPE   C2416860   6.177   0.961  10.304 -0.3635  0.5366  0.1451
  152SAPE   H4R16861   6.072   0.994  10.290 -1.4193 -1.6818  2.2766
  152SAPE   H4S16862   6.196   0.867  10.249 -0.2210  1.1872 -0.9278
  152SAPE   C2516863   6.273   1.070  10.268  0.4697 -0.3064  0.2673
  152SAPE   H5R16864   6.247   1.163  10.320 -1.7000 -1.0655  0.5795
  152SAPE   C2616865   6.362   1.054  10.166 -0.7333 -0.0640 -0.1840
  152SAPE   H6R16866   6.420   1.142  10.136  0.8034 -2.4605 -4.8851
  152SAPE   C2716867   6.395   0.929  10.085  0.5591 -0.1671 -0.3083
  152SAPE   H7R16868   6.299   0.882  10.053 -0.5013  2.8256 -1.7317
  152SAPE   H7S16869   6.461   0.859  10.140  0.3355  0.3362  0.6171
  152SAPE   C2816870   6.473   0.966   9.963  0.0152 -0.3317 -0.4213
  152SAPE   H8R16871   6.581   0.945   9.973  0.0160  0.2269  0.8642
  152SAPE   C2916872   6.432   1.020   9.843 -0.5850  0.4194 -0.5729
  152SAPE   H9R16873   6.505   1.040   9.763  0.7590 -0.2878  0.4514
  152SAPE  C21016874   6.297   1.076   9.815  0.2410 -0.2222  0.3114
  152SAPE  H10R16875   6.230   1.061   9.902 -0.9096 -3.2483 -1.0490
  152SAPE  H10S16876   6.257   1.025   9.725 -0.4293  2.0064 -0.6935
  152SAPE  C21116877   6.310   1.225   9.806 -0.6459  0.2839  0.5055
  152SAPE  H11R16878   6.354   1.266   9.898 -0.5181  3.3720 -0.8851
  152SAPE  C21216879   6.266   1.312   9.718  0.6023  0.9038  0.5232
  152SAPE  H12R16880   6.283   1.419   9.734  0.7634  0.5153  3.1241
  152SAPE  C21316881   6.190   1.280   9.596 -0.3313 -0.4838 -0.8324
  152SAPE  H13R16882   6.134   1.185   9.611 -3.2173  1.2201 -0.3490
  152SAPE  H13S16883   6.260   1.270   9.510  0.9064 -0.0625  0.1193
  152SAPE  C21416884   6.074   1.385   9.572 -0.2999  0.0925  1.2814
  152SAPE  H14R16885   5.996   1.402   9.647 -1.1186  1.4969  0.1419
  152SAPE  C21516886   6.067   1.460   9.452  0.6602  0.4018 -0.1400
  152SAPE  H15R16887   5.989   1.537   9.441  0.5088  0.1228 -1.0455
  152SAPE  C21616888   6.154   1.454   9.332  0.4089 -0.5150  0.1643
  152SAPE  H16R16889   6.253   1.403   9.346  0.7068  0.3203  1.2162
  152SAPE  H16S16890   6.186   1.559   9.312 -0.8236 -0.5987 -2.2647
  152SAPE  C21716891   6.099   1.396   9.197 -1.0620  0.7379  0.1784
  152SAPE  H17R16892   6.036   1.311   9.228 -0.6411  0.0387 -0.8835
  152SAPE  H17S16893   6.191   1.366   9.143 -1.5663  0.3394 -0.4620
  152SAPE  C21816894   6.014   1.491   9.107 -0.5722 -0.2577  0.4227
  152SAPE  H18R16895   6.067   1.588   9.101  0.0296 -0.6100  0.0167
  152SAPE  H18S16896   5.914   1.516   9.150 -0.9321 -1.6507  0.4342
  152SAPE  C21916897   5.994   1.458   8.955 -1.0313  0.0756 -0.0105
  152SAPE  H19R16898   5.945   1.543   8.902 -1.7783  0.2412  0.9427
  152SAPE  H19S16899   5.933   1.369   8.931 -0.8790  0.0241 -0.2102
  152SAPE  C22016900   6.129   1.439   8.885  0.3105 -0.3583 -0.4749
  152SAPE  H20R16901   6.204   1.380   8.942  0.0679 -1.1358 -0.9571
  152SAPE  H20S16902   6.178   1.539   8.881 -0.4981  0.2205  2.4833
  152SAPE  H20T16903   6.119   1.390   8.786  0.2472 -3.4642  1.0190
  152SAPE   C3316904   6.102   0.641   9.874 -0.3524  0.5641 -0.5277
  152SAPE   H3X16905   6.190   0.592   9.920 -2.8638 -2.5021  1.1991
  152SAPE   H3Y16906   6.133   0.715   9.797 -0.0740  0.7317 -0.2533
  152SAPE   C3416907   6.037   0.530   9.797  0.5402  0.0036  0.2796
  152SAPE   H4X16908   5.933   0.566   9.784  0.7221  0.0899 -0.9353
  152SAPE   H4Y16909   6.024   0.437   9.857 -2.6712 -0.3266 -0.8449
  152SAPE   C3516910   6.099   0.489   9.662 -0.3341 -0.4362 -0.3620
  152SAPE   H5X16911   6.039   0.400   9.633  0.3015 -1.3104  0.9689
  152SAPE   H5Y16912   6.204   0.454   9.674 -0.7854 -0.9200  2.5234
  152SAPE   C3616913   6.086   0.591   9.542 -0.6852  0.3364  0.0707
  152SAPE   H6X16914   6.155   0.677   9.557  1.1511 -1.2196  0.8280
  152SAPE   H6Y16915   5.983   0.632   9.537 -0.8622 -0.2039 -0.7995
  152SAPE   C3716916   6.122   0.515   9.416  0.2252  0.3249  0.2174
  152SAPE   H7X16917   6.040   0.446   9.383 -0.0936  1.5352 -1.6265
  152SAPE   H7Y16918   6.213   0.452   9.417 -2.1140 -3.2222 -0.5039
  152SAPE   C3816919   6.119   0.608   9.288  0.2853 -0.1636  0.0552
  152SAPE   H8X16920   6.216   0.662   9.292 -0.9557  2.0774  1.0803
  152SAPE   H8Y16921   6.028   0.671   9.287  0.0565 -0.4904 -2.7831
  152SAPE   C3916922   6.114   0.524   9.161  0.3600  0.3333 -0.7599
  152SAPE   H9X16923   6.011   0.482   9.155  0.5961 -0.8171  2.0224
  152SAPE   H9Y16924   6.181   0.435   9.170  1.0725  1.0711  1.8565
  152SAPE  C31016925   6.144   0.614   9.034 -0.2441 -0.1477  0.5158
  152SAPE  H10X16926   6.245   0.659   9.043 -1.1893  2.2225 -0.4672
  152SAPE  H10Y16927   6.066   0.693   9.038 -1.3574 -1.0597 -1.9150
  152SAPE  C31116928   6.124   0.540   8.901  0.8124  0.1620  0.3659
  152SAPE  H11X16929   6.146   0.622   8.830  1.8140  1.3928  2.0582
  152SAPE  H11Y16930   6.017   0.512   8.899  0.9994 -0.4465 -2.5011
  152SAPE  C31216931   6.187   0.404   8.882  0.1884  0.4135  0.1187
  152SAPE  H12X16932   6.128   0.339   8.950  0.5530  1.8171  1.8113
  152SAPE  H12Y16933   6.295   0.405   8.909  0.6729 -1.0076 -1.6477
  152SAPE  C31316934   6.163   0.361   8.739  0.5836 -0.5986 -0.2860
  152SAPE  H13X16935   6.194   0.440   8.668  1.5201  0.8000  1.6127
  152SAPE  H13Y16936   6.054   0.343   8.730  0.5052 -1.1083  1.3936
  152SAPE  C31416937   6.234   0.228   8.703 -0.8042 -0.0609 -0.3265
  152SAPE  H14X16938   6.230   0.166   8.796  0.1699  0.8325  0.3290
  152SAPE  H14Y16939   6.340   0.254   8.686 -1.5614  1.1045 -3.4539
  152SAPE  C31516940   6.185   0.166   8.571 -0.2591  0.5244  0.5653
  152SAPE  H15X16941   6.088   0.120   8.599  0.2222 -1.3708 -0.8130
  152SAPE  H15Y16942   6.251   0.082   8.544  0.1404  0.9250  0.2865
  152SAPE  C31616943   6.188   0.269   8.458  0.2243  0.5067 -0.3521
  152SAPE  H16X16944   6.291   0.311   8.467  0.2687  0.9373 -2.6653
  152SAPE  H16Y16945   6.112   0.347   8.475  2.5148  2.2775  2.3294
  152SAPE  C31716946   6.155   0.208   8.326  0.0284  0.2735  0.1177
  152SAPE  H17X16947   6.236   0.138   8.297 -1.0241 -1.0565  0.3673
  152SAPE  H17Y16948   6.161   0.296   8.257 -0.4449  1.7432  1.9193
  152SAPE  C31816949   6.026   0.127   8.322  0.0244  0.1894 -0.7183
  152SAPE  H18X16950   5.952   0.159   8.399 -0.3727  0.0899 -1.0646
  152SAPE  H18Y16951   6.038   0.017   8.330  1.3660  0.3087 -0.9930
  152SAPE  H18Z16952   5.977   0.143   8.224  1.4723  0.3725 -1.4306
  153SAPE     N16953   6.128   2.218  10.608 -0.0311 -0.0728  0.5770
  153SAPE   HN116954   6.115   2.282  10.527  1.8629 -2.2550 -1.5512
  153SAPE   HN216955   6.218   2.168  10.599 -0.2848 -0.5329  0.5641
  153SAPE   HN316956   6.057   2.142  10.596 -0.9862  0.5482  2.1184
  153SAPE   C1216957   6.140   2.279  10.746  0.2107  0.4616 -0.0716
  153SAPE  H12A16958   6.069   2.364  10.752 -0.2930  0.1707 -1.6242
  153SAPE  H12B16959   6.246   2.302  10.769 -0.4989  2.9364  0.8306
  153SAPE   C1116960   6.110   2.173  10.852 -0.3129 -0.5972 -0.2595
  153SAPE  H11A16961   6.113   2.218  10.954 -1.5907  1.2439 -1.0163
  153SAPE  H11B16962   6.171   2.080  10.853 -0.0919 -0.4554 -0.5072
  153SAPE     P16963   5.915   1.999  10.775  0.4953 -0.1340 -0.6587
  153SAPE   O1316964   5.955   1.881  10.856  0.4258  0.6799 -0.3375
  153SAPE   O1416965   5.769   2.021  10.748  0.4435 -0.1958 -0.7197
  153SAPE   O1216966   5.971   2.139  10.833 -0.1994  0.0252 -0.9143
  153SAPE   O1116967   5.995   1.993  10.639 -0.0909  0.0677 -0.2763
  153SAPE    C116968   6.065   1.876  10.600 -0.1385  0.3598  0.5091
  153SAPE    HA16969   6.171   1.902  10.577 -0.7059  2.2894 -0.0746
  153SAPE    HB16970   6.051   1.789  10.668  1.7630 -0.9042 -0.6686
  153SAPE    C216971   5.997   1.824  10.467 -0.7042 -1.1064  0.4220
  153SAPE    HS16972   6.043   1.725  10.449  1.4778  0.1803 -1.3036
  153SAPE   O2116973   6.030   1.917  10.360  0.8316  0.1630 -0.5241
  153SAPE   C2116974   6.147   1.895  10.300 -0.0749  0.2623 -0.8849
  153SAPE   O2216975   6.224   1.801  10.326 -0.1774 -0.4104 -0.0318
  153SAPE   C2216976   6.165   2.001  10.195  0.0131 -0.0096 -0.2302
  153SAPE   H2R16977   6.225   2.085  10.235  1.5648 -0.5838 -1.2879
  153SAPE   H2S16978   6.209   1.952  10.105 -0.5533  3.0907 -2.2630
  153SAPE    C316979   5.845   1.803  10.479  0.2020  0.2041 -0.0540
  153SAPE    HX16980   5.802   1.904  10.494  0.8118  0.5220 -0.3864
  153SAPE    HY16981   5.843   1.742  10.572  0.7428 -1.3624 -1.0515
  153SAPE   O3116982   5.779   1.752  10.359 -0.1151 -0.2618 -0.0786
  153SAPE   C3116983   5.796   1.626  10.317 -0.0247 -0.2241 -1.1931
  153SAPE   O3216984   5.847   1.539  10.383 -0.0036 -0.5018  0.2211
  153SAPE   C3216985   5.740   1.611  10.174 -0.0011  0.3405  0.6197
  153SAPE   H2X16986   5.634   1.647  10.173  0.1071  0.6742  0.8637
  153SAPE   H2Y16987   5.738   1.500  10.169 -0.3893  0.4318 -1.6064
  153SAPE   C2316988   6.034   2.068  10.159  0.4067 -0.0588  0.3069
  153SAPE   H3R16989   6.002   2.123  10.249  0.5150 -1.4406  1.2073
  153SAPE   H3S16990   5.964   1.984  10.140  0.2644  0.3518 -1.0589
  153SAPE   C2416991   6.045   2.153  10.032 -0.6062 -0.0364 -0.2561
  153SAPE   H4R16992   6.120   2.233  10.048 -0.6122  0.2127 -1.4493
  153SAPE   H4S16993   5.945   2.202  10.024 -0.4923  0.1445 -0.5683
  153SAPE   C2516994   6.057   2.073   9.899 -0.1490  0.9826 -0.3182
  153SAPE   H5R16995   5.964   2.021   9.874 -0.5991  1.5149  0.2279
  153SAPE   C2616996   6.162   2.071   9.819  0.1546  0.4211  0.1674
  153SAPE   H6R16997   6.158   2.008   9.728  0.4318 -0.8472  1.0205
  153SAPE   C2716998   6.289   2.144   9.826 -0.4977  0.0108  0.4753
  153SAPE   H7R16999   6.360   2.072   9.780 -0.3881  0.2066  0.3357
  153SAPE   H7S17000   6.337   2.159   9.926  1.9644 -0.8321 -0.5305
  153SAPE   C2817001   6.284   2.279   9.755 -0.7027 -0.1170  0.7576
  153SAPE   H8R17002   6.300   2.363   9.824 -0.1867  0.8059 -0.4594
  153SAPE   C2917003   6.279   2.300   9.620  0.2396  0.3137 -0.1374
  153SAPE   H9R17004   6.278   2.408   9.603 -0.9270  0.4288  0.5777
  153SAPE  C21017005   6.269   2.205   9.495 -0.0232  0.7497 -0.1204
  153SAPE  H10R17006   6.214   2.265   9.419 -0.1994  3.6101  2.1520
  153SAPE  H10S17007   6.207   2.115   9.517 -0.0576  0.2672 -2.0881
  153SAPE  C21117008   6.414   2.167   9.459  0.3789 -0.1781  0.2982
  153SAPE  H11R17009   6.453   2.079   9.512 -1.2076 -0.1535  1.5463
  153SAPE  C21217010   6.492   2.227   9.366  0.1806 -0.1494  0.2229
  153SAPE  H12R17011   6.599   2.202   9.360  0.0623 -0.4159 -0.7879
  153SAPE  C21317012   6.459   2.336   9.266 -0.2012 -0.0296  0.3055
  153SAPE  H13R17013   6.491   2.434   9.306 -0.4216  0.1824 -0.0342
  153SAPE  H13S17014   6.348   2.335   9.261 -0.1896  0.8430 -0.3337
  153SAPE  C21417015   6.520   2.306   9.132 -0.2847  0.0976  0.6757
  153SAPE  H14R17016   6.629   2.316   9.127 -0.0625 -2.5764 -0.7820
  153SAPE  C21517017   6.464   2.263   9.022 -0.3549  0.7878  0.0383
  153SAPE  H15R17018   6.531   2.237   8.939  2.4968  0.4122  2.3650
  153SAPE  C21617019   6.322   2.247   8.985  0.4665  0.2171  0.2189
  153SAPE  H16R17020   6.254   2.258   9.072  1.1979 -1.6112  1.0343
  153SAPE  H16S17021   6.291   2.155   8.932 -4.2876  1.2230  0.9758
  153SAPE  C21717022   6.281   2.348   8.867 -0.0027 -0.0098 -0.4063
  153SAPE  H17R17023   6.282   2.446   8.920  0.9517  0.8350 -1.9480
  153SAPE  H17S17024   6.181   2.327   8.825 -0.3071 -2.8675  1.6553
  153SAPE  C21817025   6.386   2.349   8.750  0.2323  0.4635  0.7455
  153SAPE  H18R17026   6.379   2.244   8.716 -0.8902 -0.4118  3.5415
  153SAPE  H18S17027   6.489   2.364   8.789  1.9451  0.9069 -3.6065
  153SAPE  C21917028   6.361   2.454   8.641  0.1554 -0.7901  0.6078
  153SAPE  H19R17029   6.351   2.557   8.682 -0.5328 -0.2381 -0.8790
  153SAPE  H19S17030   6.263   2.430   8.593  0.0090 -0.6629  0.8386
  153SAPE  C22017031   6.467   2.461   8.533  0.7706  0.1985  0.3306
  153SAPE  H20R17032   6.501   2.362   8.496  2.1108  0.4996  0.7231
  153SAPE  H20S17033   6.562   2.506   8.569  0.2112  2.0752 -0.4787
  153SAPE  H20T17034   6.428   2.511   8.442  1.2712 -0.7928 -0.4320
  153SAPE   C3317035   5.838   1.681  10.070  0.6921  0.3973  0.0581
  153SAPE   H3X17036   5.945   1.658  10.088  1.3705  1.1649 -2.7749
  153SAPE   H3Y17037   5.830   1.790  10.087 -1.7858  0.5775 -1.9763
  153SAPE   C3417038   5.799   1.655   9.926  0.2532  0.2124 -0.9864
  153SAPE   H4X17039   5.860   1.721   9.861 -0.6801  2.3862  0.3128
  153SAPE   H4Y17040   5.691   1.682   9.925  0.3321  0.6035  0.7096
  153SAPE   C3517041   5.809   1.513   9.873 -0.4062  0.1119 -0.3411
  153SAPE   H5X17042   5.761   1.443   9.945 -1.0025  0.4913 -0.3575
  153SAPE   H5Y17043   5.915   1.481   9.869 -1.0228 -1.8628 -1.6003
  153SAPE   C3617044   5.748   1.505   9.728  0.2191 -0.0025 -0.3938
  153SAPE   H6X17045   5.802   1.551   9.643 -0.6491  0.8014 -0.5255
  153SAPE   H6Y17046   5.651   1.560   9.737  1.0114  1.3546  0.1413
  153SAPE   C3717047   5.706   1.361   9.681 -0.4692 -0.3796 -0.1285
  153SAPE   H7X17048   5.663   1.317   9.774  0.9236 -0.2549  0.5776
  153SAPE   H7Y17049   5.800   1.307   9.657  1.3009  2.1478  1.0006
  153SAPE   C3817050   5.595   1.368   9.562 -0.6874 -0.0381  0.1865
  153SAPE   H8X17051   5.500   1.404   9.608 -0.8280 -0.9741  0.6421
  153SAPE   H8Y17052   5.577   1.260   9.546  0.0157 -0.0241 -0.7348
  153SAPE   C3917053   5.642   1.434   9.441  0.4499 -0.0350  0.0820
  153SAPE   H9X17054   5.744   1.397   9.415  0.4401  1.0344 -1.6177
  153SAPE   H9Y17055   5.657   1.542   9.463 -0.5023 -0.0486  0.8020
  153SAPE  C31017056   5.561   1.417   9.312 -0.8040 -0.7616  0.2024
  153SAPE  H10X17057   5.465   1.471   9.323  0.2458  0.9311  1.3982
  153SAPE  H10Y17058   5.532   1.313   9.289 -4.3986  0.6793 -2.1016
  153SAPE  C31117059   5.627   1.475   9.181 -0.0297 -0.8203  0.0868
  153SAPE  H11X17060   5.726   1.425   9.184 -0.1990 -1.0953  2.1197
  153SAPE  H11Y17061   5.651   1.583   9.188  1.2661 -1.0165 -1.1337
  153SAPE  C31217062   5.540   1.433   9.067  0.3032  0.6299  0.1884
  153SAPE  H12X17063   5.447   1.493   9.060 -0.4268 -0.5753 -0.7525
  153SAPE  H12Y17064   5.516   1.325   9.076  1.3107  0.1046 -3.0067
  153SAPE  C31317065   5.606   1.460   8.936 -0.5007  1.2269 -0.1412
  153SAPE  H13X17066   5.704   1.407   8.946 -0.6391  1.2041  1.1441
  153SAPE  H13Y17067   5.625   1.569   8.928  0.1119  1.0817 -0.6849
  153SAPE  C31417068   5.541   1.396   8.814 -0.2133 -0.0384  0.0121
  153SAPE  H14X17069   5.555   1.453   8.720 -2.0362  0.4503  0.0213
  153SAPE  H14Y17070   5.438   1.410   8.855 -0.9129 -0.1436 -1.6346
  153SAPE  C31517071   5.573   1.249   8.796 -0.2282 -0.0100  0.0602
  153SAPE  H15X17072   5.569   1.203   8.897  0.7322 -2.1070 -0.8194
  153SAPE  H15Y17073   5.675   1.239   8.753 -0.6824 -0.7176 -0.8623
  153SAPE  C31617074   5.471   1.179   8.712  0.5880  0.3512  0.1651
  153SAPE  H16X17075   5.366   1.207   8.735 -0.0379 -1.1141 -0.7823
  153SAPE  H16Y17076   5.475   1.070   8.734 -1.2335  0.1687 -0.3389
  153SAPE  C31717077   5.507   1.190   8.563  0.8110  0.1325  0.0855
  153SAPE  H17X17078   5.607   1.152   8.533  0.6022 -0.6219  0.3173
  153SAPE  H17Y17079   5.497   1.299   8.546  1.2170  0.0487 -0.6905
  153SAPE  C31817080   5.403   1.116   8.476 -0.1486  0.3297  0.3292
  153SAPE  H18X17081   5.408   1.011   8.510 -1.0151 -0.0349 -0.6394
  153SAPE  H18Y17082   5.425   1.131   8.368 -0.2933 -0.7105  0.1486
  153SAPE  H18Z17083   5.302   1.156   8.498  0.5125  1.0060  2.2912
  154SAPE     N17084   6.140   1.806  11.012  0.3009  0.2044 -0.5952
  154SAPE   HN117085   6.107   1.844  10.920 -0.0986 -1.6698 -1.2607
  154SAPE   HN217086   6.067   1.744  11.052 -0.0039 -0.6995 -2.4543
  154SAPE   HN317087   6.147   1.891  11.070  2.6055 -0.2646 -0.1103
  154SAPE   C1217088   6.261   1.717  11.005 -0.7006 -0.1971 -0.7943
  154SAPE  H12A17089   6.232   1.627  10.946 -2.3867  0.7437 -1.4578
  154SAPE  H12B17090   6.283   1.694  11.111 -2.0080  3.2763  0.2872
  154SAPE   C1117091   6.374   1.799  10.942 -0.3325  0.6291  0.2774
  154SAPE  H11A17092   6.462   1.737  10.915 -1.5257 -1.2467  0.5333
  154SAPE  H11B17093   6.400   1.878  11.015 -0.4579  1.9629 -1.0956
  154SAPE     P17094   6.435   1.952  10.741 -0.0592  0.5504 -0.6837
  154SAPE   O1317095   6.350   2.037  10.651 -0.4635  0.2331 -0.1918
  154SAPE   O1417096   6.517   2.027  10.839  0.8464  0.2572 -0.1122
  154SAPE   O1217097   6.334   1.858  10.814  0.0371  0.8560  0.3302
  154SAPE   O1117098   6.537   1.855  10.656 -0.2978  0.0514  0.0704
  154SAPE    C117099   6.470   1.759  10.572  0.6080  0.5074 -0.0436
  154SAPE    HA17100   6.462   1.656  10.613  0.0439  0.2783 -0.7046
  154SAPE    HB17101   6.365   1.789  10.554  1.0560  3.5953  2.1887
  154SAPE    C217102   6.531   1.760  10.422  0.3815 -0.7253  0.2754
  154SAPE    HS17103   6.461   1.715  10.348 -1.9251  2.8204  0.1562
  154SAPE   O2117104   6.654   1.680  10.410  0.6418 -0.1018 -0.1057
  154SAPE   C2117105   6.630   1.550  10.374  0.1129  0.8151  0.4885
  154SAPE   O2217106   6.521   1.497  10.369  0.5438 -0.1825  0.1703
  154SAPE   C2217107   6.759   1.484  10.333  0.0727 -0.4166  0.1750
  154SAPE   H2R17108   6.844   1.490  10.404  1.3385 -2.2799 -1.1325
  154SAPE   H2S17109   6.725   1.380  10.316 -4.6930  0.5831  2.8797
  154SAPE    C317110   6.563   1.910  10.376 -0.5069  0.4041 -0.1846
  154SAPE    HX17111   6.647   1.932  10.445  0.5154 -2.2129 -0.5470
  154SAPE    HY17112   6.467   1.963  10.394 -2.0770 -1.6703 -2.1513
  154SAPE   O3117113   6.604   1.901  10.239 -0.1501  0.5465  0.2999
  154SAPE   C3117114   6.559   1.999  10.161  0.4889 -0.4644 -0.0633
  154SAPE   O3217115   6.489   2.093  10.207 -0.2486 -0.3267  0.4736
  154SAPE   C3217116   6.598   1.974  10.013 -0.4084  0.3329  0.4234
  154SAPE   H2X17117   6.503   1.999   9.962 -2.0102 -0.3565  2.9549
  154SAPE   H2Y17118   6.611   1.864  10.002  1.4713  0.3092  2.5152
  154SAPE   C2317119   6.831   1.548  10.209  0.6933 -0.1980 -0.3042
  154SAPE   H3R17120   6.928   1.502  10.180  1.9460  1.5593  0.9631
  154SAPE   H3S17121   6.874   1.645  10.243  1.0675 -0.1990 -0.7647
  154SAPE   C2417122   6.734   1.570  10.086  0.3238 -0.0898 -0.5073
  154SAPE   H4R17123   6.640   1.627  10.106  0.9738  1.6055 -2.1830
  154SAPE   H4S17124   6.707   1.466  10.058 -0.8624 -0.5433  2.1489
  154SAPE   C2517125   6.807   1.637   9.967  0.8892 -0.4977 -0.3123
  154SAPE   H5R17126   6.831   1.743   9.984 -0.5811 -0.0016 -1.2522
  154SAPE   C2617127   6.818   1.587   9.844 -0.3202 -0.3550 -0.0510
  154SAPE   H6R17128   6.862   1.654   9.768  0.5446 -1.1272 -0.2463
  154SAPE   C2717129   6.778   1.453   9.798 -0.3270 -0.2224  0.3130
  154SAPE   H7R17130   6.789   1.388   9.887  0.2479  0.5665  0.8247
  154SAPE   H7S17131   6.846   1.420   9.717  0.3409  1.3923  0.1828
  154SAPE   C2817132   6.638   1.448   9.754  0.2400 -0.1672 -0.5779
  154SAPE   H8R17133   6.567   1.439   9.838 -1.1401 -2.7382 -1.9358
  154SAPE   C2917134   6.591   1.452   9.629  0.7401  0.1456 -0.0670
  154SAPE   H9R17135   6.482   1.445   9.613  0.8022 -0.2448 -0.3214
  154SAPE  C21017136   6.680   1.465   9.508 -1.2181  0.7763  0.1092
  154SAPE  H10R17137   6.766   1.398   9.527 -0.3159  1.6529 -0.8969
  154SAPE  H10S17138   6.710   1.570   9.488 -0.9125  0.1381 -2.9190
  154SAPE  C21117139   6.605   1.428   9.386 -0.8472  0.3896  0.2114
  154SAPE  H11R17140   6.498   1.442   9.405 -0.6037  2.2412  0.2632
  154SAPE  C21217141   6.650   1.356   9.282 -0.3765 -0.3028 -0.0473
  154SAPE  H12R17142   6.589   1.343   9.192  0.1288 -2.1984 -0.1252
  154SAPE  C21317143   6.795   1.319   9.274  0.4284  0.0840  0.3908
  154SAPE  H13R17144   6.810   1.215   9.310  1.4262 -0.5509 -1.8051
  154SAPE  H13S17145   6.860   1.386   9.336  3.7679 -1.3670 -1.4242
  154SAPE  C21417146   6.855   1.329   9.136  0.3156  0.1154 -0.0341
  154SAPE  H14R17147   6.808   1.407   9.075 -1.1112 -1.0383 -0.4548
  154SAPE  C21517148   6.962   1.262   9.089 -0.1932  0.8364  0.2316
  154SAPE  H15R17149   6.978   1.269   8.981 -2.0865 -1.3206 -0.2184
  154SAPE  C21617150   7.046   1.163   9.170 -0.0393  0.0053 -0.9653
  154SAPE  H16R17151   7.015   1.145   9.275  0.3321  2.3727 -0.4289
  154SAPE  H16S17152   7.152   1.198   9.173  0.7806 -2.3620 -0.8467
  154SAPE  C21717153   7.055   1.017   9.126 -0.4452 -0.0570 -0.4580
  154SAPE  H17R17154   6.959   0.961   9.133  0.1871 -1.2383 -1.1504
  154SAPE  H17S17155   7.122   0.959   9.192  0.1134  0.0667 -0.9101
  154SAPE  C21817156   7.098   1.005   8.978 -0.3368  0.0750 -0.0101
  154SAPE  H18R17157   7.197   1.053   8.961  0.8603 -2.0383  0.7473
  154SAPE  H18S17158   7.021   1.062   8.922 -1.3399 -1.7866 -0.5559
  154SAPE  C21917159   7.122   0.855   8.923  0.8558  0.1414 -0.2172
  154SAPE  H19R17160   7.184   0.793   8.991 -0.0578  1.5162  1.9318
  154SAPE  H19S17161   7.183   0.875   8.832  0.4336  1.1739 -0.2851
  154SAPE  C22017162   6.990   0.800   8.874  0.3426  0.3268  1.1073
  154SAPE  H20R17163   6.919   0.778   8.957 -2.4307 -0.8042 -1.4738
  154SAPE  H20S17164   6.999   0.706   8.816  0.5779  0.6758  0.5810
  154SAPE  H20T17165   6.941   0.873   8.806  0.6330  0.6822  1.2788
  154SAPE   C3317166   6.734   2.050   9.982  0.6004  0.3968  0.2208
  154SAPE   H3X17167   6.823   1.985   9.994  0.4363 -0.1490 -1.4593
  154SAPE   H3Y17168   6.754   2.138  10.047  3.3125 -0.3612  0.4769
  154SAPE   C3417169   6.738   2.100   9.829  0.1976  0.7090  0.1504
  154SAPE   H4X17170   6.834   2.158   9.828  0.7734 -0.1959  1.5116
  154SAPE   H4Y17171   6.656   2.171   9.804  0.0388  0.4664 -0.0240
  154SAPE   C3517172   6.748   1.984   9.730  0.5642  0.3677 -0.2515
  154SAPE   H5X17173   6.664   1.916   9.759 -1.4121  2.6026 -0.5660
  154SAPE   H5Y17174   6.839   1.921   9.738 -0.5471 -1.1516  0.8215
  154SAPE   C3617175   6.737   2.023   9.588  0.2828 -0.0126  0.5177
  154SAPE   H6X17176   6.650   2.087   9.562  0.4462 -0.2392 -0.6138
  154SAPE   H6Y17177   6.723   1.927   9.533 -0.9588 -0.3923  1.4643
  154SAPE   C3717178   6.863   2.090   9.533 -0.0452 -0.3013 -0.4809
  154SAPE   H7X17179   6.947   2.019   9.548 -0.0915 -0.4662 -0.9971
  154SAPE   H7Y17180   6.889   2.170   9.606  0.4862 -2.2236  1.4834
  154SAPE   C3817181   6.860   2.129   9.386 -0.2245  0.0573  0.8465
  154SAPE   H8X17182   6.781   2.207   9.383  0.0637  0.3631  1.2669
  154SAPE   H8Y17183   6.830   2.041   9.325  0.2795  0.4710 -0.0057
  154SAPE   C3917184   6.988   2.178   9.322  0.7062  0.0654  0.0021
  154SAPE   H9X17185   7.061   2.095   9.333  1.8124  1.3970  3.0168
  154SAPE   H9Y17186   7.031   2.261   9.382  1.2737 -0.3044  0.1076
  154SAPE  C31017187   6.979   2.229   9.173  0.1292 -0.0102 -0.3839
  154SAPE  H10X17188   6.911   2.317   9.170  1.7408  1.4147  2.3892
  154SAPE  H10Y17189   6.945   2.152   9.100 -0.0386 -1.0547  0.7693
  154SAPE  C31117190   7.105   2.291   9.127 -0.7685  0.3301  0.3067
  154SAPE  H11X17191   7.149   2.330   9.221  2.1744  0.6078 -1.0958
  154SAPE  H11Y17192   7.087   2.380   9.063  0.7599 -0.7879 -1.7292
  154SAPE  C31217193   7.208   2.191   9.075  0.3988 -0.5334 -0.3909
  154SAPE  H12X17194   7.169   2.181   8.972  0.0211  0.9312 -0.4039
  154SAPE  H12Y17195   7.196   2.101   9.139  0.2435  1.3991  2.4495
  154SAPE  C31317196   7.345   2.244   9.072  0.7578 -0.0272 -0.0619
  154SAPE  H13X17197   7.380   2.239   9.178  0.4354  0.4542  0.0688
  154SAPE  H13Y17198   7.356   2.347   9.031 -0.3531 -0.4948 -1.5478
  154SAPE  C31417199   7.436   2.156   8.978 -0.4040  0.5422  0.2298
  154SAPE  H14X17200   7.424   2.050   9.010 -0.1117  1.2586  2.8449
  154SAPE  H14Y17201   7.543   2.183   8.994  0.3806 -1.4255 -1.4856
  154SAPE  C31517202   7.407   2.176   8.828  0.0779 -0.4209  0.1885
  154SAPE  H15X17203   7.432   2.280   8.796 -0.0882  0.9774  4.2641
  154SAPE  H15Y17204   7.300   2.154   8.811  0.5658 -2.1609 -0.7431
  154SAPE  C31617205   7.487   2.083   8.737 -0.3746 -0.5147  0.1114
  154SAPE  H16X17206   7.435   2.080   8.638 -0.1837  2.7284 -0.1450
  154SAPE  H16Y17207   7.492   1.983   8.785 -1.9319 -0.8529 -0.3742
  154SAPE  C31717208   7.628   2.148   8.714 -0.2113  0.5185  0.1573
  154SAPE  H17X17209   7.693   2.134   8.803  0.1699  1.1102 -0.0241
  154SAPE  H17Y17210   7.619   2.257   8.692 -0.5560  0.9441  2.3043
  154SAPE  C31817211   7.711   2.081   8.605  0.5684 -0.8618  0.7079
  154SAPE  H18X17212   7.685   1.973   8.609 -1.1954 -0.4623  0.3589
  154SAPE  H18Y17213   7.821   2.095   8.610  0.6255 -1.3175  0.7840
  154SAPE  H18Z17214   7.679   2.109   8.502  1.4126  0.6496  0.8484
  155SAPE     N17215   0.861   2.655  11.209 -0.5387 -0.2967 -0.5151
  155SAPE   HN117216   0.904   2.739  11.253 -0.8492 -0.5170  0.2103
  155SAPE   HN217217   0.840   2.590  11.288 -1.4732  0.7549  0.1207
  155SAPE   HN317218   0.934   2.602  11.158 -0.1877 -0.6176  0.3197
  155SAPE   C1217219   0.755   2.691  11.112 -0.4951  0.1938  0.2036
  155SAPE  H12A17220   0.702   2.781  11.150 -1.2980 -0.3165  0.3079
  155SAPE  H12B17221   0.685   2.605  11.104  1.2089 -1.1158 -1.2853
  155SAPE   C1117222   0.819   2.718  10.971 -0.0069  0.3520 -0.5063
  155SAPE  H11A17223   0.739   2.748  10.900  0.0310 -0.6941 -0.9987
  155SAPE  H11B17224   0.861   2.621  10.937  1.1379  1.4775 -2.3404
  155SAPE     P17225   1.002   2.890  10.891  0.0154  0.1435  0.2750
  155SAPE   O1317226   0.989   3.035  10.918  0.1661  0.1642 -0.1298
  155SAPE   O1417227   1.131   2.828  10.921 -0.3504 -0.1965  0.0230
  155SAPE   O1217228   0.907   2.822  10.998 -0.2718 -0.2062  0.0586
  155SAPE   O1117229   0.947   2.857  10.751 -0.2058  0.2077 -0.2802
  155SAPE    C117230   1.027   2.808  10.646  0.1063  0.1806 -0.3284
  155SAPE    HA17231   1.101   2.883  10.610  2.2504 -1.8838 -0.2938
  155SAPE    HB17232   1.081   2.722  10.690  2.6238  1.3872 -0.9516
  155SAPE    C217233   0.937   2.753  10.534 -0.0848  0.1707  0.0770
  155SAPE    HS17234   1.008   2.695  10.473  1.2303  0.2360  1.5178
  155SAPE   O2117235   0.881   2.865  10.455 -0.1941 -0.5267  0.0629
  155SAPE   C2117236   0.892   2.868  10.322  0.2115  0.0360 -0.1744
  155SAPE   O2217237   0.959   2.791  10.253  0.2434 -0.0269 -0.7344
  155SAPE   C2217238   0.800   2.969  10.267  0.2871  0.0725 -1.0693
  155SAPE   H2R17239   0.711   2.968  10.333  1.0199 -0.9763 -0.0668
  155SAPE   H2S17240   0.843   3.070  10.285  0.5978 -0.0535 -1.1045
  155SAPE    C317241   0.825   2.662  10.593 -0.3583 -1.2907 -0.8919
  155SAPE    HX17242   0.738   2.725  10.619 -0.5275 -2.0094  0.3107
  155SAPE    HY17243   0.860   2.608  10.684  0.8448  0.2931 -0.3967
  155SAPE   O3117244   0.786   2.552  10.515 -0.0535 -0.2804  0.0016
  155SAPE   C3117245   0.695   2.573  10.418 -0.3392 -1.1011 -0.5788
  155SAPE   O3217246   0.646   2.682  10.388 -0.5668 -0.1928 -0.7198
  155SAPE   C3217247   0.680   2.440  10.350  0.2521 -0.8884  0.5244
  155SAPE   H2X17248   0.591   2.387  10.390 -1.0240  1.7612  1.2969
  155SAPE   H2Y17249   0.772   2.378  10.348  0.7076 -0.2768  1.6335
  155SAPE   C2317250   0.771   2.960  10.121  0.3759 -1.0437  0.2207
  155SAPE   H3R17251   0.674   3.013  10.107  0.2295 -1.5435 -0.6686
  155SAPE   H3S17252   0.747   2.855  10.095 -1.2934 -0.0678 -2.3829
  155SAPE   C2417253   0.880   3.015  10.025 -0.5266 -0.5906 -0.5596
  155SAPE   H4R17254   0.847   2.996   9.921  0.6858  0.1482 -1.0773
  155SAPE   H4S17255   0.974   2.957  10.034 -0.7721 -1.1747 -1.6702
  155SAPE   C2517256   0.901   3.161  10.039  0.5471 -0.3671 -0.3250
  155SAPE   H5R17257   0.867   3.207  10.133  1.9890 -0.9982  0.5304
  155SAPE   C2617258   0.967   3.244   9.945  0.1944  0.4878  0.1064
  155SAPE   H6R17259   0.977   3.350   9.974  1.4678  0.3061  0.3454
  155SAPE   C2717260   1.045   3.199   9.818 -0.6150 -0.9293  0.1175
  155SAPE   H7R17261   1.003   3.245   9.726  0.1093 -1.0566 -0.2833
  155SAPE   H7S17262   1.036   3.088   9.810  0.6925 -0.9976 -0.5177
  155SAPE   C2817263   1.194   3.223   9.836 -0.6967 -0.0454  0.3336
  155SAPE   H8R17264   1.229   3.179   9.931 -0.3745 -2.3017 -0.7791
  155SAPE   C2917265   1.287   3.271   9.752  0.9980 -0.6998  0.2355
  155SAPE   H9R17266   1.393   3.276   9.782  0.8197 -0.5219  0.8494
  155SAPE  C21017267   1.257   3.319   9.613 -0.3615  0.6771 -0.4429
  155SAPE  H10R17268   1.189   3.405   9.629 -1.4624 -0.1930 -0.4263
  155SAPE  H10S17269   1.178   3.252   9.574  0.6599 -1.2695  0.7854
  155SAPE  C21117270   1.368   3.341   9.509  0.3217 -0.0005 -0.0213
  155SAPE  H11R17271   1.454   3.395   9.552  0.7147  0.0457 -0.8508
  155SAPE  C21217272   1.372   3.282   9.386  0.1956 -0.6411  0.1654
  155SAPE  H12R17273   1.445   3.326   9.316 -1.9979  1.0809 -1.1281
  155SAPE  C21317274   1.268   3.196   9.311 -0.1178  0.8341  0.0604
  155SAPE  H13R17275   1.187   3.257   9.266  0.9326  0.9030 -1.7883
  155SAPE  H13S17276   1.217   3.132   9.385  0.0301  1.4027  0.6568
  155SAPE  C21417277   1.320   3.111   9.201  0.3249  0.1470 -0.3186
  155SAPE  H14R17278   1.288   3.008   9.217 -0.4955  0.5647  0.7807
  155SAPE  C21517279   1.376   3.143   9.085  0.1857  0.2699  0.1873
  155SAPE  H15R17280   1.399   3.061   9.015 -3.1096  1.1685 -2.0814
  155SAPE  C21617281   1.412   3.275   9.033  0.4779  0.1150  0.1232
  155SAPE  H16R17282   1.364   3.361   9.084 -0.4385 -0.9630  1.0933
  155SAPE  H16S17283   1.374   3.282   8.928  3.1484  0.6580 -0.8410
  155SAPE  C21717284   1.563   3.299   9.015 -0.4467 -0.3539 -0.4395
  155SAPE  H17R17285   1.595   3.223   8.941  2.3972 -0.4065  0.7855
  155SAPE  H17S17286   1.618   3.303   9.112 -2.7620  0.7703  0.8826
  155SAPE  C21817287   1.582   3.435   8.950  0.2831 -0.4923 -0.3775
  155SAPE  H18R17288   1.499   3.484   8.895 -1.0915 -1.2151  1.0258
  155SAPE  H18S17289   1.672   3.432   8.885  1.0130  1.7314  0.4578
  155SAPE  C21917290   1.611   3.546   9.055 -0.2105  1.9723  0.0608
  155SAPE  H19R17291   1.686   3.505   9.127  0.1307  0.8862 -0.8949
  155SAPE  H19S17292   1.518   3.560   9.115  0.6388  0.4086  1.8186
  155SAPE  C22017293   1.649   3.687   9.009  0.2203 -0.8997  0.5362
  155SAPE  H20R17294   1.735   3.674   8.940  0.3144  1.5701  0.1279
  155SAPE  H20S17295   1.685   3.750   9.093 -0.1837  1.2036 -0.8290
  155SAPE  H20T17296   1.556   3.736   8.972  0.6572  0.6827  1.4691
  155SAPE   C3317297   0.644   2.464  10.206  0.0712  0.2709  0.4785
  155SAPE   H3X17298   0.556   2.531  10.193  0.0811  0.5931  1.9447
  155SAPE   H3Y17299   0.612   2.370  10.157  2.4804  0.5182 -1.6609
  155SAPE   C3417300   0.773   2.502  10.130 -0.2976  0.3866 -0.3660
  155SAPE   H4X17301   0.863   2.444  10.161 -0.8518 -0.0274  0.4996
  155SAPE   H4Y17302   0.799   2.609  10.145  1.6551 -0.1746  0.5848
  155SAPE   C3517303   0.749   2.467   9.984 -0.0045  0.6001  0.0809
  155SAPE   H5X17304   0.662   2.522   9.942 -0.2937 -0.5970 -0.9012
  155SAPE   H5Y17305   0.713   2.363   9.967 -0.6438  1.0368 -1.2775
  155SAPE   C3617306   0.877   2.493   9.901 -0.4032 -0.3218  0.3289
  155SAPE   H6X17307   0.866   2.437   9.806 -2.1633  0.2313  0.1800
  155SAPE   H6Y17308   0.965   2.442   9.946 -1.2974 -0.6048  1.8034
  155SAPE   C3717309   0.901   2.641   9.868  0.1924 -0.6068  0.4590
  155SAPE   H7X17310   0.941   2.692   9.958 -0.0533  0.2736  0.0698
  155SAPE   H7Y17311   0.806   2.693   9.845  0.2038 -1.2046 -1.0181
  155SAPE   C3817312   0.983   2.658   9.738 -0.4690  0.2030  0.8034
  155SAPE   H8X17313   0.916   2.651   9.650 -0.7152  0.2994  0.9835
  155SAPE   H8Y17314   1.048   2.569   9.721 -0.5583  0.2698  0.0930
  155SAPE   C3917315   1.047   2.795   9.729 -0.1962 -0.2978  0.6860
  155SAPE   H9X17316   1.067   2.809   9.838  1.9936 -0.5923  0.3329
  155SAPE   H9Y17317   0.982   2.876   9.689  0.3226 -0.2229 -0.0097
  155SAPE  C31017318   1.172   2.790   9.639 -0.0960  0.2821  0.5355
  155SAPE  H10X17319   1.246   2.727   9.693 -1.6658 -0.4706  1.8535
  155SAPE  H10Y17320   1.216   2.891   9.632  0.7741  0.1756  3.7376
  155SAPE  C31117321   1.149   2.744   9.499 -0.3032  0.2919  0.0724
  155SAPE  H11X17322   1.069   2.803   9.450 -0.4300  0.0842  0.0295
  155SAPE  H11Y17323   1.117   2.637   9.496 -0.0488  0.2011  0.5782
  155SAPE  C31217324   1.265   2.757   9.412  0.3216  0.0819  0.3137
  155SAPE  H12X17325   1.340   2.693   9.463 -1.5240 -0.4827  2.3938
  155SAPE  H12Y17326   1.299   2.863   9.411 -2.1863  0.9415  2.2861
  155SAPE  C31317327   1.224   2.729   9.270  0.5674 -0.3245  0.3157
  155SAPE  H13X17328   1.166   2.817   9.236  0.8891  0.2349  1.1980
  155SAPE  H13Y17329   1.158   2.641   9.256 -0.5863  0.9217 -2.4123
  155SAPE  C31417330   1.343   2.694   9.179  0.1224 -0.0322  0.3129
  155SAPE  H14X17331   1.383   2.591   9.188  0.1320 -0.1959 -1.4233
  155SAPE  H14Y17332   1.426   2.760   9.211 -0.8020  0.6590  1.3285
  155SAPE  C31517333   1.318   2.716   9.029 -0.2748 -0.5475  0.0952
  155SAPE  H15X17334   1.417   2.753   8.996 -1.6339  2.0319 -1.2768
  155SAPE  H15Y17335   1.235   2.788   9.012 -0.4888 -1.2388 -1.8594
  155SAPE  C31617336   1.292   2.591   8.954 -0.1093  0.3471 -0.0748
  155SAPE  H16X17337   1.191   2.561   8.990 -1.0562  2.0592 -1.2591
  155SAPE  H16Y17338   1.355   2.504   8.983 -1.1687 -1.2657 -2.4044
  155SAPE  C31717339   1.301   2.612   8.807 -0.3912  0.1330  0.7154
  155SAPE  H17X17340   1.408   2.628   8.782 -0.2690 -1.6366  0.0393
  155SAPE  H17Y17341   1.247   2.705   8.779  1.4628  1.2929  0.9170
  155SAPE  C31817342   1.244   2.493   8.729  0.2322 -0.3559 -0.3593
  155SAPE  H18X17343   1.263   2.501   8.620 -0.7854  1.9201 -0.4091
  155SAPE  H18Y17344   1.137   2.470   8.750  0.6075 -0.4393  1.5245
  155SAPE  H18Z17345   1.283   2.394   8.762  0.7780 -0.8086 -2.3161
  156SAPE     N17346   4.417   0.812  10.233 -0.1994  0.0798 -1.1283
  156SAPE   HN117347   4.432   0.855  10.327 -1.0498 -0.7769 -0.5937
  156SAPE   HN217348   4.404   0.892  10.168  0.1993 -0.0813 -1.4119
  156SAPE   HN317349   4.327   0.759  10.239  0.6891 -1.4583 -1.0332
  156SAPE   C1217350   4.537   0.741  10.180 -0.0626  0.1271 -0.2101
  156SAPE  H12A17351   4.510   0.707  10.078  1.1395  0.7790 -0.7510
  156SAPE  H12B17352   4.565   0.651  10.239  0.3887 -0.0048 -0.6201
  156SAPE   C1117353   4.662   0.829  10.170  0.7874 -0.5531  0.8473
  156SAPE  H11A17354   4.695   0.857  10.273  0.6444 -1.0858  1.0412
  156SAPE  H11B17355   4.648   0.927  10.121  0.4787 -1.5934 -1.1770
  156SAPE     P17356   4.880   0.673  10.165 -0.3040 -0.5500 -0.1113
  156SAPE   O1317357   4.940   0.741  10.280 -0.2409 -0.0910  0.4996
  156SAPE   O1417358   4.828   0.543  10.211  0.0433  0.0868 -0.4016
  156SAPE   O1217359   4.762   0.750  10.100  0.0727  0.4594 -0.3532
  156SAPE   O1117360   4.989   0.667  10.055  0.0202  0.0530 -0.1101
  156SAPE    C117361   4.965   0.716   9.923 -0.3519  0.1374 -0.4452
  156SAPE    HA17362   4.895   0.647   9.872 -0.9914  0.1570  0.3945
  156SAPE    HB17363   4.920   0.817   9.910 -0.9175 -0.3480 -2.5083
  156SAPE    C217364   5.097   0.713   9.840 -0.0999  0.3556 -0.2215
  156SAPE    HS17365   5.076   0.760   9.741  2.6908  1.1831 -0.4684
  156SAPE   O2117366   5.144   0.572   9.835 -0.9981 -0.6351  0.1709
  156SAPE   C2117367   5.080   0.499   9.749 -0.1058  0.0198  0.5648
  156SAPE   O2217368   5.009   0.539   9.658 -0.9578 -0.6445  0.2152
  156SAPE   C2217369   5.076   0.352   9.794  0.1165 -0.5242 -0.4502
  156SAPE   H2R17370   5.021   0.353   9.890 -0.0370 -1.2052 -0.5262
  156SAPE   H2S17371   5.018   0.299   9.716  1.3158  0.5708 -2.1287
  156SAPE    C317372   5.205   0.802   9.916  0.5280 -0.3724  0.0880
  156SAPE    HX17373   5.219   0.766  10.020  0.3282  1.2614  0.7057
  156SAPE    HY17374   5.163   0.903   9.938 -1.6084 -1.8980  3.4344
  156SAPE   O3117375   5.330   0.815   9.860 -0.3502  0.2866  0.6375
  156SAPE   C3117376   5.435   0.740   9.909  0.4545 -0.0941 -0.8845
  156SAPE   O3217377   5.433   0.663  10.002  0.1322  0.1158 -0.7856
  156SAPE   C3217378   5.565   0.770   9.837  0.9430 -0.3566 -0.2659
  156SAPE   H2X17379   5.645   0.806   9.906  1.4567 -0.4633 -0.7983
  156SAPE   H2Y17380   5.544   0.849   9.761 -1.0509  1.6153  2.2512
  156SAPE   C2317381   5.212   0.286   9.808 -0.6749  0.0119  0.8180
  156SAPE   H3R17382   5.207   0.186   9.856  0.7624 -0.0429  0.8765
  156SAPE   H3S17383   5.268   0.357   9.873 -0.4351  0.9916 -0.4428
  156SAPE   C2417384   5.295   0.261   9.677 -0.4906  0.1497 -0.8815
  156SAPE   H4R17385   5.398   0.225   9.699 -0.2951  1.6726  0.8119
  156SAPE   H4S17386   5.317   0.366   9.646  3.0588 -0.5687 -1.0699
  156SAPE   C2517387   5.224   0.174   9.573  1.0284  0.2588 -0.4865
  156SAPE   H5R17388   5.156   0.100   9.618  1.1999  1.0982  1.1983
  156SAPE   C2617389   5.206   0.194   9.441  0.0186  0.1527  0.8822
  156SAPE   H6R17390   5.156   0.111   9.389  3.1028 -1.2751  0.0667
  156SAPE   C2717391   5.273   0.304   9.352  0.1076 -0.0941 -0.5772
  156SAPE   H7R17392   5.359   0.265   9.294  2.7728  2.0585  1.7371
  156SAPE   H7S17393   5.320   0.386   9.411 -1.4681  0.6314 -0.3047
  156SAPE   C2817394   5.164   0.363   9.271  0.0884 -0.3372  0.2436
  156SAPE   H8R17395   5.091   0.425   9.326 -0.5830  0.2759 -1.3061
  156SAPE   C2917396   5.147   0.367   9.138  0.7512  0.2335 -0.9304
  156SAPE   H9R17397   5.058   0.416   9.096  0.9785  1.5444  0.0870
  156SAPE  C21017398   5.235   0.301   9.033 -0.9811  0.4116  0.6060
  156SAPE  H10R17399   5.281   0.210   9.076  0.5143  0.7401 -0.2559
  156SAPE  H10S17400   5.320   0.360   8.993  0.3163 -0.9168  1.3673
  156SAPE  C21117401   5.147   0.248   8.921 -0.1453  0.6359 -1.0983
  156SAPE  H11R17402   5.124   0.141   8.911 -0.9652  0.4736  1.9711
  156SAPE  C21217403   5.101   0.312   8.818  0.0035  0.0420 -0.4135
  156SAPE  H12R17404   5.032   0.261   8.750  0.4485 -1.6724  0.3886
  156SAPE  C21317405   5.119   0.461   8.790  0.4071 -0.0867 -0.3434
  156SAPE  H13R17406   5.163   0.519   8.874  0.7982  1.1604 -1.3805
  156SAPE  H13S17407   5.017   0.504   8.786  0.9237  1.2875  0.6905
  156SAPE  C21417408   5.187   0.496   8.654  0.5576  0.1376 -0.9563
  156SAPE  H14R17409   5.223   0.409   8.597 -2.5537 -1.8613 -0.0136
  156SAPE  C21517410   5.211   0.613   8.608  0.1997  0.4217  0.3668
  156SAPE  H15R17411   5.252   0.628   8.508 -1.5447  0.7420 -0.3163
  156SAPE  C21617412   5.169   0.745   8.682 -0.1414 -0.3882 -0.0341
  156SAPE  H16R17413   5.079   0.720   8.742 -1.6726  2.3946 -1.0757
  156SAPE  H16S17414   5.130   0.822   8.613  1.1568 -1.5068 -2.0940
  156SAPE  C21717415   5.277   0.799   8.771 -0.0985 -0.2013 -0.5049
  156SAPE  H17R17416   5.370   0.829   8.718 -1.4703  1.9168 -1.7890
  156SAPE  H17S17417   5.306   0.715   8.838  4.4693  0.0675 -1.9377
  156SAPE  C21817418   5.239   0.927   8.840  0.4540 -0.5041  0.0541
  156SAPE  H18R17419   5.133   0.909   8.869 -0.7967  3.0285 -2.0395
  156SAPE  H18S17420   5.230   1.019   8.778 -4.3107 -1.1338 -0.4173
  156SAPE  C21917421   5.312   0.952   8.982 -0.8505  0.0211  0.0682
  156SAPE  H19R17422   5.419   0.972   8.961 -1.1638  1.2184 -0.4222
  156SAPE  H19S17423   5.278   0.864   9.041 -2.1760 -1.5163 -2.8558
  156SAPE  C22017424   5.253   1.082   9.041 -0.2566 -0.6176  0.0114
  156SAPE  H20R17425   5.275   1.080   9.150 -1.5805 -0.1749  0.3062
  156SAPE  H20S17426   5.143   1.074   9.030 -0.2989  0.7442 -0.6761
  156SAPE  H20T17427   5.298   1.170   8.989 -2.3209 -0.7836 -2.1099
  156SAPE   C3317428   5.621   0.642   9.773  0.1824  0.7472 -0.4933
  156SAPE   H3X17429   5.626   0.559   9.846 -0.0147 -1.2392 -2.6585
  156SAPE   H3Y17430   5.723   0.669   9.739  0.9620 -1.2007  0.2392
  156SAPE   C3417431   5.544   0.601   9.648  0.5759  0.0663 -0.5115
  156SAPE   H4X17432   5.434   0.598   9.668  0.5225  0.2491 -0.7867
  156SAPE   H4Y17433   5.585   0.499   9.633 -0.6364 -0.5957  0.5436
  156SAPE   C3517434   5.582   0.688   9.518  0.1833  0.4784  0.0559
  156SAPE   H5X17435   5.693   0.679   9.517  0.0462 -1.5699  0.5919
  156SAPE   H5Y17436   5.554   0.795   9.533 -1.1068 -0.0324  1.4203
  156SAPE   C3617437   5.514   0.618   9.399  0.2429  0.3988  1.1895
  156SAPE   H6X17438   5.405   0.636   9.405  0.4051  1.2045  1.7464
  156SAPE   H6Y17439   5.538   0.511   9.419 -0.5064 -0.3351 -1.6935
  156SAPE   C3717440   5.577   0.669   9.272 -0.3434  0.2904 -0.4706
  156SAPE   H7X17441   5.688   0.675   9.274 -0.3088 -0.4019  3.9128
  156SAPE   H7Y17442   5.543   0.773   9.256 -0.2651  0.7107  1.9476
  156SAPE   C3817443   5.552   0.574   9.155 -0.1042 -0.1418 -0.1163
  156SAPE   H8X17444   5.445   0.580   9.124 -0.3129  0.3962  0.7196
  156SAPE   H8Y17445   5.569   0.475   9.201  0.8501  0.1983  0.2817
  156SAPE   C3917446   5.647   0.605   9.048  0.1361  0.0482  0.2395
  156SAPE   H9X17447   5.740   0.547   9.068 -0.3435 -1.7903 -2.4446
  156SAPE   H9Y17448   5.674   0.712   9.040  0.4186 -0.0078  0.4473
  156SAPE  C31017449   5.592   0.556   8.915 -0.2984  0.1725  0.4338
  156SAPE  H10X17450   5.499   0.614   8.894  0.0760  0.5835 -0.1035
  156SAPE  H10Y17451   5.563   0.449   8.928 -3.1294  0.9400  0.9195
  156SAPE  C31117452   5.694   0.590   8.807 -0.1433  0.4962  0.0575
  156SAPE  H11X17453   5.784   0.533   8.840 -0.4020  1.4023  2.4417
  156SAPE  H11Y17454   5.713   0.698   8.792 -0.0609  0.8794  2.6590
  156SAPE  C31217455   5.654   0.525   8.669 -0.1358  0.0021  0.3332
  156SAPE  H12X17456   5.565   0.581   8.633  0.3007  0.8209  0.5039
  156SAPE  H12Y17457   5.626   0.419   8.689  1.8369 -0.2889  1.7574
  156SAPE  C31317458   5.766   0.535   8.562 -0.0482 -0.2182  0.2103
  156SAPE  H13X17459   5.855   0.486   8.608  0.7181  0.6611 -0.3227
  156SAPE  H13Y17460   5.776   0.644   8.547 -1.2387  0.2042  2.2758
  156SAPE  C31417461   5.721   0.475   8.426  0.0891 -0.6028  0.1577
  156SAPE  H14X17462   5.629   0.525   8.388  1.0834 -1.0884 -3.0638
  156SAPE  H14Y17463   5.685   0.373   8.450 -0.9388 -0.1648  0.4933
  156SAPE  C31517464   5.835   0.469   8.322 -0.0844  0.7126  0.2077
  156SAPE  H15X17465   5.907   0.391   8.356  1.3958  1.7777 -0.4102
  156SAPE  H15Y17466   5.898   0.561   8.318  0.1661  0.4966 -1.2269
  156SAPE  C31617467   5.781   0.443   8.181  0.2716  0.7359  0.1713
  156SAPE  H16X17468   5.723   0.531   8.148 -3.1600 -2.0627 -1.5687
  156SAPE  H16Y17469   5.716   0.353   8.179  0.3414  0.6531  1.4813
  156SAPE  C31717470   5.890   0.396   8.079 -0.5659 -0.8179 -0.1511
  156SAPE  H17X17471   5.870   0.302   8.023  2.7197 -0.0084 -2.8517
  156SAPE  H17Y17472   5.976   0.381   8.147 -0.3116 -1.2226 -0.5554
  156SAPE  C31817473   5.923   0.508   7.985  0.3225 -0.1181 -0.2885
  156SAPE  H18X17474   5.852   0.524   7.901  0.5441 -0.5912 -0.5696
  156SAPE  H18Y17475   6.012   0.465   7.934 -0.7774  0.1523 -2.4722
  156SAPE  H18Z17476   5.955   0.603   8.034 -0.2597  0.1713 -0.4670
  157SAPE     N17477   3.684   0.345  10.769  0.0012  0.3469  0.6191
  157SAPE   HN117478   3.653   0.433  10.814 -1.5217 -0.6210  1.4764
  157SAPE   HN217479   3.624   0.268  10.804 -0.1380 -0.0938 -0.5557
  157SAPE   HN317480   3.782   0.329  10.802  0.1629  1.1684  0.5535
  157SAPE   C1217481   3.668   0.353  10.617 -1.2697 -0.2796 -0.3015
  157SAPE  H12A17482   3.570   0.402  10.596 -0.5335 -0.2346 -4.0591
  157SAPE  H12B17483   3.658   0.248  10.585  3.3758 -0.3558 -1.9523
  157SAPE   C1117484   3.797   0.402  10.545  0.9917  0.6703 -0.2766
  157SAPE  H11A17485   3.786   0.513  10.543 -1.5046  0.5431  2.1559
  157SAPE  H11B17486   3.799   0.360  10.443 -2.4484  1.6725 -0.8158
  157SAPE     P17487   4.047   0.440  10.620  0.1087  0.4823 -0.0429
  157SAPE   O1317488   4.004   0.581  10.656  0.5376  0.4090  0.2929
  157SAPE   O1417489   4.155   0.375  10.706  0.2862 -0.7715  0.0610
  157SAPE   O1217490   3.913   0.351  10.619 -0.0850 -0.2114 -0.6410
  157SAPE   O1117491   4.089   0.438  10.471  0.6522  0.1902  0.1313
  157SAPE    C117492   4.096   0.320  10.393  0.6579  0.5431 -0.0609
  157SAPE    HA17493   4.185   0.262  10.427 -0.5749 -1.6270 -0.4187
  157SAPE    HB17494   4.013   0.251  10.421 -0.2900  1.8287  0.3010
  157SAPE    C217495   4.099   0.349  10.241 -0.0701  0.1169  0.0304
  157SAPE    HS17496   4.165   0.436  10.222  0.1540 -0.4730 -1.9338
  157SAPE   O2117497   3.970   0.374  10.187  0.2760 -0.1919  0.0548
  157SAPE   C2117498   3.910   0.486  10.202 -0.4796 -0.2745  0.1003
  157SAPE   O2217499   3.959   0.587  10.252  0.1347  0.1634 -1.0087
  157SAPE   C2217500   3.765   0.489  10.156 -0.0774  0.2653  0.5908
  157SAPE   H2R17501   3.750   0.439  10.058  0.9786  3.7252 -1.4201
  157SAPE   H2S17502   3.697   0.455  10.236  1.7976 -0.1622  2.0413
  157SAPE    C317503   4.154   0.224  10.167  0.3356  0.0774  0.2479
  157SAPE    HX17504   4.256   0.190  10.195  1.4692  0.4212 -3.1696
  157SAPE    HY17505   4.172   0.267  10.066  1.5754 -1.6616 -0.2893
  157SAPE   O3117506   4.069   0.106  10.167 -0.2977 -0.3540 -0.1351
  157SAPE   C3117507   4.124  -0.008  10.217 -0.5196  0.3662  0.4573
  157SAPE   O3217508   4.243  -0.026  10.246 -0.0483  0.1465  0.5329
  157SAPE   C3217509   4.016  -0.124  10.201  0.2195  0.0228 -0.5219
  157SAPE   H2X17510   3.919  -0.071  10.194 -0.0238 -0.2573  0.7031
  157SAPE   H2Y17511   4.011  -0.185  10.294 -2.2330 -0.5271 -0.9973
  157SAPE   C2317512   3.710   0.638  10.143 -0.0042 -0.6659  0.5772
  157SAPE   H3R17513   3.728   0.700  10.233  0.7300 -0.7373  0.4785
  157SAPE   H3S17514   3.599   0.628  10.139 -0.0956 -0.1333  1.7112
  157SAPE   C2417515   3.738   0.703  10.007 -0.6506  0.2195  0.0931
  157SAPE   H4R17516   3.682   0.798   9.989  0.2350  1.0599  1.6996
  157SAPE   H4S17517   3.687   0.638   9.932  0.9587 -0.4895 -0.4022
  157SAPE   C2517518   3.886   0.733   9.987  0.7476 -0.1098  0.1656
  157SAPE   H5R17519   3.935   0.778  10.075  1.0640  0.5465 -0.3493
  157SAPE   C2617520   3.966   0.694   9.885 -0.5541  0.7407  0.0700
  157SAPE   H6R17521   4.073   0.717   9.901 -0.0057 -1.5865 -0.1370
  157SAPE   C2717522   3.918   0.624   9.764  0.3848 -0.3138 -0.1292
  157SAPE   H7R17523   3.819   0.658   9.728 -0.8401 -3.0946  0.4812
  157SAPE   H7S17524   3.913   0.515   9.782 -1.7732 -0.8551 -3.5574
  157SAPE   C2817525   4.026   0.617   9.653  0.0875 -0.3311 -0.3989
  157SAPE   H8R17526   4.127   0.594   9.689 -0.1879  0.7463  1.0845
  157SAPE   C2917527   3.997   0.604   9.522  0.3632  0.0910 -0.2069
  157SAPE   H9R17528   4.083   0.594   9.455  1.5679 -0.9425  1.4558
  157SAPE  C21017529   3.860   0.593   9.462 -0.0398  1.4271  0.0443
  157SAPE  H10R17530   3.781   0.600   9.539 -1.8913 -2.5038 -1.3132
  157SAPE  H10S17531   3.847   0.487   9.430  1.6329  1.1916  0.0789
  157SAPE  C21117532   3.832   0.695   9.361 -0.6635 -0.1353  0.2527
  157SAPE  H11R17533   3.776   0.783   9.395 -2.4219 -1.2894  0.4209
  157SAPE  C21217534   3.876   0.703   9.231 -0.2213  0.7110  0.5753
  157SAPE  H12R17535   3.852   0.791   9.170 -1.5781  0.9070  1.3671
  157SAPE  C21317536   3.962   0.607   9.157  0.5279 -0.4604 -0.0712
  157SAPE  H13R17537   3.915   0.596   9.057 -2.4134  0.8397  1.1002
  157SAPE  H13S17538   3.958   0.508   9.207 -1.6524 -0.2209  0.2733
  157SAPE  C21417539   4.106   0.664   9.159  0.2335 -0.1339 -0.2511
  157SAPE  H14R17540   4.148   0.717   9.246 -2.1391  1.1499  0.1472
  157SAPE  C21517541   4.195   0.651   9.056 -0.6809 -0.8875  0.5202
  157SAPE  H15R17542   4.294   0.695   9.077 -0.5768 -0.4757 -0.7911
  157SAPE  C21617543   4.175   0.586   8.919 -0.0118 -0.6399 -0.6375
  157SAPE  H16R17544   4.088   0.517   8.923  0.2514 -0.8694  2.2480
  157SAPE  H16S17545   4.256   0.513   8.901  0.7387 -0.1496  0.6745
  157SAPE  C21717546   4.173   0.689   8.802  0.5106 -0.2472 -0.9082
  157SAPE  H17R17547   4.086   0.747   8.766  0.8007 -1.0944 -3.0435
  157SAPE  H17S17548   4.189   0.628   8.710  0.8589 -2.1972  0.4057
  157SAPE  C21817549   4.293   0.784   8.799  0.2504 -0.2223  0.1653
  157SAPE  H18R17550   4.385   0.722   8.800  0.3946 -0.0033  1.2335
  157SAPE  H18S17551   4.288   0.856   8.884 -1.4113 -0.2636  0.1069
  157SAPE  C21917552   4.304   0.859   8.667  0.4972 -0.3642 -0.6140
  157SAPE  H19R17553   4.363   0.952   8.679  1.0040 -0.8404  0.6762
  157SAPE  H19S17554   4.205   0.892   8.630  0.0043  1.2552  2.0142
  157SAPE  C22017555   4.379   0.779   8.561  0.2497  0.6079 -0.5763
  157SAPE  H20R17556   4.385   0.841   8.469 -2.8009  0.9825 -0.5857
  157SAPE  H20S17557   4.319   0.689   8.536 -1.3500  1.8752 -1.4240
  157SAPE  H20T17558   4.483   0.747   8.585  1.1577  0.8797 -3.8593
  157SAPE   C3317559   4.034  -0.215  10.081  0.0298 -0.4616  0.0325
  157SAPE   H3X17560   4.062  -0.316  10.117 -0.0180 -0.2601  0.6376
  157SAPE   H3Y17561   4.115  -0.169  10.020 -1.0023 -0.7427 -1.5757
  157SAPE   C3417562   3.908  -0.215   9.993  0.1343 -0.0370  0.0186
  157SAPE   H4X17563   3.895  -0.108   9.964 -0.4495  0.3817  1.7556
  157SAPE   H4Y17564   3.822  -0.251  10.054  1.3769 -1.1380  1.1319
  157SAPE   C3517565   3.915  -0.299   9.862  0.0852  0.6530  0.0291
  157SAPE   H5X17566   3.920  -0.406   9.893 -2.3234  0.7045  0.6882
  157SAPE   H5Y17567   3.998  -0.276   9.792 -0.8331  0.4131 -1.1696
  157SAPE   C3617568   3.781  -0.280   9.786  0.3858  0.2278  0.5872
  157SAPE   H6X17569   3.784  -0.175   9.750 -3.1859  0.8078  1.7377
  157SAPE   H6Y17570   3.694  -0.292   9.854  1.0196  0.3760  1.4354
  157SAPE   C3717571   3.771  -0.381   9.673  0.3470 -0.3029 -0.1946
  157SAPE   H7X17572   3.663  -0.402   9.657  0.6825 -1.1286 -1.4581
  157SAPE   H7Y17573   3.802  -0.485   9.696  0.8100  0.1201  1.2000
  157SAPE   C3817574   3.832  -0.328   9.538 -0.4454 -0.3791  0.6723
  157SAPE   H8X17575   3.915  -0.256   9.556 -1.1675  1.0234 -1.4163
  157SAPE   H8Y17576   3.750  -0.264   9.498 -0.6081 -1.9521 -1.5757
  157SAPE   C3917577   3.863  -0.439   9.442  0.1402  0.6534 -0.2925
  157SAPE   H9X17578   3.775  -0.505   9.428  0.6647 -0.0201 -0.4361
  157SAPE   H9Y17579   3.936  -0.502   9.497 -0.9662  1.3690  2.0879
  157SAPE  C31017580   3.926  -0.404   9.311  0.1561  0.0408 -0.1889
  157SAPE  H10X17581   3.998  -0.486   9.289  0.5029 -0.0111  1.0810
  157SAPE  H10Y17582   3.989  -0.317   9.339 -0.6771  1.5474 -2.8543
  157SAPE  C31117583   3.825  -0.353   9.205  0.3746  0.7137 -0.0374
  157SAPE  H11X17584   3.762  -0.279   9.258 -1.8557 -0.7760 -0.5564
  157SAPE  H11Y17585   3.766  -0.442   9.175  3.3853 -0.7877 -1.7661
  157SAPE  C31217586   3.904  -0.309   9.085 -0.2095 -0.4500 -0.2210
  157SAPE  H12X17587   3.961  -0.397   9.049  3.7822  1.5777  0.8344
  157SAPE  H12Y17588   3.976  -0.229   9.115 -0.9810  0.1754 -0.0280
  157SAPE  C31317589   3.819  -0.242   8.974 -0.9264 -0.4996  0.0949
  157SAPE  H13X17590   3.761  -0.156   9.014  1.1251  0.7942  0.3473
  157SAPE  H13Y17591   3.747  -0.316   8.933  0.4607 -1.8163 -0.0128
  157SAPE  C31417592   3.906  -0.175   8.874 -0.6592  0.9403 -0.0152
  157SAPE  H14X17593   3.972  -0.245   8.817 -0.2821  1.0780  0.2490
  157SAPE  H14Y17594   3.981  -0.107   8.921  0.3927  0.3485 -0.8033
  157SAPE  C31517595   3.824  -0.088   8.775 -0.6461 -0.0198  0.6981
  157SAPE  H15X17596   3.820   0.007   8.831  1.5758  0.2126  0.5339
  157SAPE  H15Y17597   3.721  -0.127   8.768  0.0839 -2.0881  0.9665
  157SAPE  C31617598   3.888  -0.071   8.633  0.2628 -0.6287 -0.8355
  157SAPE  H16X17599   3.927  -0.165   8.588 -0.5686 -1.5782  0.3723
  157SAPE  H16Y17600   3.974  -0.001   8.646 -1.2906  1.5603 -2.0727
  157SAPE  C31717601   3.791   0.004   8.535 -0.7292  0.0376  0.1090
  157SAPE  H17X17602   3.789   0.108   8.574  2.2364 -0.2651  1.1974
  157SAPE  H17Y17603   3.696  -0.052   8.543 -1.7026  1.3272 -1.9190
  157SAPE  C31817604   3.836   0.010   8.387  0.0622 -0.8137  0.1182
  157SAPE  H18X17605   3.780   0.093   8.339  2.3222 -0.6818 -2.3966
  157SAPE  H18Y17606   3.824  -0.091   8.343 -2.2309 -0.3964 -0.2846
  157SAPE  H18Z17607   3.943   0.038   8.385 -0.0466 -0.1661  2.0034
  158SAPE     N17608   5.416   1.681  10.651 -0.6081  0.5148 -0.2381
  158SAPE   HN117609   5.319   1.676  10.613 -1.3635  1.3595  1.5138
  158SAPE   HN217610   5.418   1.650  10.750  2.8610  2.1790  0.2967
  158SAPE   HN317611   5.450   1.779  10.644  1.0438  0.0502  0.9183
  158SAPE   C1217612   5.521   1.608  10.573  0.6128 -0.5070  0.5167
  158SAPE  H12A17613   5.603   1.568  10.637  0.7218 -3.2256 -1.2130
  158SAPE  H12B17614   5.564   1.667  10.490 -0.0543 -2.8725 -1.5698
  158SAPE   C1117615   5.455   1.480  10.518  0.0097 -0.5301 -0.0849
  158SAPE  H11A17616   5.536   1.420  10.473  0.9862  0.5695  0.1970
  158SAPE  H11B17617   5.368   1.499  10.451 -0.9859  0.8282  1.5527
  158SAPE     P17618   5.363   1.255  10.635 -0.2133  0.5200 -0.6412
  158SAPE   O1317619   5.458   1.193  10.735  0.0266 -0.1366  0.7015
  158SAPE   O1417620   5.222   1.239  10.664 -0.4607 -0.0506 -0.7388
  158SAPE   O1217621   5.391   1.414  10.627 -0.4023 -0.0802  0.0656
  158SAPE   O1117622   5.396   1.213  10.491  0.0363  0.0990 -0.2073
  158SAPE    C117623   5.518   1.135  10.472 -0.1515  0.1133  0.0064
  158SAPE    HA17624   5.601   1.169  10.538  2.5382 -2.3645 -1.9980
  158SAPE    HB17625   5.507   1.025  10.476 -1.9445  0.2972  0.3443
  158SAPE    C217626   5.586   1.168  10.335 -0.2633  0.6872  0.1370
  158SAPE    HS17627   5.612   1.276  10.335  1.0417  0.4046  2.4212
  158SAPE   O2117628   5.504   1.130  10.228  0.6525  0.3844  0.5121
  158SAPE   C2117629   5.495   1.207  10.119 -0.3709  0.9247 -0.4979
  158SAPE   O2217630   5.545   1.319  10.110  0.3640 -0.6570  0.2664
  158SAPE   C2217631   5.440   1.128   9.994 -1.3168  0.4921 -0.2701
  158SAPE   H2R17632   5.530   1.107   9.932  1.2094  1.0725  3.0780
  158SAPE   H2S17633   5.384   1.038  10.028 -0.0355 -0.1274  0.2492
  158SAPE    C317634   5.731   1.097  10.325 -0.0573 -0.0873 -0.5459
  158SAPE    HX17635   5.718   0.987  10.331 -0.6921  0.0958  1.7836
  158SAPE    HY17636   5.782   1.123  10.420  0.2515 -1.0468 -0.4436
  158SAPE   O3117637   5.801   1.143  10.207  0.5860 -0.1980 -0.3696
  158SAPE   C3117638   5.782   1.060  10.108 -0.0928 -0.6459 -0.1733
  158SAPE   O3217639   5.702   0.974  10.089 -0.0610  0.2053 -0.0496
  158SAPE   C3217640   5.873   1.098   9.998  0.0740  0.3238  0.8716
  158SAPE   H2X17641   5.975   1.073  10.035  0.5127 -1.1740 -1.2528
  158SAPE   H2Y17642   5.872   1.209   9.991 -0.2342  0.1928 -1.5300
  158SAPE   C2317643   5.349   1.222   9.910  0.5794  0.2124 -0.1208
  158SAPE   H3R17644   5.416   1.307   9.885 -0.7642  1.0070 -1.0792
  158SAPE   H3S17645   5.257   1.249   9.966 -0.9688  0.6945 -2.8372
  158SAPE   C2417646   5.308   1.154   9.779  0.3991  0.5390  0.2942
  158SAPE   H4R17647   5.247   1.224   9.718  0.0341  0.9216  1.0871
  158SAPE   H4S17648   5.257   1.062   9.814 -0.1938  0.9249  0.4528
  158SAPE   C2517649   5.422   1.109   9.690 -0.0320  0.1726 -0.1000
  158SAPE   H5R17650   5.523   1.111   9.732 -0.9038 -1.1442  2.1093
  158SAPE   C2617651   5.408   1.047   9.572 -0.4572 -0.1048 -0.4482
  158SAPE   H6R17652   5.492   1.021   9.506  0.0951  0.1703  0.1370
  158SAPE   C2717653   5.282   1.006   9.502 -0.0724  0.8565 -0.0019
  158SAPE   H7R17654   5.313   1.010   9.396  2.4292 -1.4509  0.5793
  158SAPE   H7S17655   5.205   1.084   9.520 -3.7554 -1.9081 -3.0988
  158SAPE   C2817656   5.233   0.870   9.551  0.3993  0.1312  0.4163
  158SAPE   H8R17657   5.279   0.828   9.642  0.7118  1.0347  0.6826
  158SAPE   C2917658   5.149   0.788   9.491 -0.2934  0.0337  0.1053
  158SAPE   H9R17659   5.126   0.685   9.523 -0.6015 -0.3231 -1.2218
  158SAPE  C21017660   5.067   0.822   9.363  0.0020  0.1606 -0.2585
  158SAPE  H10R17661   5.052   0.932   9.359  0.7541  0.4106  2.6371
  158SAPE  H10S17662   4.964   0.797   9.395 -1.1209  1.6920 -2.5744
  158SAPE  C21117663   5.100   0.766   9.226 -0.2019  0.3107  0.2711
  158SAPE  H11R17664   5.172   0.683   9.219  0.5766  1.1067 -1.6499
  158SAPE  C21217665   5.032   0.795   9.118  0.3342 -0.2652 -0.4778
  158SAPE  H12R17666   5.061   0.740   9.027  2.0496  0.2668 -0.2768
  158SAPE  C21317667   4.919   0.888   9.119  0.3579 -0.9040  0.0476
  158SAPE  H13R17668   4.947   0.980   9.063 -1.3933 -1.0005 -1.0157
  158SAPE  H13S17669   4.902   0.937   9.218 -0.4587  3.1997 -2.0239
  158SAPE  C21417670   4.789   0.832   9.071 -0.4594  0.2724  0.1935
  158SAPE  H14R17671   4.715   0.826   9.153 -0.7639 -3.1239 -0.2557
  158SAPE  C21517672   4.751   0.809   8.946 -0.6527 -0.4787  0.5126
  158SAPE  H15R17673   4.655   0.760   8.924  0.4811 -1.7130 -2.0289
  158SAPE  C21617674   4.833   0.823   8.817  0.6458  0.2206  0.4375
  158SAPE  H16R17675   4.826   0.726   8.763  1.3478 -0.5791  1.7557
  158SAPE  H16S17676   4.940   0.849   8.835  0.3221  0.6983  1.7582
  158SAPE  C21717677   4.775   0.939   8.731 -0.0350 -0.7433  0.2054
  158SAPE  H17R17678   4.783   1.041   8.774  1.1196 -0.0690 -1.5566
  158SAPE  H17S17679   4.667   0.923   8.711 -0.3803 -0.3959  1.7508
  158SAPE  C21817680   4.853   0.941   8.594 -0.8649  0.3239 -0.2914
  158SAPE  H18R17681   4.834   0.839   8.554 -1.0364  0.7526 -1.2987
  158SAPE  H18S17682   4.962   0.959   8.601 -1.0136  0.7000  1.3679
  158SAPE  C21917683   4.799   1.046   8.492 -0.1617  0.4377  0.0441
  158SAPE  H19R17684   4.690   1.058   8.511  0.1935  2.4232  0.9925
  158SAPE  H19S17685   4.821   1.012   8.389 -0.1889 -2.3537  0.9298
  158SAPE  C22017686   4.849   1.190   8.524  1.0077 -1.0832 -0.4975
  158SAPE  H20R17687   4.799   1.229   8.616  0.0921 -0.3690 -1.2846
  158SAPE  H20S17688   4.835   1.256   8.435 -0.4930 -1.4512 -0.5556
  158SAPE  H20T17689   4.958   1.188   8.546  0.6911 -0.5226  1.2022
  158SAPE   C3317690   5.850   1.029   9.864  0.2282  0.5590 -0.1004
  158SAPE   H3X17691   5.771   1.077   9.803  1.4959  0.1638 -2.0744
  158SAPE   H3Y17692   5.805   0.930   9.886  0.2152  0.3465 -1.0815
  158SAPE   C3417693   5.975   1.020   9.770 -0.6657  0.8261  0.5005
  158SAPE   H4X17694   6.055   0.958   9.815  0.7226  1.2744 -1.3233
  158SAPE   H4Y17695   6.003   1.124   9.744  2.4660 -0.1404 -0.2185
  158SAPE   C3517696   5.948   0.959   9.627 -0.9213 -0.1345  0.1876
  158SAPE   H5X17697   5.915   0.853   9.630 -3.3533  0.6075  2.0734
  158SAPE   H5Y17698   6.044   0.960   9.571 -0.2062  0.9114  1.3815
  158SAPE   C3617699   5.844   1.039   9.546 -0.4044 -0.4099  0.4358
  158SAPE   H6X17700   5.874   1.145   9.562  0.8900 -0.6936 -0.0114
  158SAPE   H6Y17701   5.741   1.019   9.581 -1.6314  0.9674 -2.2586
  158SAPE   C3717702   5.863   1.015   9.395 -0.4352 -0.0646 -0.5852
  158SAPE   H7X17703   5.847   0.909   9.367  2.5824 -0.7029 -0.0623
  158SAPE   H7Y17704   5.972   1.029   9.381 -0.5501 -0.2495 -1.7165
  158SAPE   C3817705   5.777   1.115   9.316 -1.2591 -0.7362  0.3289
  158SAPE   H8X17706   5.801   1.214   9.362  2.2007 -1.8627  1.0687
  158SAPE   H8Y17707   5.668   1.092   9.324 -1.9364  2.4109  1.3221
  158SAPE   C3917708   5.812   1.129   9.169  0.0075  1.0574 -0.2228
  158SAPE   H9X17709   5.921   1.115   9.152 -0.4918 -2.2805 -1.0561
  158SAPE   H9Y17710   5.792   1.230   9.126 -3.1648 -0.0388 -1.4640
  158SAPE  C31017711   5.730   1.038   9.094 -0.0909  0.4544  0.2205
  158SAPE  H10X17712   5.626   1.073   9.106 -0.1871  0.5001 -0.7123
  158SAPE  H10Y17713   5.741   0.941   9.146  0.5737 -0.4465 -1.5813
  158SAPE  C31117714   5.783   1.015   8.949 -0.4881  0.3104  0.3211
  158SAPE  H11X17715   5.781   1.108   8.889 -1.0967 -1.1623 -2.0232
  158SAPE  H11Y17716   5.722   0.938   8.897  1.6816 -0.9965 -0.3229
  158SAPE  C31217717   5.929   0.957   8.944  1.0903  0.1402  0.7313
  158SAPE  H12X17718   5.956   0.882   9.021  2.3310 -0.5746 -0.3757
  158SAPE  H12Y17719   5.992   1.047   8.957  0.4818  0.6399  0.2422
  158SAPE  C31317720   5.955   0.901   8.796 -0.6869  0.5487  0.0950
  158SAPE  H13X17721   5.902   0.808   8.765  2.3398 -0.3518 -2.7105
  158SAPE  H13Y17722   6.062   0.872   8.806 -0.4167  1.2202 -0.8206
  158SAPE  C31417723   5.939   1.009   8.686  0.6736  0.2537  0.3854
  158SAPE  H14X17724   5.832   1.038   8.683  0.4171 -0.8226 -1.2204
  158SAPE  H14Y17725   5.927   0.955   8.590 -0.5242  1.9110 -0.4173
  158SAPE  C31517726   6.037   1.125   8.672  0.7403 -0.1791  0.0894
  158SAPE  H15X17727   6.139   1.082   8.677  0.5883 -0.3987  1.5405
  158SAPE  H15Y17728   6.021   1.205   8.748  0.0210  2.1356 -2.3984
  158SAPE  C31617729   6.025   1.190   8.531  0.0187  0.1350  0.0904
  158SAPE  H16X17730   6.022   1.110   8.454  0.4017 -0.0520  0.2671
  158SAPE  H16Y17731   6.115   1.251   8.511 -0.2018  1.5013  2.9997
  158SAPE  C31717732   5.904   1.284   8.509 -0.0997 -0.5316  0.4306
  158SAPE  H17X17733   5.931   1.376   8.565  0.5410 -0.6968  0.4071
  158SAPE  H17Y17734   5.817   1.239   8.561  0.4384 -1.6129  0.4171
  158SAPE  C31817735   5.871   1.302   8.361  0.1303  0.0895  0.2640
  158SAPE  H18X17736   5.773   1.346   8.333  0.5882  0.2290 -1.1233
  158SAPE  H18Y17737   5.885   1.216   8.293 -0.5041  1.7210 -1.9901
  158SAPE  H18Z17738   5.936   1.379   8.314 -1.3413 -0.5082 -2.8848
  159SAPE     N17739   4.737   5.377   6.433 -0.8787  0.1553 -0.5293
  159SAPE   HN117740   4.722   5.480   6.424 -0.8632  0.1440 -0.6968
  159SAPE   HN217741   4.840   5.358   6.437 -0.7226  1.3130  1.7347
  159SAPE   HN317742   4.680   5.325   6.363 -2.2044 -2.1081  2.1389
  159SAPE   C1217743   4.674   5.358   6.564  0.2006  0.2772  0.0074
  159SAPE  H12A17744   4.742   5.395   6.644 -0.3057 -0.9527  1.0171
  159SAPE  H12B17745   4.652   5.253   6.593  1.1918  0.1858  0.4527
  159SAPE   C1117746   4.538   5.431   6.569  0.2022 -0.1437 -0.2480
  159SAPE  H11A17747   4.559   5.536   6.540 -0.4740 -0.2049 -0.9705
  159SAPE  H11B17748   4.496   5.448   6.670  1.5046  0.0091  0.2841
  159SAPE     P17749   4.325   5.293   6.514 -0.5747 -0.4252 -0.1511
  159SAPE   O1317750   4.213   5.362   6.586  0.1773  0.4818  0.2382
  159SAPE   O1417751   4.289   5.212   6.391  0.4537 -0.0415 -0.1166
  159SAPE   O1217752   4.441   5.386   6.480  0.7323  0.0492  0.2259
  159SAPE   O1117753   4.398   5.195   6.615 -0.0153 -0.5893 -0.1008
  159SAPE    C117754   4.329   5.093   6.688  0.4361  0.5573 -0.2637
  159SAPE    HA17755   4.219   5.104   6.687  0.5060  1.2848 -1.4260
  159SAPE    HB17756   4.343   4.994   6.639 -0.0965  1.1570 -1.6518
  159SAPE    C217757   4.366   5.097   6.835 -0.0031 -0.1758 -1.0328
  159SAPE    HS17758   4.323   5.005   6.878  1.5741 -0.0567  0.8386
  159SAPE   O2117759   4.302   5.206   6.903 -0.1891 -0.2994 -0.3891
  159SAPE   C2117760   4.176   5.188   6.931 -0.1457 -0.0810 -0.0049
  159SAPE   O2217761   4.106   5.088   6.907  0.0891  0.0850  0.2412
  159SAPE   C2217762   4.130   5.310   7.015  0.4305 -0.8702  0.0451
  159SAPE   H2R17763   4.166   5.411   6.986  2.3938 -0.8837  2.2636
  159SAPE   H2S17764   4.021   5.329   6.998  0.6622 -0.8966 -1.5175
  159SAPE    C317765   4.526   5.111   6.853 -0.1456 -0.2944  0.1809
  159SAPE    HX17766   4.557   5.216   6.832 -2.8163  0.2937 -1.1379
  159SAPE    HY17767   4.573   5.049   6.774  2.3725  0.1640  1.2875
  159SAPE   O3117768   4.577   5.070   6.980 -0.0879  0.1447 -0.0568
  159SAPE   C3117769   4.610   5.177   7.059  0.0003 -0.4967 -0.5193
  159SAPE   O3217770   4.589   5.292   7.041 -0.1097  0.7732  0.3375
  159SAPE   C3217771   4.668   5.125   7.190  0.3312  0.7159 -0.2515
  159SAPE   H2X17772   4.749   5.054   7.163 -1.0492 -1.7079  1.8145
  159SAPE   H2Y17773   4.588   5.064   7.237  1.2197  0.0069  0.3660
  159SAPE   C2317774   4.146   5.294   7.170  0.1944 -0.1384  0.0507
  159SAPE   H3R17775   4.109   5.194   7.201  1.0391 -0.0651  1.2897
  159SAPE   H3S17776   4.069   5.359   7.217 -0.3584 -0.5930 -0.2218
  159SAPE   C2417777   4.293   5.334   7.204  0.1499 -0.3642 -0.0485
  159SAPE   H4R17778   4.324   5.428   7.153  1.5993 -0.6590  0.2625
  159SAPE   H4S17779   4.361   5.252   7.171  0.5621 -0.2850  0.6010
  159SAPE   C2517780   4.312   5.355   7.354  0.4032  0.5159  0.3739
  159SAPE   H5R17781   4.283   5.270   7.417  2.3052 -0.3930  0.0690
  159SAPE   C2617782   4.344   5.466   7.417  0.0263  0.4226  0.3542
  159SAPE   H6R17783   4.335   5.477   7.527  1.9345  0.5943  0.5162
  159SAPE   C2717784   4.383   5.598   7.356  0.0633  0.8090 -0.2143
  159SAPE   H7R17785   4.430   5.596   7.255 -0.2908  1.7656 -0.4087
  159SAPE   H7S17786   4.459   5.645   7.421  0.0480 -0.7271  0.9361
  159SAPE   C2817787   4.261   5.684   7.351 -0.0612  0.2840 -0.3195
  159SAPE   H8R17788   4.189   5.655   7.272 -1.2246  1.5030  0.2731
  159SAPE   C2917789   4.229   5.775   7.438 -0.5157  0.0420  0.1603
  159SAPE   H9R17790   4.135   5.830   7.422 -1.5098 -0.9887  2.1430
  159SAPE  C21017791   4.304   5.823   7.560  0.3615 -0.0854  1.2274
  159SAPE  H10R17792   4.363   5.912   7.532  2.8122 -0.9411  3.4268
  159SAPE  H10S17793   4.375   5.743   7.590  1.0339  0.5535  1.3445
  159SAPE  C21117794   4.217   5.865   7.674 -0.2678 -0.0539 -0.0927
  159SAPE  H11R17795   4.140   5.942   7.657 -0.2880  0.1106  0.7101
  159SAPE  C21217796   4.225   5.816   7.801 -0.2834 -0.3153 -0.0195
  159SAPE  H12R17797   4.152   5.851   7.875  0.4787  1.8525 -0.2296
  159SAPE  C21317798   4.320   5.718   7.856 -0.1675  0.7434 -0.0517
  159SAPE  H13R17799   4.315   5.728   7.966  0.2202  5.3751 -0.3648
  159SAPE  H13S17800   4.425   5.742   7.832  0.0693  0.7049  0.9384
  159SAPE  C21417801   4.304   5.573   7.818 -0.1215  0.9058 -0.2343
  159SAPE  H14R17802   4.259   5.561   7.718  0.8715 -1.2601 -0.4585
  159SAPE  C21517803   4.337   5.468   7.896  0.6001 -0.4822 -0.3301
  159SAPE  H15R17804   4.316   5.367   7.858 -1.8607  0.5109 -1.7326
  159SAPE  C21617805   4.382   5.465   8.039 -0.5557 -0.0942  0.3970
  159SAPE  H16R17806   4.415   5.566   8.069  1.5328 -0.1746 -1.5076
  159SAPE  H16S17807   4.476   5.406   8.048 -0.5463 -0.2509 -0.6596
  159SAPE  C21717808   4.264   5.421   8.131 -0.0625 -0.3045 -0.2977
  159SAPE  H17R17809   4.244   5.315   8.105  2.1433 -0.4990 -1.3331
  159SAPE  H17S17810   4.174   5.483   8.107  0.6956 -0.1924 -3.0476
  159SAPE  C21817811   4.288   5.424   8.278 -0.5673  0.7798  0.3334
  159SAPE  H18R17812   4.206   5.385   8.341 -1.5973 -1.0825 -2.0425
  159SAPE  H18S17813   4.313   5.528   8.307 -1.1034  0.9028  0.3488
  159SAPE  C21917814   4.400   5.323   8.306  0.3035  0.6751 -0.3809
  159SAPE  H19R17815   4.493   5.370   8.267  1.0752 -1.4542 -1.1765
  159SAPE  H19S17816   4.368   5.226   8.263 -2.3109  1.6749 -0.7596
  159SAPE  C22017817   4.429   5.299   8.458  0.1641  0.5201  0.3874
  159SAPE  H20R17818   4.459   5.394   8.508 -0.1301 -0.9181  3.4463
  159SAPE  H20S17819   4.511   5.226   8.474  0.7446  0.5140 -2.3619
  159SAPE  H20T17820   4.338   5.251   8.500  0.3298 -0.2787 -0.1406
  159SAPE   C3317821   4.706   5.231   7.292 -0.0041 -0.0907  0.0936
  159SAPE   H3X17822   4.619   5.277   7.342  0.3750 -0.6848  1.3073
  159SAPE   H3Y17823   4.764   5.311   7.240  0.6308 -1.0350 -0.6643
  159SAPE   C3417824   4.792   5.171   7.412 -0.2104  0.2179  0.3295
  159SAPE   H4X17825   4.891   5.136   7.375  0.2542  0.6107  1.2006
  159SAPE   H4Y17826   4.725   5.097   7.459  0.3610 -0.5660 -0.0742
  159SAPE   C3517827   4.816   5.274   7.529  0.7131 -0.3558 -0.0659
  159SAPE   H5X17828   4.882   5.355   7.490 -1.1335  0.3107 -1.8644
  159SAPE   H5Y17829   4.854   5.220   7.618 -0.6844 -0.3523  0.5426
  159SAPE   C3617830   4.683   5.351   7.567  0.1047  0.2359  0.5157
  159SAPE   H6X17831   4.586   5.297   7.565 -0.4998  1.3021  0.5891
  159SAPE   H6Y17832   4.665   5.430   7.490 -1.0161 -1.3444 -0.8714
  159SAPE   C3717833   4.692   5.408   7.705 -0.4141 -0.3351  0.3623
  159SAPE   H7X17834   4.613   5.486   7.717 -0.2694 -0.0164 -0.6685
  159SAPE   H7Y17835   4.793   5.454   7.710 -0.4636 -0.3380  1.6694
  159SAPE   C3817836   4.680   5.310   7.817 -0.7808  0.6121 -0.3893
  159SAPE   H8X17837   4.688   5.204   7.788 -0.4234  1.5027 -3.7312
  159SAPE   H8Y17838   4.578   5.324   7.859 -0.5092  0.9842  0.1572
  159SAPE   C3917839   4.781   5.345   7.937 -0.2548  0.1682  0.1000
  159SAPE   H9X17840   4.757   5.450   7.964 -2.2619 -0.5288  1.1296
  159SAPE   H9Y17841   4.887   5.348   7.902  0.4409  0.4902  2.1238
  159SAPE  C31017842   4.757   5.252   8.051  0.1232 -0.1626 -0.6565
  159SAPE  H10X17843   4.770   5.144   8.031 -1.9275 -0.2417 -1.6403
  159SAPE  H10Y17844   4.654   5.276   8.084  0.2994  0.4629 -0.5444
  159SAPE  C31117845   4.854   5.290   8.158  0.0572 -0.1190  0.5347
  159SAPE  H11X17846   4.842   5.397   8.184 -2.0212 -0.4195  0.9251
  159SAPE  H11Y17847   4.962   5.285   8.130 -0.7866 -0.2415 -2.9928
  159SAPE  C31217848   4.839   5.194   8.278 -0.0848  0.1746  0.4738
  159SAPE  H12X17849   4.848   5.094   8.231  0.0114  0.7493 -0.7821
  159SAPE  H12Y17850   4.736   5.217   8.314  0.6602  0.7006  2.3150
  159SAPE  C31317851   4.943   5.221   8.385  0.0217  0.1183 -0.2414
  159SAPE  H13X17852   4.932   5.328   8.413 -2.3411  1.1145 -4.5489
  159SAPE  H13Y17853   5.046   5.214   8.345  0.2355 -0.5792  0.4145
  159SAPE  C31417854   4.946   5.123   8.510 -0.5722 -0.0799  0.2412
  159SAPE  H14X17855   5.037   5.140   8.571 -1.3580 -0.7091  1.6149
  159SAPE  H14Y17856   4.965   5.023   8.465  0.5736  0.1651  0.1549
  159SAPE  C31517857   4.826   5.115   8.602 -0.3773 -0.5795 -0.5462
  159SAPE  H15X17858   4.731   5.141   8.550 -2.5362  2.6681  4.6603
  159SAPE  H15Y17859   4.837   5.200   8.673 -1.2953 -0.1996 -0.8511
  159SAPE  C31617860   4.813   4.980   8.680  0.1419 -0.0116  0.4164
  159SAPE  H16X17861   4.882   4.969   8.765  0.5824 -2.3497 -0.2026
  159SAPE  H16Y17862   4.850   4.903   8.608  1.0449  0.6301  0.1862
  159SAPE  C31717863   4.678   4.948   8.725 -0.3399  0.6640  0.2710
  159SAPE  H17X17864   4.660   4.840   8.707  1.2135  0.4098  0.1865
  159SAPE  H17Y17865   4.607   4.992   8.651 -0.9626 -0.6898  0.0615
  159SAPE  C31817866   4.645   5.019   8.855 -0.6361  0.3036  0.2910
  159SAPE  H18X17867   4.689   4.962   8.940 -0.8710 -0.9209 -0.4030
  159SAPE  H18Y17868   4.535   5.023   8.873 -0.9344  0.5993 -1.5476
  159SAPE  H18Z17869   4.693   5.119   8.857 -0.4392  0.1920  2.1327
  160SAPE     N17870   2.354   6.231   6.296 -0.3606  0.1222 -0.1324
  160SAPE   HN117871   2.279   6.266   6.233  1.2613  1.0816 -1.5676
  160SAPE   HN217872   2.449   6.259   6.264  1.2585 -0.4136  3.9190
  160SAPE   HN317873   2.355   6.128   6.306  0.8642  0.2398  1.0877
  160SAPE   C1217874   2.358   6.278   6.439 -0.5381 -0.3808  0.0600
  160SAPE  H12A17875   2.278   6.224   6.493  0.3531 -0.3785  1.3960
  160SAPE  H12B17876   2.333   6.386   6.433 -1.4504 -0.6916 -2.8291
  160SAPE   C1117877   2.494   6.246   6.492 -0.4910 -0.2084 -0.5997
  160SAPE  H11A17878   2.492   6.231   6.602 -0.2542  2.0524 -0.2639
  160SAPE  H11B17879   2.565   6.329   6.473 -0.9337  0.9708  2.5842
  160SAPE     P17880   2.699   6.081   6.452  0.0546 -0.0410  0.6772
  160SAPE   O1317881   2.713   5.944   6.487  0.4565  0.1585  0.0121
  160SAPE   O1417882   2.774   6.128   6.333  0.0805  0.1833 -0.0905
  160SAPE   O1217883   2.546   6.120   6.440  0.4341 -0.0487  0.2896
  160SAPE   O1117884   2.742   6.170   6.571  0.3985 -0.2495  0.2880
  160SAPE    C117885   2.737   6.123   6.707  0.6599  0.9740 -0.4474
  160SAPE    HA17886   2.701   6.203   6.775 -2.3079 -0.4841 -0.2285
  160SAPE    HB17887   2.659   6.048   6.733  1.6434  0.4303  1.0185
  160SAPE    C217888   2.876   6.077   6.774 -0.1417 -0.6321  0.7366
  160SAPE    HS17889   2.888   5.967   6.766  2.8232 -0.2835 -0.4091
  160SAPE   O2117890   2.878   6.106   6.915 -0.3299  0.5232 -0.2014
  160SAPE   C2117891   2.815   6.018   6.990 -0.1706  0.9142 -0.1034
  160SAPE   O2217892   2.748   5.926   6.951  0.7038 -0.3350 -0.1316
  160SAPE   C2217893   2.831   6.056   7.137  0.1431 -0.0796  0.3097
  160SAPE   H2R17894   2.892   5.984   7.196  0.0754  0.7721  1.4476
  160SAPE   H2S17895   2.886   6.153   7.144 -2.1855  1.2319  1.0171
  160SAPE    C317896   2.983   6.149   6.696  0.0851 -0.0127  0.4415
  160SAPE    HX17897   2.956   6.255   6.718 -1.2746 -0.3073  0.2005
  160SAPE    HY17898   2.987   6.141   6.585 -1.5791 -0.3366  0.3985
  160SAPE   O3117899   3.107   6.125   6.758  0.2568 -0.2323 -0.3668
  160SAPE   C3117900   3.220   6.195   6.718  0.3286 -0.4779  0.2366
  160SAPE   O3217901   3.230   6.272   6.626  0.1905 -0.6042 -0.3263
  160SAPE   C3217902   3.336   6.171   6.821  0.1471  0.7648  0.5551
  160SAPE   H2X17903   3.419   6.209   6.757 -1.4797  2.0330 -0.8911
  160SAPE   H2Y17904   3.334   6.061   6.827  2.7203  0.7087  0.7526
  160SAPE   C2317905   2.696   6.083   7.210  0.2948  0.0674  0.3598
  160SAPE   H3R17906   2.614   6.012   7.187  0.9740 -0.7949  0.5789
  160SAPE   H3S17907   2.671   6.187   7.182  2.3561  0.4377 -0.1690
  160SAPE   C2417908   2.723   6.091   7.361  0.3096  0.5514 -0.3383
  160SAPE   H4R17909   2.800   6.168   7.386 -1.1389  2.9969 -3.0664
  160SAPE   H4S17910   2.766   5.992   7.386 -0.5900  0.1339 -0.4087
  160SAPE   C2517911   2.597   6.102   7.451 -1.1087  0.0023 -0.0845
  160SAPE   H5R17912   2.500   6.091   7.402 -0.6603  0.2492 -1.0291
  160SAPE   C2617913   2.599   6.113   7.581  0.2356 -0.6591  0.0018
  160SAPE   H6R17914   2.504   6.121   7.637 -0.1806 -0.7210 -0.6896
  160SAPE   C2717915   2.720   6.154   7.660  0.9773 -0.5536  0.5022
  160SAPE   H7R17916   2.702   6.263   7.674 -0.1168 -0.4794 -1.2891
  160SAPE   H7S17917   2.818   6.142   7.608 -0.1712  0.3463 -1.9506
  160SAPE   C2817918   2.729   6.096   7.801 -0.2427  0.3721  0.2524
  160SAPE   H8R17919   2.733   5.986   7.797 -0.0794  0.2993  2.2806
  160SAPE   C2917920   2.749   6.153   7.918 -0.2803 -0.6075 -0.5269
  160SAPE   H9R17921   2.770   6.094   8.008 -1.2909  1.3011  1.0061
  160SAPE  C21017922   2.773   6.307   7.928  0.0127 -0.4221  0.0099
  160SAPE  H10R17923   2.697   6.359   7.864 -1.3466 -0.3503  1.6431
  160SAPE  H10S17924   2.876   6.340   7.904 -0.2803  0.3696 -0.2001
  160SAPE  C21117925   2.737   6.357   8.067  0.6264  0.9105  0.1339
  160SAPE  H11R17926   2.637   6.402   8.071  0.5345  0.5278  3.3183
  160SAPE  C21217927   2.802   6.353   8.180  0.1127 -0.6892  0.1356
  160SAPE  H12R17928   2.754   6.403   8.265  2.0915  0.7972  0.4058
  160SAPE  C21317929   2.938   6.301   8.217  0.0174 -0.0280  0.5145
  160SAPE  H13R17930   2.983   6.269   8.121  1.3259  0.1999  1.0423
  160SAPE  H13S17931   2.929   6.207   8.275  2.5548 -0.0728  0.8931
  160SAPE  C21417932   3.030   6.410   8.274  0.8941 -0.1629 -0.4803
  160SAPE  H14R17933   3.082   6.473   8.200  0.3690  0.4339 -0.3409
  160SAPE  C21517934   3.052   6.429   8.405  0.2310 -0.6745 -0.1397
  160SAPE  H15R17935   3.123   6.505   8.441 -0.3828 -0.8774  1.5541
  160SAPE  C21617936   2.982   6.359   8.522 -0.6356  0.4609  0.3579
  160SAPE  H16R17937   3.055   6.292   8.571  0.5244  0.0507 -1.8693
  160SAPE  H16S17938   2.901   6.291   8.489  0.6886 -1.0380  0.1360
  160SAPE  C21717939   2.915   6.446   8.640 -0.6747 -0.1620  0.1007
  160SAPE  H17R17940   2.831   6.496   8.587  1.8599  1.7534 -2.2502
  160SAPE  H17S17941   2.984   6.526   8.676  0.4554 -1.7206  1.4365
  160SAPE  C21817942   2.884   6.363   8.766 -0.6836  0.4941 -0.0206
  160SAPE  H18R17943   2.830   6.424   8.842  0.1583  1.0158  0.1569
  160SAPE  H18S17944   2.976   6.320   8.810 -0.3112  3.6513  2.4418
  160SAPE  C21917945   2.795   6.233   8.749  0.2134 -1.0286 -0.1289
  160SAPE  H19R17946   2.774   6.199   8.852 -1.6059  2.3779  0.7006
  160SAPE  H19S17947   2.854   6.151   8.702 -1.1263 -2.5953  0.8881
  160SAPE  C22017948   2.671   6.254   8.662 -0.4082 -0.0249  0.0758
  160SAPE  H20R17949   2.611   6.329   8.717 -0.1303  1.2606 -1.3383
  160SAPE  H20S17950   2.610   6.162   8.647 -0.9442  0.2413  0.6422
  160SAPE  H20T17951   2.706   6.296   8.565  0.9196  0.4238  0.7293
  160SAPE   C3317952   3.317   6.233   6.961  0.6291  0.0227 -0.1612
  160SAPE   H3X17953   3.234   6.186   7.018 -0.2084  0.6666 -0.8301
  160SAPE   H3Y17954   3.294   6.341   6.948 -0.6667 -0.2647 -0.3836
  160SAPE   C3417955   3.432   6.214   7.062 -0.9766  0.2357  0.1487
  160SAPE   H4X17956   3.522   6.255   7.012 -0.6949 -0.2416  0.2704
  160SAPE   H4Y17957   3.445   6.110   7.097  1.4916  0.6398  0.5308
  160SAPE   C3517958   3.409   6.307   7.181 -0.0865 -0.3649 -0.9798
  160SAPE   H5X17959   3.323   6.277   7.245 -1.0561 -2.2157 -3.0881
  160SAPE   H5Y17960   3.382   6.410   7.151 -0.6844 -0.1564  0.2168
  160SAPE   C3617961   3.536   6.290   7.272 -0.3177  0.0695  0.1521
  160SAPE   H6X17962   3.631   6.300   7.214  1.0234  0.3415  2.3178
  160SAPE   H6Y17963   3.543   6.192   7.323  1.1302 -0.0911 -0.3041
  160SAPE   C3717964   3.540   6.396   7.381 -0.6946  0.5064 -0.0977
  160SAPE   H7X17965   3.455   6.377   7.450 -0.0594  0.0472  0.5639
  160SAPE   H7Y17966   3.529   6.498   7.339  1.2846  0.6747 -0.2295
  160SAPE   C3817967   3.671   6.410   7.469  0.4643  0.2905  0.3372
  160SAPE   H8X17968   3.753   6.433   7.398 -2.7886  0.2671 -3.5900
  160SAPE   H8Y17969   3.700   6.310   7.507  0.3348  0.1405  0.0457
  160SAPE   C3917970   3.657   6.531   7.567  0.2549  0.2679 -0.4054
  160SAPE   H9X17971   3.562   6.519   7.624  1.2562  0.6213  1.3364
  160SAPE   H9Y17972   3.658   6.622   7.504 -0.2512  0.4872 -0.0963
  160SAPE  C31017973   3.783   6.558   7.655  0.1001 -0.0401 -0.4172
  160SAPE  H10X17974   3.770   6.659   7.700  0.5680 -0.2850  0.2699
  160SAPE  H10Y17975   3.868   6.572   7.584 -0.7366 -2.2419 -1.9112
  160SAPE  C31117976   3.796   6.458   7.769 -0.1924 -0.0353  0.1579
  160SAPE  H11X17977   3.806   6.353   7.734  2.3165  0.0183  0.6289
  160SAPE  H11Y17978   3.706   6.464   7.834 -1.4745  1.9041 -1.7207
  160SAPE  C31217979   3.908   6.484   7.866  0.0184 -0.3019 -0.0728
  160SAPE  H12X17980   3.874   6.581   7.908 -2.0313  0.1756 -2.7060
  160SAPE  H12Y17981   4.003   6.494   7.810 -0.4789 -0.7898 -1.0249
  160SAPE  C31317982   3.935   6.389   7.992  0.3387  1.0122  0.3949
  160SAPE  H13X17983   3.992   6.296   7.973  1.0794  1.2295  1.5096
  160SAPE  H13Y17984   3.835   6.356   8.028  0.5418  0.3000  0.3107
  160SAPE  C31417985   4.007   6.461   8.104  0.6391 -0.5992 -0.0718
  160SAPE  H14X17986   3.970   6.566   8.113 -0.6290 -1.1026  0.7052
  160SAPE  H14Y17987   4.114   6.463   8.074  0.0898  1.8019 -2.0872
  160SAPE  C31517988   3.986   6.401   8.248 -0.5929 -0.0198  0.0992
  160SAPE  H15X17989   4.000   6.292   8.236 -1.8454 -0.0545 -1.2824
  160SAPE  H15Y17990   3.883   6.416   8.285 -0.2923  0.0888  0.8881
  160SAPE  C31617991   4.087   6.443   8.352 -0.4153 -0.0923  0.6876
  160SAPE  H16X17992   4.065   6.548   8.381 -0.2106  0.0153  0.4586
  160SAPE  H16Y17993   4.192   6.445   8.315 -0.3084 -1.2383  0.9315
  160SAPE  C31717994   4.072   6.362   8.475 -0.0348  0.6174 -0.3531
  160SAPE  H17X17995   4.063   6.253   8.455  1.1742  0.4303  0.0859
  160SAPE  H17Y17996   3.981   6.387   8.534 -0.8484 -1.2877 -0.7376
  160SAPE  C31817997   4.193   6.378   8.571  0.4203 -0.8012  0.6570
  160SAPE  H18X17998   4.272   6.317   8.522  1.6943 -0.1081  1.7776
  160SAPE  H18Y17999   4.181   6.354   8.679 -0.8053 -3.4702 -0.0367
  160SAPE  H18Z18000   4.225   6.485   8.572 -1.6449 -0.1291 -1.8777
  161SAPE     N18001   5.719   4.813   6.379  0.4962  0.5376  0.9958
  161SAPE   HN118002   5.667   4.819   6.289  0.0077 -1.2225  1.1399
  161SAPE   HN218003   5.660   4.863   6.449 -1.9989  0.0383 -0.7036
  161SAPE   HN318004   5.806   4.866   6.357 -0.2667  1.3364 -0.1579
  161SAPE   C1218005   5.756   4.679   6.429 -0.5731 -0.3472  0.5837
  161SAPE  H12A18006   5.815   4.693   6.522 -0.3266 -2.8822  0.8650
  161SAPE  H12B18007   5.818   4.636   6.347 -1.7898 -1.7923  0.4010
  161SAPE   C1118008   5.634   4.597   6.472  0.3812 -0.3767 -0.0197
  161SAPE  H11A18009   5.578   4.646   6.555 -2.3644 -1.6177 -1.1043
  161SAPE  H11B18010   5.667   4.499   6.513  2.1350  0.6723  1.1688
  161SAPE     P18011   5.506   4.450   6.283  0.1406 -0.0005 -0.4463
  161SAPE   O1318012   5.361   4.440   6.288  0.5372 -0.0222  0.3411
  161SAPE   O1418013   5.570   4.479   6.149 -0.2950  0.7167 -0.2069
  161SAPE   O1218014   5.543   4.581   6.364  0.2120  0.0137  0.2057
  161SAPE   O1118015   5.582   4.324   6.350  0.2491  0.1852 -0.1760
  161SAPE    C118016   5.719   4.303   6.351  0.0911  0.1062 -0.1097
  161SAPE    HA18017   5.757   4.253   6.259 -0.5684 -1.1443  0.2954
  161SAPE    HB18018   5.782   4.393   6.371  0.0652  0.4817 -1.6848
  161SAPE    C218019   5.748   4.205   6.466  0.3993 -0.1049  0.4092
  161SAPE    HS18020   5.746   4.110   6.408 -1.2543  0.8938 -1.2602
  161SAPE   O2118021   5.650   4.201   6.578  0.2922  0.6058  0.1682
  161SAPE   C2118022   5.545   4.130   6.559  0.2109  0.7670 -0.2271
  161SAPE   O2218023   5.525   4.060   6.460  0.3287  0.0876 -0.3952
  161SAPE   C2218024   5.432   4.143   6.670  0.1557  0.2719 -0.0462
  161SAPE   H2R18025   5.339   4.111   6.619  0.5994 -2.7693  0.9437
  161SAPE   H2S18026   5.447   4.056   6.737  0.5300 -0.0671 -0.5685
  161SAPE    C318027   5.890   4.210   6.523  0.2105 -0.0544  0.3292
  161SAPE    HX18028   5.911   4.313   6.560  1.5181  0.2001 -1.0890
  161SAPE    HY18029   5.962   4.193   6.440 -0.4180 -1.0333 -0.0164
  161SAPE   O3118030   5.910   4.114   6.628 -0.3086  0.6812  0.0265
  161SAPE   C3118031   5.922   4.167   6.747  0.7548  0.2989  0.8091
  161SAPE   O3218032   5.911   4.285   6.780  0.5429  0.2237  0.6161
  161SAPE   C3218033   5.941   4.050   6.846 -0.5677  0.0295 -0.7344
  161SAPE   H2X18034   5.944   3.953   6.792  2.8453 -0.4409  0.1814
  161SAPE   H2Y18035   5.862   4.043   6.923  1.6687 -0.0312  1.6162
  161SAPE   C2318036   5.414   4.284   6.732 -0.1679 -0.4545 -0.0075
  161SAPE   H3R18037   5.304   4.298   6.733 -0.1011  0.0292  0.7043
  161SAPE   H3S18038   5.457   4.365   6.670 -1.4936 -0.1117 -0.4899
  161SAPE   C2418039   5.464   4.287   6.879 -0.2604  1.0411 -0.5027
  161SAPE   H4R18040   5.419   4.199   6.930 -0.1003  1.1247 -0.2140
  161SAPE   H4S18041   5.430   4.380   6.929 -0.4761  0.5886  0.2006
  161SAPE   C2518042   5.610   4.275   6.888 -0.8109 -0.4208 -0.2953
  161SAPE   H5R18043   5.664   4.277   6.792 -0.9925  2.0055 -0.3596
  161SAPE   C2618044   5.670   4.244   7.004 -0.8761 -0.0580  0.1856
  161SAPE   H6R18045   5.779   4.231   7.011 -1.0147 -1.7904 -0.5966
  161SAPE   C2718046   5.619   4.209   7.146 -0.1299  0.4430 -0.2801
  161SAPE   H7R18047   5.692   4.140   7.194 -0.9118 -1.1430 -1.2954
  161SAPE   H7S18048   5.518   4.162   7.138 -0.6856  1.4450  0.7527
  161SAPE   C2818049   5.602   4.342   7.215 -0.0789  0.1099  0.0620
  161SAPE   H8R18050   5.696   4.396   7.238 -1.9530  3.8662 -0.6060
  161SAPE   C2918051   5.485   4.399   7.246 -0.1011  0.4329  0.2732
  161SAPE   H9R18052   5.497   4.490   7.307 -0.4423  0.2507  0.6099
  161SAPE  C21018053   5.343   4.344   7.217 -0.7728 -0.0463  0.6050
  161SAPE  H10R18054   5.352   4.237   7.247 -1.8668 -0.5662 -0.8371
  161SAPE  H10S18055   5.312   4.346   7.110  0.5861 -0.3550  0.1972
  161SAPE  C21118056   5.229   4.422   7.288  0.0889  1.1062 -0.1160
  161SAPE  H11R18057   5.161   4.461   7.211 -1.7488 -0.1774  0.8125
  161SAPE  C21218058   5.212   4.436   7.420 -0.0217 -0.1572 -1.1577
  161SAPE  H12R18059   5.137   4.508   7.456 -0.2144 -0.5073 -0.8408
  161SAPE  C21318060   5.292   4.385   7.536 -0.0320  0.0021 -0.5876
  161SAPE  H13R18061   5.396   4.359   7.506  0.7615  3.4001 -1.0989
  161SAPE  H13S18062   5.248   4.288   7.567  0.0187 -0.5383 -2.1801
  161SAPE  C21418063   5.286   4.495   7.636 -0.3504 -0.0021 -0.5935
  161SAPE  H14R18064   5.320   4.596   7.610 -0.4362  0.0861 -0.3698
  161SAPE  C21518065   5.251   4.477   7.765 -0.3519  0.3959 -0.0424
  161SAPE  H15R18066   5.237   4.572   7.819  0.1729  0.5779 -0.2245
  161SAPE  C21618067   5.219   4.352   7.844  0.0726  0.2242  0.4373
  161SAPE  H16R18068   5.264   4.262   7.795  2.5516  1.0166  1.1776
  161SAPE  H16S18069   5.109   4.341   7.853  0.2990 -4.2306 -1.2300
  161SAPE  C21718070   5.285   4.365   7.987 -0.2257  0.6243  0.6941
  161SAPE  H17R18071   5.253   4.465   8.023 -1.1838  0.8642 -0.7661
  161SAPE  H17S18072   5.395   4.348   7.981 -0.2128 -0.2053  2.8428
  161SAPE  C21818073   5.213   4.274   8.088 -0.0067  0.0928 -0.3237
  161SAPE  H18R18074   5.204   4.176   8.036 -0.4080 -0.7774  1.3588
  161SAPE  H18S18075   5.116   4.327   8.102 -0.6805 -0.6247 -2.1103
  161SAPE  C21918076   5.292   4.271   8.218 -0.9737 -0.0102  0.3365
  161SAPE  H19R18077   5.314   4.373   8.258  2.6785 -0.6012  0.0412
  161SAPE  H19S18078   5.391   4.230   8.190  0.4142  0.8769  3.6584
  161SAPE  C22018079   5.227   4.183   8.332  0.4017  0.6996 -0.1261
  161SAPE  H20R18080   5.262   4.078   8.326 -0.9996  0.1151  1.5124
  161SAPE  H20S18081   5.118   4.206   8.331 -0.0035 -1.2069 -1.6474
  161SAPE  H20T18082   5.280   4.209   8.427 -0.4148 -1.2978  0.8920
  161SAPE   C3318083   6.078   4.061   6.917  0.7579  0.2575 -0.6010
  161SAPE   H3X18084   6.110   4.168   6.919 -1.1694  0.8517 -0.1723
  161SAPE   H3Y18085   6.152   3.998   6.864  1.4113  0.8892 -0.4510
  161SAPE   C3418086   6.092   4.010   7.062  0.6198 -0.6286  0.4358
  161SAPE   H4X18087   6.196   4.022   7.099  0.5476  3.7983 -0.5072
  161SAPE   H4Y18088   6.064   3.903   7.060  2.6223 -1.1878  1.5218
  161SAPE   C3518089   6.007   4.093   7.161  0.8053  0.6616 -0.0616
  161SAPE   H5X18090   5.899   4.092   7.139  0.4871  1.3089  1.3820
  161SAPE   H5Y18091   6.032   4.200   7.146  1.2946  0.5277 -0.2180
  161SAPE   C3618092   6.031   4.054   7.304  0.1920  0.1532 -0.2148
  161SAPE   H6X18093   6.133   4.087   7.332 -0.4559  0.3631  1.9212
  161SAPE   H6Y18094   6.035   3.943   7.307 -1.8084  0.0133 -1.5686
  161SAPE   C3718095   5.938   4.117   7.405  0.3147  0.5506  0.1228
  161SAPE   H7X18096   5.973   4.089   7.507 -0.0522  0.4672  0.2254
  161SAPE   H7Y18097   5.843   4.065   7.381  1.3259 -1.0422 -0.4985
  161SAPE   C3818098   5.919   4.264   7.396 -0.9453  0.3890 -0.0261
  161SAPE   H8X18099   5.827   4.292   7.451  0.0652  0.7847  1.4770
  161SAPE   H8Y18100   5.890   4.295   7.293 -0.7161 -1.1199 -0.5547
  161SAPE   C3918101   6.050   4.350   7.421 -0.0227 -0.1159  0.6502
  161SAPE   H9X18102   6.012   4.454   7.414 -1.4883 -0.8004 -2.3602
  161SAPE   H9Y18103   6.111   4.334   7.330 -1.8327  2.5904 -1.1096
  161SAPE  C31018104   6.111   4.327   7.561 -0.8987  1.4218 -0.3584
  161SAPE  H10X18105   6.208   4.379   7.579  0.7293 -1.9456  0.8767
  161SAPE  H10Y18106   6.135   4.219   7.555  2.2313  2.1001 -1.0780
  161SAPE  C31118107   6.017   4.349   7.686 -0.2240  0.6364  0.9946
  161SAPE  H11X18108   5.917   4.305   7.664 -1.0269  2.2389  1.3652
  161SAPE  H11Y18109   5.996   4.458   7.686 -1.7253  0.4013 -2.2650
  161SAPE  C31218110   6.077   4.299   7.817 -0.4048  0.4712  0.3070
  161SAPE  H12X18111   6.183   4.333   7.818  0.0898 -0.9304 -1.9832
  161SAPE  H12Y18112   6.065   4.189   7.814  1.1652  0.0953  4.4211
  161SAPE  C31318113   5.999   4.359   7.944  0.5558  0.2897 -0.2355
  161SAPE  H13X18114   5.892   4.328   7.943  0.7656 -0.4434 -0.0387
  161SAPE  H13Y18115   6.012   4.469   7.949 -1.7789  0.4711  3.3828
  161SAPE  C31418116   6.047   4.307   8.083 -0.7822  0.1690  0.5144
  161SAPE  H14X18117   6.152   4.325   8.113 -1.2465 -0.9265  2.9316
  161SAPE  H14Y18118   6.042   4.196   8.085 -1.6047  0.1881 -0.1345
  161SAPE  C31518119   5.977   4.361   8.209  0.8615  1.1060 -0.4201
  161SAPE  H15X18120   6.020   4.305   8.295 -0.3135  0.1617 -0.4446
  161SAPE  H15Y18121   5.871   4.330   8.196  1.3541  0.0569 -2.0506
  161SAPE  C31618122   5.978   4.510   8.221 -0.0038  0.1746  0.5223
  161SAPE  H16X18123   5.915   4.561   8.145  0.1547 -1.9006 -1.0602
  161SAPE  H16Y18124   6.085   4.532   8.200  0.6590 -1.5979  1.8572
  161SAPE  C31718125   5.940   4.565   8.353  0.4703 -0.3781 -0.4199
  161SAPE  H17X18126   5.840   4.526   8.383  1.4068 -3.8395 -1.5883
  161SAPE  H17Y18127   5.927   4.676   8.347 -0.3158 -0.5660 -2.8365
  161SAPE  C31818128   6.039   4.544   8.464 -0.7774 -0.0719 -0.2003
  161SAPE  H18X18129   6.065   4.437   8.445 -0.9704 -0.1344 -0.1147
  161SAPE  H18Y18130   5.987   4.551   8.562 -1.3881  6.5924 -0.7665
  161SAPE  H18Z18131   6.132   4.603   8.454  0.5680 -1.6946  2.0334
  162SAPE     N18132   4.027   6.745   5.894  0.1303 -0.0218 -0.3166
  162SAPE   HN118133   4.117   6.746   5.946  0.3309 -0.9341 -0.6288
  162SAPE   HN218134   3.973   6.662   5.928  0.0529 -0.5557 -1.7107
  162SAPE   HN318135   4.030   6.716   5.794  0.6760 -2.3908  0.3478
  162SAPE   C1218136   3.935   6.865   5.913 -0.0653 -0.2254  0.4470
  162SAPE  H12A18137   3.862   6.860   5.830 -0.2322 -0.1235  0.5865
  162SAPE  H12B18138   4.004   6.952   5.901 -1.6768  0.6433 -3.3760
  162SAPE   C1118139   3.869   6.868   6.055  0.6004  0.1257  0.4953
  162SAPE  H11A18140   3.840   6.975   6.061  0.3444  0.0528  0.5671
  162SAPE  H11B18141   3.945   6.857   6.136  1.6483 -1.4458 -0.6574
  162SAPE     P18142   3.776   6.649   6.139  0.2424  0.2194  0.5261
  162SAPE   O1318143   3.650   6.573   6.116 -0.2199 -0.2191  0.6729
  162SAPE   O1418144   3.894   6.578   6.090 -0.2528  0.3663  0.1181
  162SAPE   O1218145   3.756   6.786   6.063  0.2253  0.3787  0.5000
  162SAPE   O1118146   3.793   6.691   6.291  0.2173  0.9429 -0.2445
  162SAPE    C118147   3.676   6.709   6.387  1.0283  0.5786 -0.4652
  162SAPE    HA18148   3.603   6.626   6.395 -0.4304  1.9772  1.1137
  162SAPE    HB18149   3.723   6.720   6.487  0.0742  0.6938 -0.0214
  162SAPE    C218150   3.606   6.846   6.359  0.3700 -0.8920 -0.0727
  162SAPE    HS18151   3.559   6.850   6.258 -1.9872 -0.4623  1.0085
  162SAPE   O2118152   3.698   6.957   6.381  0.8675  0.5043 -0.0574
  162SAPE   C2118153   3.655   7.073   6.323  0.5169 -0.1048  0.6072
  162SAPE   O2218154   3.550   7.092   6.261 -0.3409 -0.4021  0.5127
  162SAPE   C2218155   3.772   7.178   6.332  0.4258 -0.4676 -0.7139
  162SAPE   H2R18156   3.857   7.145   6.268 -1.9228  1.2018 -4.9333
  162SAPE   H2S18157   3.737   7.272   6.285  0.9230 -0.3544 -0.8592
  162SAPE    C318158   3.489   6.856   6.467 -0.6286 -0.3394  0.4460
  162SAPE    HX18159   3.431   6.768   6.433 -1.7049  0.3710  0.4328
  162SAPE    HY18160   3.438   6.953   6.449  0.0251  0.0506  0.6543
  162SAPE   O3118161   3.536   6.839   6.602  0.1889 -0.4125  0.0462
  162SAPE   C3118162   3.587   6.946   6.663  0.5926 -0.4341  0.2932
  162SAPE   O3218163   3.565   7.065   6.635 -0.2050 -0.4649 -0.6743
  162SAPE   C3218164   3.691   6.899   6.767  0.0754  0.0017  0.2939
  162SAPE   H2X18165   3.788   6.933   6.724 -0.1795 -0.3593 -0.5809
  162SAPE   H2Y18166   3.683   6.789   6.778  1.4488 -0.0626  0.7171
  162SAPE   C2318167   3.800   7.208   6.478  0.3532  0.2959  0.0235
  162SAPE   H3R18168   3.839   7.113   6.522  0.3912  0.4394  0.2966
  162SAPE   H3S18169   3.709   7.234   6.536  0.1098 -1.3713  0.4182
  162SAPE   C2418170   3.908   7.313   6.494 -0.3117 -0.2038  0.6115
  162SAPE   H4R18171   3.897   7.364   6.592 -0.8013  0.0075  0.4455
  162SAPE   H4S18172   3.892   7.394   6.420 -2.1050 -0.8916  0.2277
  162SAPE   C2518173   4.043   7.241   6.474  0.2270 -0.8325  0.0977
  162SAPE   H5R18174   4.061   7.228   6.366 -3.1251  0.3198 -0.6672
  162SAPE   C2618175   4.128   7.219   6.573 -0.6836 -0.2477  0.3072
  162SAPE   H6R18176   4.227   7.177   6.551 -0.1455  0.2058  1.8089
  162SAPE   C2718177   4.109   7.239   6.724  0.3441  0.1312  0.0656
  162SAPE   H7R18178   4.010   7.268   6.765  0.5631  1.7257 -0.4806
  162SAPE   H7S18179   4.173   7.326   6.749  0.1048  0.4595 -0.4626
  162SAPE   C2818180   4.149   7.104   6.786 -0.1169  0.2206 -0.0359
  162SAPE   H8R18181   4.123   7.009   6.738  1.0530 -0.8282  1.3733
  162SAPE   C2918182   4.198   7.101   6.911 -0.5086  0.8455  0.1938
  162SAPE   H9R18183   4.214   7.004   6.961  0.7901  1.0507  0.1889
  162SAPE  C21018184   4.226   7.213   7.002  0.5639 -0.2468  0.6776
  162SAPE  H10R18185   4.225   7.309   6.946 -1.5932 -0.5394  0.1834
  162SAPE  H10S18186   4.332   7.195   7.032  0.7788 -2.3388 -1.0999
  162SAPE  C21118187   4.126   7.225   7.112 -0.4154  0.4387 -0.5534
  162SAPE  H11R18188   4.021   7.202   7.088 -0.4762 -1.5327  1.3919
  162SAPE  C21218189   4.156   7.202   7.242  0.0224 -0.2215 -0.2839
  162SAPE  H12R18190   4.076   7.210   7.318  0.5497 -0.7127  0.3296
  162SAPE  C21318191   4.295   7.187   7.309 -0.0230 -0.3720  0.9668
  162SAPE  H13R18192   4.346   7.284   7.295  0.6069 -0.9960 -1.1587
  162SAPE  H13S18193   4.361   7.125   7.245  0.0576 -1.8554  2.4459
  162SAPE  C21418194   4.300   7.124   7.449  0.3569  0.3138  0.3810
  162SAPE  H14R18195   4.302   7.014   7.443 -0.5384  0.2355  1.4156
  162SAPE  C21518196   4.301   7.181   7.566 -0.6824  0.1845 -0.5958
  162SAPE  H15R18197   4.295   7.118   7.656  3.3887  0.9179  0.2489
  162SAPE  C21618198   4.298   7.326   7.601 -0.0918 -0.8702 -0.4983
  162SAPE  H16R18199   4.198   7.374   7.606 -0.2930 -1.1499 -1.7332
  162SAPE  H16S18200   4.341   7.389   7.521 -0.2395 -1.0921 -0.7517
  162SAPE  C21718201   4.358   7.353   7.742 -0.1879  0.5755  0.0965
  162SAPE  H17R18202   4.453   7.296   7.744  0.2760  1.3046 -0.9623
  162SAPE  H17S18203   4.297   7.302   7.820 -0.3327 -0.0144 -0.3933
  162SAPE  C21818204   4.377   7.494   7.783  0.7527  0.5049  0.2374
  162SAPE  H18R18205   4.284   7.542   7.746 -0.1660 -0.2347  1.4893
  162SAPE  H18S18206   4.471   7.533   7.740  1.6775  1.5504  3.0609
  162SAPE  C21918207   4.387   7.523   7.934 -0.3546  0.5764 -0.0115
  162SAPE  H19R18208   4.427   7.624   7.958  1.9662 -0.6513  1.5032
  162SAPE  H19S18209   4.460   7.448   7.972 -0.8913 -1.5631 -3.0743
  162SAPE  C22018210   4.262   7.512   8.011  0.3784  0.0929  0.1076
  162SAPE  H20R18211   4.269   7.551   8.115  4.5573  0.2924 -0.1819
  162SAPE  H20S18212   4.237   7.408   8.043 -0.7082  1.0136  2.3944
  162SAPE  H20T18213   4.175   7.553   7.955  0.0583 -0.4411  0.2048
  162SAPE   C3318214   3.681   6.988   6.891  0.7963 -0.8600  0.7250
  162SAPE   H3X18215   3.576   7.019   6.909 -0.5870 -2.8932 -3.1511
  162SAPE   H3Y18216   3.741   7.080   6.874 -1.6005  0.3951 -1.2701
  162SAPE   C3418217   3.758   6.922   7.003  0.4581  0.1086 -0.0764
  162SAPE   H4X18218   3.861   6.910   6.963  0.5236 -0.6407  0.3188
  162SAPE   H4Y18219   3.709   6.829   7.037  1.9337 -0.8900 -0.6447
  162SAPE   C3518220   3.761   7.014   7.131 -0.1366  0.4750  0.3179
  162SAPE   H5X18221   3.662   7.042   7.172  0.3682 -0.5065  2.3026
  162SAPE   H5Y18222   3.823   7.100   7.099  1.8359 -0.0984  2.4519
  162SAPE   C3618223   3.832   6.948   7.244  0.3642 -0.0919 -0.8435
  162SAPE   H6X18224   3.936   6.925   7.210  0.5133 -0.0928 -0.3841
  162SAPE   H6Y18225   3.791   6.850   7.276 -3.6329  0.8614 -2.7792
  162SAPE   C3718226   3.831   7.042   7.366  0.5915  0.5366 -0.6892
  162SAPE   H7X18227   3.725   7.050   7.399  1.1051 -2.6621  1.9799
  162SAPE   H7Y18228   3.867   7.142   7.333  0.4731  0.7665 -0.1141
  162SAPE   C3818229   3.912   6.987   7.485  0.5411  0.7112 -0.2741
  162SAPE   H8X18230   4.016   6.970   7.452  0.9615  4.3359 -1.0833
  162SAPE   H8Y18231   3.870   6.888   7.512 -0.6748  0.8611 -1.5304
  162SAPE   C3918232   3.904   7.084   7.602  0.3046 -0.0883  0.2871
  162SAPE   H9X18233   3.802   7.128   7.613  0.6542  0.3706  1.7392
  162SAPE   H9Y18234   3.965   7.174   7.581  2.1296 -1.2051  0.6475
  162SAPE  C31018235   3.939   7.010   7.730  0.2380 -0.1898  0.9550
  162SAPE  H10X18236   4.048   7.003   7.747 -0.0300 -3.2911  1.8305
  162SAPE  H10Y18237   3.891   6.909   7.729 -1.7473  0.6751  3.3898
  162SAPE  C31118238   3.886   7.091   7.850 -0.5121 -0.2179  0.7685
  162SAPE  H11X18239   3.775   7.093   7.860 -0.7143  0.2409 -1.3719
  162SAPE  H11Y18240   3.918   7.196   7.834  1.7455 -0.7217  1.9130
  162SAPE  C31218241   3.947   7.049   7.979  0.7483  0.3514 -0.3560
  162SAPE  H12X18242   4.048   7.002   7.971  0.2423 -0.5502 -1.5052
  162SAPE  H12Y18243   3.885   6.972   8.029 -0.4838  1.2507 -0.4792
  162SAPE  C31318244   3.950   7.169   8.072  0.0196  1.3445  0.3183
  162SAPE  H13X18245   3.856   7.228   8.070  0.2802  1.7780  0.6918
  162SAPE  H13Y18246   4.031   7.241   8.048 -0.3402  1.4693 -0.5611
  162SAPE  C31418247   4.008   7.124   8.212 -0.0112 -0.5060 -0.6221
  162SAPE  H14X18248   4.103   7.070   8.190  2.8445  2.7004  3.2318
  162SAPE  H14Y18249   3.927   7.057   8.247 -1.0397  1.6685  1.2847
  162SAPE  C31518250   4.041   7.250   8.305 -0.3500  0.0109 -0.1589
  162SAPE  H15X18251   4.134   7.293   8.262  1.5100 -1.6554  2.1223
  162SAPE  H15Y18252   4.068   7.215   8.407  1.4336 -0.4564 -0.7689
  162SAPE  C31618253   3.927   7.348   8.320  0.2988  0.0035  0.1182
  162SAPE  H16X18254   3.837   7.288   8.343 -1.9918  3.3525  0.3449
  162SAPE  H16Y18255   3.891   7.395   8.225  1.7950  0.4983 -0.2118
  162SAPE  C31718256   3.957   7.460   8.420  0.1497 -0.3902 -0.4218
  162SAPE  H17X18257   3.990   7.413   8.515  1.0252 -1.0714 -1.0629
  162SAPE  H17Y18258   3.871   7.522   8.455  1.1906  0.2107  1.1218
  162SAPE  C31818259   4.073   7.551   8.366 -0.4302  0.0151  0.0600
  162SAPE  H18X18260   4.095   7.633   8.438  2.0138  0.2609 -0.9525
  162SAPE  H18Y18261   4.035   7.593   8.270  0.2297 -0.5906 -0.4710
  162SAPE  H18Z18262   4.163   7.490   8.347 -0.9241 -1.1996  1.5274
  163SAPE     N18263   3.361   4.961   6.700 -0.3276 -0.4757 -0.1046
  163SAPE   HN118264   3.273   4.931   6.653 -0.8886  0.6531  0.1772
  163SAPE   HN218265   3.430   4.964   6.623 -0.0982  1.5942  0.1545
  163SAPE   HN318266   3.387   4.872   6.747  1.2062 -0.1295 -0.2771
  163SAPE   C1218267   3.349   5.090   6.775 -0.6051  0.1899  0.1072
  163SAPE  H12A18268   3.337   5.172   6.701 -1.5363  0.5854  0.6835
  163SAPE  H12B18269   3.446   5.105   6.826 -0.0391 -0.9830 -0.6070
  163SAPE   C1118270   3.225   5.079   6.863 -0.3608 -1.5645 -0.0741
  163SAPE  H11A18271   3.205   5.184   6.894 -1.0651 -1.9728  0.8989
  163SAPE  H11B18272   3.246   5.023   6.957 -2.8310 -1.4714  0.5644
  163SAPE     P18273   2.992   5.132   6.737 -0.1664  0.4531  0.7235
  163SAPE   O1318274   3.063   5.257   6.703 -0.0340 -0.7632 -0.0883
  163SAPE   O1418275   2.918   5.072   6.623  0.2143 -0.0112  0.0684
  163SAPE   O1218276   3.110   5.032   6.797  0.1013  0.0223  0.0350
  163SAPE   O1118277   2.897   5.156   6.855 -0.0807  0.3267  0.0634
  163SAPE    C118278   2.878   5.030   6.932 -0.2164  0.2370  0.1063
  163SAPE    HA18279   2.797   4.973   6.881  1.6025 -1.5951 -0.8344
  163SAPE    HB18280   2.968   4.966   6.946  1.8935  3.3492  1.2717
  163SAPE    C218281   2.833   5.054   7.085  0.1901  0.0062  0.1237
  163SAPE    HS18282   2.757   5.135   7.080 -0.3395 -0.4393  0.7555
  163SAPE   O2118283   2.951   5.088   7.156  0.3654 -0.0239  0.0861
  163SAPE   C2118284   2.991   5.213   7.145 -0.4139 -0.1237 -0.2802
  163SAPE   O2218285   2.918   5.309   7.128  0.2268 -0.2200  0.5979
  163SAPE   C2218286   3.133   5.225   7.183 -0.1132  0.5740  0.9780
  163SAPE   H2R18287   3.162   5.135   7.241 -0.4940 -0.4861 -0.4666
  163SAPE   H2S18288   3.197   5.242   7.094  0.3984  1.3808  1.4919
  163SAPE    C318289   2.774   4.926   7.148  0.1771 -0.2557 -0.1046
  163SAPE    HX18290   2.840   4.840   7.127  1.0016  0.5874 -1.0215
  163SAPE    HY18291   2.678   4.907   7.095 -0.4688  0.5281  0.7560
  163SAPE   O3118292   2.768   4.935   7.292 -0.3575  0.3564  0.0411
  163SAPE   C3118293   2.662   5.006   7.334 -0.2602 -0.3000  1.1660
  163SAPE   O3218294   2.589   5.066   7.255 -0.0936  0.1227 -1.2319
  163SAPE   C3218295   2.659   4.998   7.487  0.4076  0.9103 -0.4022
  163SAPE   H2X18296   2.738   5.068   7.521  1.9576 -0.3907 -1.2630
  163SAPE   H2Y18297   2.679   4.893   7.516  0.5699  1.4024  1.3256
  163SAPE   C2318298   3.153   5.356   7.260  0.5635  0.3706  0.4661
  163SAPE   H3R18299   3.084   5.349   7.347  0.2122 -3.8164 -0.0385
  163SAPE   H3S18300   3.127   5.441   7.194 -0.6638 -0.1892  0.2115
  163SAPE   C2418301   3.298   5.374   7.314 -0.2485 -0.2045 -0.3778
  163SAPE   H4R18302   3.371   5.353   7.233  0.1850  0.0812 -0.0605
  163SAPE   H4S18303   3.323   5.289   7.381 -0.8013  1.5660  2.1418
  163SAPE   C2518304   3.322   5.506   7.377 -0.2255 -0.0438 -0.4655
  163SAPE   H5R18305   3.339   5.584   7.301  1.9237 -0.9209 -0.9338
  163SAPE   C2618306   3.336   5.539   7.505 -0.1702  0.8092 -0.2469
  163SAPE   H6R18307   3.346   5.646   7.531  1.9566  0.6412 -0.3033
  163SAPE   C2718308   3.319   5.444   7.624 -0.1280  1.0172  0.1204
  163SAPE   H7R18309   3.233   5.376   7.609 -0.1393  0.6836  1.5744
  163SAPE   H7S18310   3.302   5.498   7.720  1.0714 -0.9806  1.4998
  163SAPE   C2818311   3.449   5.365   7.646 -0.0681  0.1481  0.2102
  163SAPE   H8R18312   3.516   5.346   7.561  1.5550  0.9873  1.2769
  163SAPE   C2918313   3.478   5.308   7.766 -0.3006 -0.5718 -0.0007
  163SAPE   H9R18314   3.565   5.243   7.783  0.5030  0.5894  0.3503
  163SAPE  C21018315   3.392   5.318   7.891  0.0728 -0.1268  0.0990
  163SAPE  H10R18316   3.288   5.352   7.873  0.2983 -0.1167 -1.2429
  163SAPE  H10S18317   3.446   5.399   7.944  1.7805 -2.1119  1.4879
  163SAPE  C21118318   3.381   5.199   7.977  0.7380  0.2670 -0.0994
  163SAPE  H11R18319   3.332   5.111   7.933 -2.8478  0.9881  2.2348
  163SAPE  C21218320   3.385   5.194   8.114 -0.1133 -0.8605 -0.0191
  163SAPE  H12R18321   3.377   5.102   8.175  0.4652 -2.5031 -2.3286
  163SAPE  C21318322   3.425   5.309   8.203  0.0426  0.1832  0.4031
  163SAPE  H13R18323   3.507   5.370   8.159  1.1443 -1.4533  0.1362
  163SAPE  H13S18324   3.454   5.262   8.299 -2.8192  0.4664  1.4503
  163SAPE  C21418325   3.306   5.396   8.239 -0.0032  0.1871 -0.2074
  163SAPE  H14R18326   3.228   5.398   8.161 -0.9725 -2.0771  0.6325
  163SAPE  C21518327   3.257   5.442   8.358 -1.3144  0.1372 -0.5804
  163SAPE  H15R18328   3.156   5.486   8.360 -2.4274 -2.3597 -1.1683
  163SAPE  C21618329   3.321   5.431   8.494  0.3476 -0.9156 -0.0292
  163SAPE  H16R18330   3.428   5.399   8.486  0.9241  0.7225  0.9523
  163SAPE  H16S18331   3.268   5.358   8.560 -1.2646  1.7736  1.7423
  163SAPE  C21718332   3.328   5.573   8.565  0.5041  0.3849  0.0710
  163SAPE  H17R18333   3.233   5.593   8.619 -0.0602  1.4069 -1.2798
  163SAPE  H17S18334   3.345   5.655   8.492  1.6344 -1.0888 -1.3549
  163SAPE  C21818335   3.454   5.587   8.658  0.2458 -0.4545  0.8368
  163SAPE  H18R18336   3.441   5.687   8.704  1.0171  0.0722 -0.0822
  163SAPE  H18S18337   3.546   5.594   8.596 -0.4563  0.0885 -0.1549
  163SAPE  C21918338   3.483   5.483   8.763  0.0344 -0.6362 -0.0477
  163SAPE  H19R18339   3.580   5.509   8.809 -0.5480 -0.5736  1.1658
  163SAPE  H19S18340   3.497   5.385   8.713 -1.0613 -0.4347 -0.7774
  163SAPE  C22018341   3.384   5.467   8.873  0.1381 -0.1837 -0.3678
  163SAPE  H20R18342   3.286   5.432   8.835 -0.5844 -1.2397  2.3342
  163SAPE  H20S18343   3.371   5.555   8.940  0.5897  0.0973 -0.6422
  163SAPE  H20T18344   3.423   5.391   8.944 -1.9382 -0.9821 -0.0545
  163SAPE   C3318345   2.528   5.046   7.548 -0.1213  0.5507 -0.4374
  163SAPE   H3X18346   2.452   4.966   7.536 -0.6531  0.8076  1.1086
  163SAPE   H3Y18347   2.492   5.143   7.507 -3.2744 -0.7488 -0.8384
  163SAPE   C3418348   2.533   5.063   7.701  0.4651 -0.1293  0.5458
  163SAPE   H4X18349   2.555   5.165   7.739 -2.1149  0.2706  1.0741
  163SAPE   H4Y18350   2.624   5.007   7.730  0.9936  0.7291  0.5364
  163SAPE   C3518351   2.416   5.000   7.786 -0.3107 -0.7246 -0.0508
  163SAPE   H5X18352   2.403   4.896   7.749  0.9337 -0.6527 -0.7313
  163SAPE   H5Y18353   2.321   5.055   7.778  0.3026  0.2254 -0.8782
  163SAPE   C3618354   2.455   4.986   7.936 -0.0402  0.6415  0.0444
  163SAPE   H6X18355   2.503   5.077   7.978 -0.5751  1.7539 -1.6672
  163SAPE   H6Y18356   2.532   4.907   7.946 -1.6499 -0.9115  0.5131
  163SAPE   C3718357   2.334   4.944   8.021 -0.0136 -0.3019 -0.3335
  163SAPE   H7X18358   2.300   4.845   7.983 -3.4288  0.4273  0.6849
  163SAPE   H7Y18359   2.254   5.020   8.026 -0.2171 -0.6198  1.3841
  163SAPE   C3818360   2.385   4.922   8.165 -1.3567 -0.1418  0.2261
  163SAPE   H8X18361   2.483   4.870   8.159 -1.0070  0.3877  1.2128
  163SAPE   H8Y18362   2.308   4.861   8.218 -0.8058 -1.1597 -0.1523
  163SAPE   C3918363   2.400   5.048   8.259  0.0945 -0.8392 -0.2624
  163SAPE   H9X18364   2.298   5.091   8.269  0.6505  0.7319 -1.2298
  163SAPE   H9Y18365   2.456   5.129   8.208  1.7640 -2.0469 -0.4123
  163SAPE  C31018366   2.457   5.009   8.394 -0.2587  0.1791 -0.3002
  163SAPE  H10X18367   2.558   4.965   8.378 -0.6087 -1.6564  2.2227
  163SAPE  H10Y18368   2.384   4.937   8.437  1.9199 -2.2118 -0.4939
  163SAPE  C31118369   2.473   5.126   8.493  1.0190 -0.2118 -0.0286
  163SAPE  H11X18370   2.381   5.190   8.491  0.9346 -0.3316 -0.0094
  163SAPE  H11Y18371   2.552   5.194   8.454  0.2678  1.6192  1.5196
  163SAPE  C31218372   2.525   5.084   8.636  0.9766  0.2730  0.3905
  163SAPE  H12X18373   2.439   5.045   8.695  0.3009  3.8488  1.9254
  163SAPE  H12Y18374   2.556   5.179   8.685  1.1319  0.9209 -0.9447
  163SAPE  C31318375   2.644   4.986   8.638 -0.2913  0.4355  0.3193
  163SAPE  H13X18376   2.722   5.028   8.572  0.3374  1.6063  1.7924
  163SAPE  H13Y18377   2.609   4.886   8.604  0.9563  0.3786 -0.8462
  163SAPE  C31418378   2.693   4.968   8.783 -0.2290 -0.0878 -0.0771
  163SAPE  H14X18379   2.607   4.969   8.853  0.3135  0.0471  0.6002
  163SAPE  H14Y18380   2.762   5.051   8.812 -0.1688  0.1248 -0.8282
  163SAPE  C31518381   2.766   4.838   8.800 -0.4833  0.8418 -0.3797
  163SAPE  H15X18382   2.701   4.750   8.782  0.1912  0.3082 -0.2455
  163SAPE  H15Y18383   2.800   4.843   8.906  2.1525  0.0414 -1.1539
  163SAPE  C31618384   2.889   4.816   8.714  0.2350  0.0694  0.5724
  163SAPE  H16X18385   2.946   4.906   8.682 -0.9764  0.2714 -1.0823
  163SAPE  H16Y18386   2.845   4.778   8.619  0.7705 -0.6687  0.6211
  163SAPE  C31718387   2.986   4.710   8.759  0.8673 -0.2069 -0.1217
  163SAPE  H17X18388   2.926   4.618   8.743  1.1631 -0.2962 -0.7481
  163SAPE  H17Y18389   3.008   4.709   8.868  0.1737 -1.1677  0.0115
  163SAPE  C31818390   3.115   4.703   8.676  0.4224 -0.3279 -0.7232
  163SAPE  H18X18391   3.107   4.683   8.567 -1.1298 -0.0743 -0.6730
  163SAPE  H18Y18392   3.187   4.631   8.719  0.0240 -0.0072  0.4984
  163SAPE  H18Z18393   3.157   4.806   8.671  0.7611 -0.4289  0.0441
  164SAPE     N18394   6.151   2.765   5.963 -0.0119  0.4937  0.4295
  164SAPE   HN118395   6.212   2.687   5.997 -0.5270  0.1880  0.6575
  164SAPE   HN218396   6.212   2.821   5.900 -0.7368  0.4860 -0.2817
  164SAPE   HN318397   6.133   2.836   6.037  1.5513  1.7157 -0.3294
  164SAPE   C1218398   6.030   2.715   5.886  0.4592  0.2215 -0.0631
  164SAPE  H12A18399   6.072   2.662   5.798 -0.5471  1.9239 -1.6051
  164SAPE  H12B18400   5.973   2.803   5.848  0.1333  0.5986  1.2939
  164SAPE   C1118401   5.941   2.624   5.967 -0.0598  0.6549 -0.0839
  164SAPE  H11A18402   5.845   2.604   5.913 -0.0397  1.6712 -0.4938
  164SAPE  H11B18403   5.904   2.671   6.061 -1.4983 -2.4016  0.9482
  164SAPE     P18404   6.106   2.472   6.118 -0.3947 -0.0787  0.3940
  164SAPE   O1318405   6.125   2.327   6.128  0.0234 -0.1435 -0.0063
  164SAPE   O1418406   6.232   2.553   6.115 -0.3585 -0.2337  0.8085
  164SAPE   O1218407   6.017   2.501   5.994 -0.1340 -0.0506 -0.0335
  164SAPE   O1118408   6.011   2.518   6.240 -0.4290  0.3132 -0.1568
  164SAPE    C118409   5.903   2.432   6.281  0.1591  0.2302  0.0281
  164SAPE    HA18410   5.815   2.499   6.280  0.5131  0.6885 -2.0765
  164SAPE    HB18411   5.897   2.341   6.218 -1.9566  0.7134 -0.5239
  164SAPE    C218412   5.914   2.387   6.430  0.8819  0.7750  0.1479
  164SAPE    HS18413   5.921   2.478   6.494  1.0369 -0.5491  2.0502
  164SAPE   O2118414   6.015   2.289   6.430  0.1812 -0.1973 -0.1350
  164SAPE   C2118415   6.128   2.339   6.471  0.3050 -0.2562 -0.4407
  164SAPE   O2218416   6.150   2.456   6.501  0.4039  0.3101  0.3580
  164SAPE   C2218417   6.239   2.232   6.464  0.2543 -0.3131  0.0443
  164SAPE   H2R18418   6.197   2.131   6.440 -0.3421 -0.4419  1.5886
  164SAPE   H2S18419   6.301   2.274   6.382 -0.1109  0.5512  0.2157
  164SAPE    C318420   5.775   2.329   6.474  0.7963 -0.8815 -0.0209
  164SAPE    HX18421   5.743   2.233   6.427 -1.5131  0.3430 -1.0204
  164SAPE    HY18422   5.694   2.399   6.444  3.3478  1.8001 -0.8963
  164SAPE   O3118423   5.780   2.317   6.626  0.3363  0.0690 -0.5479
  164SAPE   C3118424   5.809   2.195   6.673 -0.2152 -0.5165  0.1258
  164SAPE   O3218425   5.806   2.095   6.608  0.1153  0.3782 -0.2021
  164SAPE   C3218426   5.827   2.211   6.828 -0.3208  0.5270  0.3010
  164SAPE   H2X18427   5.732   2.255   6.863 -0.3443 -0.1002  1.0190
  164SAPE   H2Y18428   5.909   2.287   6.831 -0.8836  1.1734 -0.4226
  164SAPE   C2318429   6.313   2.231   6.600  0.4828 -0.1391 -0.5818
  164SAPE   H3R18430   6.252   2.184   6.680 -0.4179 -3.4508 -3.0842
  164SAPE   H3S18431   6.332   2.335   6.632  4.2510 -0.4342 -1.6239
  164SAPE   C2418432   6.452   2.160   6.602  0.2335 -0.2368 -0.8565
  164SAPE   H4R18433   6.509   2.181   6.509  1.1501 -0.4980 -0.3650
  164SAPE   H4S18434   6.438   2.050   6.603 -0.1548 -0.1978 -2.0497
  164SAPE   C2518435   6.541   2.207   6.715 -1.1819  0.0659 -0.6980
  164SAPE   H5R18436   6.546   2.316   6.721  2.6273 -0.0596 -0.3386
  164SAPE   C2618437   6.601   2.134   6.815 -0.5718  0.5527  0.4268
  164SAPE   H6R18438   6.661   2.188   6.889  0.7277  0.9495 -0.8819
  164SAPE   C2718439   6.594   1.987   6.842 -0.1992 -0.3716 -0.1501
  164SAPE   H7R18440   6.497   1.945   6.808 -1.0380  1.5317 -0.1622
  164SAPE   H7S18441   6.607   1.963   6.950  1.4126 -0.5222 -0.3602
  164SAPE   C2818442   6.706   1.917   6.771  0.1541 -0.7915  0.4302
  164SAPE   H8R18443   6.683   1.896   6.666 -0.3478  2.4305 -0.1366
  164SAPE   C2918444   6.830   1.890   6.818  0.0023  0.3569  0.0565
  164SAPE   H9R18445   6.907   1.844   6.755 -1.0777  0.8854 -1.6782
  164SAPE  C21018446   6.875   1.932   6.955  0.1054 -0.2486  0.4193
  164SAPE  H10R18447   6.871   1.851   7.032 -1.8603 -1.7344 -1.1860
  164SAPE  H10S18448   6.810   2.011   6.999  0.7909 -0.2983  1.5522
  164SAPE  C21118449   7.010   1.990   6.937 -0.0817  0.1983  0.5980
  164SAPE  H11R18450   7.016   2.079   6.874 -1.0534  1.6826  2.5470
  164SAPE  C21218451   7.124   1.935   6.984 -0.6345 -0.4994  0.0790
  164SAPE  H12R18452   7.216   1.992   6.966 -0.1890 -0.4079  2.5486
  164SAPE  C21318453   7.130   1.812   7.069  0.3966  0.1976 -0.2271
  164SAPE  H13R18454   7.104   1.722   7.010  0.9844  0.3810 -0.7706
  164SAPE  H13S18455   7.051   1.823   7.146  0.5259 -0.8700  0.0707
  164SAPE  C21418456   7.263   1.783   7.125  0.8731 -0.4438  0.0106
  164SAPE  H14R18457   7.332   1.763   7.042  1.5434  1.4098  0.1023
  164SAPE  C21518458   7.295   1.766   7.258 -0.6433  0.8282  0.1722
  164SAPE  H15R18459   7.397   1.729   7.278 -1.1049 -1.2843 -1.1389
  164SAPE  C21618460   7.195   1.792   7.379 -0.4482  0.1619  1.2524
  164SAPE  H16R18461   7.091   1.791   7.340  0.3974  2.5650 -1.2684
  164SAPE  H16S18462   7.222   1.897   7.407  3.0481  0.1878 -1.7650
  164SAPE  C21718463   7.214   1.695   7.503  0.2560 -0.5776  0.4420
  164SAPE  H17R18464   7.209   1.593   7.461  3.1882 -1.0087  1.0189
  164SAPE  H17S18465   7.130   1.709   7.575 -0.7175  2.8688 -1.2505
  164SAPE  C21818466   7.343   1.733   7.585 -0.6732  0.1407  0.0323
  164SAPE  H18R18467   7.340   1.844   7.600  0.1054  0.0116  1.1766
  164SAPE  H18S18468   7.429   1.702   7.523  0.5348  0.4753  1.5094
  164SAPE  C21918469   7.342   1.651   7.714  0.0936 -0.6899  0.1780
  164SAPE  H19R18470   7.353   1.543   7.690  1.5681 -0.8871  1.6484
  164SAPE  H19S18471   7.237   1.663   7.750 -0.2089 -2.4238 -0.0489
  164SAPE  C22018472   7.450   1.690   7.816  0.6964  0.4310 -0.0053
  164SAPE  H20R18473   7.548   1.657   7.775  0.3028  0.0008 -0.5951
  164SAPE  H20S18474   7.452   1.637   7.914 -0.3488  2.2979  1.0617
  164SAPE  H20T18475   7.464   1.799   7.833 -1.1248  0.9146 -1.4947
  164SAPE   C3318476   5.855   2.081   6.907  0.3950 -0.8633 -0.8012
  164SAPE   H3X18477   5.962   2.053   6.899  0.5868 -0.5476  0.5119
  164SAPE   H3Y18478   5.801   1.996   6.861 -0.3797 -0.4525 -0.6647
  164SAPE   C3418479   5.804   2.097   7.051  0.2923  0.4561 -0.6495
  164SAPE   H4X18480   5.697   2.125   7.040 -0.3681 -1.4069  0.8174
  164SAPE   H4Y18481   5.853   2.180   7.106  2.4931 -0.8791 -0.5345
  164SAPE   C3518482   5.815   1.965   7.132 -1.0098  0.5374 -0.0567
  164SAPE   H5X18483   5.923   1.947   7.151 -0.7720  0.4050 -1.4999
  164SAPE   H5Y18484   5.768   1.873   7.090 -1.2088 -0.7959  2.9527
  164SAPE   C3618485   5.737   1.965   7.263 -0.0650  0.9020  0.4414
  164SAPE   H6X18486   5.725   1.860   7.296 -1.9865  0.6834 -0.8921
  164SAPE   H6Y18487   5.629   1.990   7.256  0.2036  1.7859 -0.6166
  164SAPE   C3718488   5.787   2.067   7.373 -0.2595 -0.5744  0.2169
  164SAPE   H7X18489   5.766   2.169   7.334  2.1734  1.6553  4.3221
  164SAPE   H7Y18490   5.896   2.069   7.395 -0.1947 -1.4421 -0.0311
  164SAPE   C3818491   5.702   2.059   7.497  0.5675 -0.7157  0.7762
  164SAPE   H8X18492   5.594   2.049   7.475  0.5956 -1.3417  0.9208
  164SAPE   H8Y18493   5.717   2.152   7.556 -0.1201 -0.0216 -0.1317
  164SAPE   C3918494   5.738   1.938   7.578 -0.1183  0.6760 -0.0161
  164SAPE   H9X18495   5.844   1.909   7.563 -0.5892 -0.6176 -0.8391
  164SAPE   H9Y18496   5.668   1.857   7.550  0.8693 -0.2528  0.1663
  164SAPE  C31018497   5.735   1.975   7.729  0.0650 -0.0190 -0.2986
  164SAPE  H10X18498   5.697   1.886   7.783 -1.0271  0.5875 -0.0517
  164SAPE  H10Y18499   5.670   2.064   7.743  0.9376  0.4292  0.9782
  164SAPE  C31118500   5.881   2.012   7.782 -0.7459  0.0459 -0.7216
  164SAPE  H11X18501   5.937   2.089   7.724  1.5641 -0.9309  0.1379
  164SAPE  H11Y18502   5.934   1.915   7.779  1.1961  0.9894  1.0505
  164SAPE  C31218503   5.881   2.052   7.933  0.9764  0.3763 -0.1893
  164SAPE  H12X18504   5.829   1.965   7.980 -0.9149  0.2717 -2.4196
  164SAPE  H12Y18505   5.814   2.139   7.950  1.5418  0.2824  2.7873
  164SAPE  C31318506   6.025   2.098   7.972  0.1617 -0.2987  0.1924
  164SAPE  H13X18507   6.066   2.172   7.900  0.7152 -2.1482 -1.4386
  164SAPE  H13Y18508   6.096   2.013   7.973  1.3736  0.6978  0.1347
  164SAPE  C31418509   6.033   2.157   8.114 -0.3012  0.2018  0.3532
  164SAPE  H14X18510   5.944   2.220   8.132 -0.4049 -0.5087  2.5767
  164SAPE  H14Y18511   6.126   2.218   8.120 -1.1507  1.4189  1.5250
  164SAPE  C31518512   6.038   2.064   8.229 -0.9220 -0.2482 -0.1999
  164SAPE  H15X18513   6.112   1.985   8.204  0.5521  1.9726 -3.0962
  164SAPE  H15Y18514   5.940   2.015   8.245 -2.1929  1.5388 -2.2944
  164SAPE  C31618515   6.072   2.120   8.361  0.9130  1.0024  0.0615
  164SAPE  H16X18516   5.984   2.174   8.401  1.2908  1.5220  0.2008
  164SAPE  H16Y18517   6.158   2.191   8.352  0.0068  2.6982  3.9467
  164SAPE  C31718518   6.110   2.014   8.462 -0.2695 -0.9349 -0.4084
  164SAPE  H17X18519   6.210   1.970   8.440  0.0839 -0.7719  0.8348
  164SAPE  H17Y18520   6.034   1.933   8.467 -1.1735 -0.1094 -0.6351
  164SAPE  C31818521   6.126   2.080   8.604  0.3860 -0.1559  0.0900
  164SAPE  H18X18522   6.028   2.090   8.654 -0.5861  3.0485 -2.2658
  164SAPE  H18Y18523   6.161   2.185   8.588  0.9502 -0.9032 -4.3028
  164SAPE  H18Z18524   6.198   2.031   8.673 -0.3524 -2.3912 -0.7036
  165SAPE     N18525   5.639   5.187   6.120 -0.1162 -0.6716  0.1760
  165SAPE   HN118526   5.742   5.180   6.135 -0.1427 -1.2105  0.1050
  165SAPE   HN218527   5.600   5.102   6.074 -1.5773 -0.0803  0.2753
  165SAPE   HN318528   5.612   5.264   6.055  1.5018  0.2545  0.5632
  165SAPE   C1218529   5.555   5.189   6.241 -0.4487 -0.4276  0.0315
  165SAPE  H12A18530   5.587   5.107   6.310 -3.3699 -0.8777  0.9457
  165SAPE  H12B18531   5.449   5.171   6.214 -0.7686  0.1730  0.8473
  165SAPE   C1118532   5.572   5.313   6.328  0.6443  0.0887  0.1978
  165SAPE  H11A18533   5.676   5.325   6.366 -0.0513  4.6716  0.9509
  165SAPE  H11B18534   5.512   5.293   6.419 -0.5747  0.4494 -0.5186
  165SAPE     P18535   5.627   5.540   6.212 -0.3185  0.1383  0.0725
  165SAPE   O1318536   5.713   5.486   6.107 -0.4544  0.5305  0.2458
  165SAPE   O1418537   5.559   5.663   6.174  0.3403 -0.4987  0.3456
  165SAPE   O1218538   5.517   5.428   6.259  0.0079  0.3881 -0.2666
  165SAPE   O1118539   5.706   5.564   6.343 -0.3541 -0.1900  0.1375
  165SAPE    C118540   5.640   5.617   6.460  1.1155 -0.1682 -0.0246
  165SAPE    HA18541   5.547   5.674   6.436  0.6361 -0.4564  1.0950
  165SAPE    HB18542   5.615   5.542   6.538 -0.9977 -0.0004 -0.4966
  165SAPE    C218543   5.734   5.723   6.531 -0.0872  0.4527 -1.2460
  165SAPE    HS18544   5.770   5.776   6.441  1.5034  1.4125 -0.0667
  165SAPE   O2118545   5.840   5.653   6.606  0.4808 -0.6467  0.1874
  165SAPE   C2118546   5.944   5.737   6.627 -0.0743 -0.2323 -0.4190
  165SAPE   O2218547   5.943   5.859   6.603  0.4394  0.3479 -1.2127
  165SAPE   C2218548   6.037   5.659   6.715 -0.2764 -0.2901 -0.0847
  165SAPE   H2R18549   6.004   5.553   6.720 -2.7704  0.5457  2.2904
  165SAPE   H2S18550   6.135   5.653   6.662  0.0301  1.9787  0.2039
  165SAPE    C318551   5.652   5.831   6.611  0.1596  0.2517  0.0137
  165SAPE    HX18552   5.572   5.883   6.553 -2.0048 -0.8593  1.9538
  165SAPE    HY18553   5.721   5.916   6.629 -0.9687  1.3830 -0.7922
  165SAPE   O3118554   5.591   5.781   6.740  0.1695 -0.1010 -0.4459
  165SAPE   C3118555   5.560   5.883   6.825  0.0217  0.1111  0.9814
  165SAPE   O3218556   5.572   6.001   6.801  0.0234 -0.1152  0.3116
  165SAPE   C3218557   5.492   5.838   6.949 -0.2046  0.0506  0.3969
  165SAPE   H2X18558   5.483   5.727   6.947  0.0837  0.0447 -2.4238
  165SAPE   H2Y18559   5.395   5.892   6.949 -2.1512 -3.2496  2.1028
  165SAPE   C2318560   6.048   5.725   6.854 -0.0934 -0.5949  0.3672
  165SAPE   H3R18561   6.083   5.830   6.841 -2.0044 -0.0770 -0.7780
  165SAPE   H3S18562   6.123   5.666   6.910  0.3812  0.2350  0.6195
  165SAPE   C2418563   5.913   5.734   6.935 -0.4921  0.1499  0.4690
  165SAPE   H4R18564   5.826   5.761   6.871  1.0878  0.5539 -1.5550
  165SAPE   H4S18565   5.915   5.814   7.012 -0.7609 -1.3739  2.1127
  165SAPE   C2518566   5.885   5.591   6.984 -0.2945  0.1073  0.2129
  165SAPE   H5R18567   5.866   5.516   6.906 -0.1267 -0.0268  0.3023
  165SAPE   C2618568   5.888   5.560   7.117 -0.2455 -0.1527  0.5066
  165SAPE   H6R18569   5.862   5.456   7.144 -0.1729  0.0189  1.2369
  165SAPE   C2718570   5.918   5.643   7.238  0.2029 -0.2072  0.2579
  165SAPE   H7R18571   5.840   5.635   7.317  0.8646 -0.0107  0.9455
  165SAPE   H7S18572   5.915   5.751   7.214  1.5837 -0.1431  0.3487
  165SAPE   C2818573   6.055   5.608   7.299  0.5791  0.0630 -0.2724
  165SAPE   H8R18574   6.142   5.631   7.236 -0.4152 -1.3728 -2.2056
  165SAPE   C2918575   6.073   5.537   7.415  0.3765 -0.2846  0.0425
  165SAPE   H9R18576   6.178   5.514   7.438  0.0119 -0.9043  1.1341
  165SAPE  C21018577   5.966   5.491   7.513 -0.2669  0.1252 -0.3701
  165SAPE  H10R18578   5.878   5.447   7.463 -0.0320 -0.7297 -0.0379
  165SAPE  H10S18579   5.917   5.582   7.553  2.0836  1.4780 -0.4408
  165SAPE  C21118580   6.019   5.408   7.625  0.1209  0.7573 -0.2291
  165SAPE  H11R18581   5.996   5.300   7.624  1.1786  0.5269 -1.3925
  165SAPE  C21218582   6.095   5.449   7.727  0.3367  0.0907  0.1335
  165SAPE  H12R18583   6.129   5.371   7.795 -2.8573 -1.2186  0.2957
  165SAPE  C21318584   6.147   5.588   7.750 -0.8486  0.5343 -0.1592
  165SAPE  H13R18585   6.065   5.662   7.748 -1.0796  0.2741 -0.4605
  165SAPE  H13S18586   6.209   5.620   7.665 -1.1213 -0.6328 -0.8096
  165SAPE  C21418587   6.237   5.598   7.873  0.0130  0.0370  0.2366
  165SAPE  H14R18588   6.341   5.613   7.841  0.0960 -0.0066  0.4856
  165SAPE  C21518589   6.199   5.606   8.001 -0.0531 -0.4434 -0.1283
  165SAPE  H15R18590   6.270   5.602   8.085  0.3278 -1.3483 -0.4846
  165SAPE  C21618591   6.054   5.589   8.040 -0.5267 -0.2841  0.4140
  165SAPE  H16R18592   6.047   5.515   8.122  1.6297 -1.8143 -0.7273
  165SAPE  H16S18593   5.988   5.550   7.959 -3.9538 -0.2157  3.0621
  165SAPE  C21718594   6.004   5.725   8.095  0.6680 -0.1027  0.7635
  165SAPE  H17R18595   5.983   5.795   8.012 -2.6954 -3.0167 -1.0031
  165SAPE  H17S18596   6.072   5.770   8.170  1.6208  1.2039 -0.8640
  165SAPE  C21818597   5.875   5.701   8.183 -0.1937  0.7697 -0.4663
  165SAPE  H18R18598   5.899   5.603   8.229 -1.4751  1.1373  1.0102
  165SAPE  H18S18599   5.786   5.686   8.118 -0.4747  0.6636 -0.0583
  165SAPE  C21918600   5.836   5.798   8.287 -0.0810  0.6166  0.5426
  165SAPE  H19R18601   5.824   5.899   8.242  0.4088  0.0523 -0.8792
  165SAPE  H19S18602   5.909   5.796   8.371 -0.3069  0.1116  0.7266
  165SAPE  C22018603   5.694   5.770   8.347 -0.2840  0.1979 -0.3001
  165SAPE  H20R18604   5.694   5.663   8.376 -2.5276 -0.0474 -1.1576
  165SAPE  H20S18605   5.616   5.776   8.269 -0.0800  1.8177 -0.4039
  165SAPE  H20T18606   5.666   5.842   8.427  0.7599  3.1455 -2.4691
  165SAPE   C3318607   5.566   5.869   7.080  0.3980  0.2719 -0.1818
  165SAPE   H3X18608   5.556   5.977   7.107  2.1846  0.7898 -1.4920
  165SAPE   H3Y18609   5.673   5.840   7.081  0.4076  0.2819  1.6423
  165SAPE   C3418610   5.505   5.788   7.183  0.2070 -0.2100 -0.1803
  165SAPE   H4X18611   5.530   5.681   7.168  2.7997  0.3294  0.1016
  165SAPE   H4Y18612   5.395   5.806   7.188 -0.2683 -3.0046 -0.1818
  165SAPE   C3518613   5.554   5.820   7.324 -0.2140 -1.0952 -0.6917
  165SAPE   H5X18614   5.544   5.929   7.342  0.4164 -1.0202 -0.8016
  165SAPE   H5Y18615   5.664   5.804   7.323  0.3817  2.4094  2.0051
  165SAPE   C3618616   5.485   5.736   7.426 -0.5045  0.0414 -0.1562
  165SAPE   H6X18617   5.487   5.632   7.389 -0.4512 -0.7855  2.1351
  165SAPE   H6Y18618   5.380   5.774   7.432 -0.5371 -0.1367  0.3945
  165SAPE   C3718619   5.574   5.735   7.559 -0.1050  0.3534  0.2453
  165SAPE   H7X18620   5.679   5.762   7.536 -0.2098 -1.3905 -2.5193
  165SAPE   H7Y18621   5.572   5.637   7.613  2.3199  0.0283 -0.1929
  165SAPE   C3818622   5.519   5.843   7.651  0.3778 -0.4512 -0.5497
  165SAPE   H8X18623   5.408   5.838   7.638  0.2753  0.9520 -0.3617
  165SAPE   H8Y18624   5.539   5.945   7.613 -1.4450  1.5437  3.4599
  165SAPE   C3918625   5.554   5.824   7.809  0.1831 -0.0871  0.4680
  165SAPE   H9X18626   5.661   5.850   7.821 -0.1158  2.1721 -1.3685
  165SAPE   H9Y18627   5.532   5.722   7.847 -0.3875 -0.8414 -1.8061
  165SAPE  C31018628   5.496   5.937   7.887  0.0631 -0.4537 -0.0606
  165SAPE  H10X18629   5.387   5.925   7.874 -0.1416  2.3046 -1.2329
  165SAPE  H10Y18630   5.517   6.036   7.842 -1.5936  0.5391  1.2695
  165SAPE  C31118631   5.530   5.942   8.038  0.6928  0.6293 -0.6759
  165SAPE  H11X18632   5.638   5.930   8.063  0.5252  1.7527  0.6799
  165SAPE  H11Y18633   5.477   5.864   8.097 -1.0707  2.9829  0.9412
  165SAPE  C31218634   5.483   6.076   8.100 -0.2508  0.1937  0.0461
  165SAPE  H12X18635   5.382   6.093   8.056  0.5096  0.6867 -1.5351
  165SAPE  H12Y18636   5.547   6.152   8.050  0.5289 -1.6105 -1.7938
  165SAPE  C31318637   5.481   6.100   8.251  0.3216  0.0643  0.0131
  165SAPE  H13X18638   5.456   6.207   8.269  1.1391 -0.0473  1.8503
  165SAPE  H13Y18639   5.585   6.085   8.284 -0.0476 -0.0458  1.1273
  165SAPE  C31418640   5.377   6.023   8.338  0.0297  0.2488  1.0219
  165SAPE  H14X18641   5.410   5.917   8.334 -0.6553  0.0484  0.6023
  165SAPE  H14Y18642   5.275   6.036   8.297 -0.0803  0.8064  1.4568
  165SAPE  C31518643   5.365   6.077   8.483 -0.0669  0.5307  0.8014
  165SAPE  H15X18644   5.354   6.187   8.472  1.4597  0.6773  0.6497
  165SAPE  H15Y18645   5.453   6.055   8.547  0.2144 -1.3468 -0.1986
  165SAPE  C31618646   5.238   6.026   8.553 -0.4648  0.0765 -0.2532
  165SAPE  H16X18647   5.242   5.919   8.583  0.1897  0.0762 -0.3335
  165SAPE  H16Y18648   5.145   6.039   8.495 -2.5436  1.0945  3.1535
  165SAPE  C31718649   5.219   6.085   8.694  0.0828  0.2266  1.9457
  165SAPE  H17X18650   5.233   6.195   8.682 -0.8267  0.2076  0.7229
  165SAPE  H17Y18651   5.298   6.044   8.761  2.3204 -1.5792 -1.6502
  165SAPE  C31818652   5.078   6.049   8.744 -0.5589 -0.3720  0.0276
  165SAPE  H18X18653   4.995   6.086   8.680 -0.2804 -1.9175 -1.2493
  165SAPE  H18Y18654   5.059   6.095   8.844 -3.1882 -0.0452 -0.5691
  165SAPE  H18Z18655   5.055   5.941   8.752  0.9966 -0.6420  0.8970
  166SAPE     N18656   5.924   2.342   5.803  0.6055  0.4268  0.3464
  166SAPE   HN118657   5.984   2.385   5.730  1.1593  0.1407  0.6367
  166SAPE   HN218658   5.915   2.412   5.880 -0.8429 -0.8326  1.3604
  166SAPE   HN318659   5.968   2.262   5.851  1.7429  0.9007  0.0978
  166SAPE   C1218660   5.787   2.322   5.748  0.2959  0.0122  0.1081
  166SAPE  H12A18661   5.801   2.224   5.697  3.1677  1.0094 -1.1328
  166SAPE  H12B18662   5.762   2.397   5.670 -2.1738 -0.4157  0.4562
  166SAPE   C1118663   5.693   2.315   5.869 -0.3316 -0.1060  0.3702
  166SAPE  H11A18664   5.736   2.241   5.940  1.0715  0.2271 -0.1262
  166SAPE  H11B18665   5.595   2.272   5.838  0.1429 -1.5601  0.8401
  166SAPE     P18666   5.565   2.485   6.021  0.0878 -0.0530  0.2620
  166SAPE   O1318667   5.596   2.611   6.098  0.2552 -0.4337 -0.2760
  166SAPE   O1418668   5.451   2.490   5.930 -0.0593 -0.2469  0.3711
  166SAPE   O1218669   5.690   2.440   5.939  0.0047 -0.6167 -0.1394
  166SAPE   O1118670   5.546   2.374   6.135 -0.4860  0.1340  0.4673
  166SAPE    C118671   5.410   2.336   6.169 -0.2134  0.4514 -0.2653
  166SAPE    HA18672   5.346   2.422   6.198  1.0748  0.8177  1.6105
  166SAPE    HB18673   5.381   2.267   6.087  2.3899 -1.3179  0.2626
  166SAPE    C218674   5.417   2.236   6.287 -0.4818 -0.0111  0.0605
  166SAPE    HS18675   5.317   2.189   6.295 -1.1473  1.2758 -0.4630
  166SAPE   O2118676   5.456   2.302   6.407  0.1908  0.1296 -0.6357
  166SAPE   C2118677   5.366   2.376   6.467  0.1132  0.0487  0.3224
  166SAPE   O2218678   5.245   2.380   6.439 -0.1930  0.5368  0.1402
  166SAPE   C2218679   5.423   2.449   6.588  0.1005  0.2317 -0.2051
  166SAPE   H2R18680   5.521   2.496   6.564  0.1827  0.8190  1.2305
  166SAPE   H2S18681   5.353   2.535   6.595 -0.2309  0.0188 -0.8500
  166SAPE    C318682   5.523   2.123   6.265 -0.3893  0.6543  0.3463
  166SAPE    HX18683   5.617   2.176   6.237  0.2435  0.8193  2.6579
  166SAPE    HY18684   5.493   2.063   6.177  1.9268  0.3259 -0.2545
  166SAPE   O3118685   5.557   2.049   6.384  0.1297 -0.0224  0.1237
  166SAPE   C3118686   5.469   1.966   6.432  0.4958 -0.4295  0.0698
  166SAPE   O3218687   5.383   1.909   6.369  0.0906  0.1516  0.1344
  166SAPE   C3218688   5.493   1.957   6.578 -0.3355 -0.2370  0.0019
  166SAPE   H2X18689   5.505   2.058   6.623 -2.2948 -0.1353  0.3664
  166SAPE   H2Y18690   5.580   1.889   6.589 -1.1241 -1.1297  0.8462
  166SAPE   C2318691   5.430   2.379   6.729 -0.1527 -0.3764  0.8742
  166SAPE   H3R18692   5.489   2.434   6.806 -0.5893  1.6440 -0.1885
  166SAPE   H3S18693   5.483   2.282   6.716 -1.6210 -1.1687  0.7974
  166SAPE   C2418694   5.289   2.353   6.797  0.1662  0.0569 -0.1251
  166SAPE   H4R18695   5.220   2.349   6.710  1.4657 -1.4148 -1.1158
  166SAPE   H4S18696   5.260   2.450   6.842 -1.0734 -0.0613 -0.6540
  166SAPE   C2518697   5.283   2.227   6.879 -0.3099 -0.4287 -1.4241
  166SAPE   H5R18698   5.245   2.144   6.818  0.9501 -1.9300 -0.1841
  166SAPE   C2618699   5.318   2.222   7.006  0.2488  0.0862  0.5364
  166SAPE   H6R18700   5.273   2.138   7.061 -0.1918 -0.4747 -0.6632
  166SAPE   C2718701   5.379   2.338   7.090 -0.3640 -0.0733  0.2823
  166SAPE   H7R18702   5.290   2.393   7.128 -1.7325 -1.6872 -0.4904
  166SAPE   H7S18703   5.430   2.416   7.030 -0.2879  0.5329  1.1333
  166SAPE   C2818704   5.471   2.278   7.198  0.5629 -0.3769 -0.3790
  166SAPE   H8R18705   5.559   2.230   7.152 -0.3059  0.2554 -2.7985
  166SAPE   C2918706   5.459   2.275   7.332  0.0361 -0.1822  0.6159
  166SAPE   H9R18707   5.538   2.243   7.401  0.5781 -1.0449 -0.4033
  166SAPE  C21018708   5.337   2.339   7.399 -0.3444  0.2933 -0.2613
  166SAPE  H10R18709   5.242   2.330   7.343 -0.6781  2.1071 -0.0174
  166SAPE  H10S18710   5.355   2.449   7.396 -1.2981  0.4118 -2.1281
  166SAPE  C21118711   5.293   2.303   7.543  1.0511 -0.7782  0.0741
  166SAPE  H11R18712   5.230   2.213   7.543 -0.2496  0.0793 -2.1867
  166SAPE  C21218713   5.337   2.355   7.660 -0.0916  0.5961 -0.6353
  166SAPE  H12R18714   5.277   2.322   7.747  0.9622 -4.1749 -1.6054
  166SAPE  C21318715   5.431   2.461   7.685  0.2813  0.6753  0.4630
  166SAPE  H13R18716   5.386   2.535   7.754 -0.1122  1.5755 -0.7399
  166SAPE  H13S18717   5.449   2.521   7.593 -0.7555 -2.3788 -1.8345
  166SAPE  C21418718   5.549   2.406   7.754 -0.3443  0.0429  0.0159
  166SAPE  H14R18719   5.610   2.330   7.703  1.1868  0.7218  0.8101
  166SAPE  C21518720   5.590   2.429   7.879  0.1747  0.2520 -0.4007
  166SAPE  H15R18721   5.674   2.376   7.925  0.3634  0.1779 -0.8300
  166SAPE  C21618722   5.535   2.524   7.983 -0.1312  0.4144 -0.0861
  166SAPE  H16R18723   5.463   2.594   7.936  0.3383  0.0044 -1.4436
  166SAPE  H16S18724   5.614   2.585   8.031  0.1084 -0.3889  0.5542
  166SAPE  C21718725   5.461   2.436   8.084 -0.1254  0.2456  0.0227
  166SAPE  H17R18726   5.532   2.357   8.115  0.6578  0.6743 -0.6587
  166SAPE  H17S18727   5.375   2.386   8.035  0.3444  1.0887 -1.7107
  166SAPE  C21818728   5.425   2.506   8.214  0.8792 -0.2291  0.3299
  166SAPE  H18R18729   5.359   2.594   8.199  2.4367  0.8390 -0.3859
  166SAPE  H18S18730   5.517   2.546   8.262  0.5183  2.5459 -1.1780
  166SAPE  C21918731   5.338   2.418   8.317 -0.3017 -0.5368  0.0649
  166SAPE  H19R18732   5.330   2.318   8.271 -0.7898 -0.4165 -0.1206
  166SAPE  H19S18733   5.229   2.443   8.317 -0.1194  0.3123  1.1806
  166SAPE  C22018734   5.387   2.419   8.464 -0.2782  0.0825 -0.2456
  166SAPE  H20R18735   5.323   2.352   8.526  0.1206 -0.3669 -0.3184
  166SAPE  H20S18736   5.358   2.516   8.508  0.7993  0.5495 -0.5550
  166SAPE  H20T18737   5.496   2.408   8.476 -0.0743  1.2644 -0.9765
  166SAPE   C3318738   5.372   1.882   6.644 -0.7454 -0.4195 -0.0498
  166SAPE   H3X18739   5.363   1.780   6.602 -1.7406 -0.3618  0.0175
  166SAPE   H3Y18740   5.286   1.939   6.603 -1.0495 -1.9878 -1.6100
  166SAPE   C3418741   5.366   1.887   6.800  0.4604  0.6704  0.7823
  166SAPE   H4X18742   5.268   1.871   6.849 -0.1381 -0.1268 -0.6623
  166SAPE   H4Y18743   5.397   1.990   6.829  1.3670  1.1802 -1.9240
  166SAPE   C3518744   5.481   1.800   6.848  0.6318  0.1856 -0.0670
  166SAPE   H5X18745   5.579   1.819   6.799  1.8169 -1.3079  1.6612
  166SAPE   H5Y18746   5.456   1.693   6.832 -2.0526  0.8091 -0.3129
  166SAPE   C3618747   5.503   1.821   7.001 -0.3588  0.1588 -0.0162
  166SAPE   H6X18748   5.532   1.928   7.012 -1.1892  0.3914 -0.0557
  166SAPE   H6Y18749   5.580   1.747   7.033 -0.9937  0.2440  1.7474
  166SAPE   C3718750   5.378   1.803   7.084  0.2524  0.1687  0.2090
  166SAPE   H7X18751   5.355   1.695   7.074  2.1240 -0.1465 -0.9672
  166SAPE   H7Y18752   5.288   1.861   7.051  0.4477 -0.2980 -1.1821
  166SAPE   C3818753   5.407   1.834   7.231 -0.0541  0.0029 -0.4843
  166SAPE   H8X18754   5.418   1.944   7.241 -1.3384  0.1261 -0.2958
  166SAPE   H8Y18755   5.506   1.791   7.260  0.6970  1.9808 -0.0649
  166SAPE   C3918756   5.310   1.788   7.340  0.1324 -0.3550  0.5627
  166SAPE   H9X18757   5.322   1.678   7.342 -0.3233 -0.3827  2.7824
  166SAPE   H9Y18758   5.200   1.806   7.335  0.1268 -0.4398  0.3668
  166SAPE  C31018759   5.361   1.842   7.482 -0.0492 -0.4436 -0.1129
  166SAPE  H10X18760   5.364   1.953   7.474  1.1715 -0.4003  0.7813
  166SAPE  H10Y18761   5.463   1.799   7.491  0.1582  0.5694  2.7248
  166SAPE  C31118762   5.272   1.793   7.599  0.1137 -0.8241 -0.3524
  166SAPE  H11X18763   5.266   1.684   7.579  0.0163 -0.8607 -0.1213
  166SAPE  H11Y18764   5.170   1.836   7.603 -0.5152 -2.4120  1.1546
  166SAPE  C31218765   5.347   1.806   7.732  0.8938 -0.2073 -0.5007
  166SAPE  H12X18766   5.455   1.784   7.718  0.9845 -2.9240  3.5810
  166SAPE  H12Y18767   5.299   1.727   7.794 -3.1709  1.5983 -1.2036
  166SAPE  C31318768   5.326   1.944   7.785  0.5551  1.2283 -0.3164
  166SAPE  H13X18769   5.222   1.978   7.765 -0.6664  0.6593  4.4456
  166SAPE  H13Y18770   5.387   2.012   7.722  1.4057 -0.3019 -1.1651
  166SAPE  C31418771   5.355   1.969   7.934  0.3633  0.4978  0.3242
  166SAPE  H14X18772   5.364   2.079   7.943 -0.9430  0.5489  1.1737
  166SAPE  H14Y18773   5.459   1.936   7.955  0.4904  0.3480 -0.5135
  166SAPE  C31518774   5.249   1.915   8.030 -0.2880 -0.3405  1.4705
  166SAPE  H15X18775   5.248   1.805   8.039  0.3443 -0.3362  1.6402
  166SAPE  H15Y18776   5.154   1.957   7.991 -0.7322  0.3337  3.2135
  166SAPE  C31618777   5.273   1.967   8.172  0.7892  0.7469 -0.4522
  166SAPE  H16X18778   5.299   2.075   8.176 -0.5228  1.0820 -0.5526
  166SAPE  H16Y18779   5.364   1.916   8.208 -0.3204  1.2227  3.2960
  166SAPE  C31718780   5.159   1.923   8.262 -0.0656  0.3597  0.3020
  166SAPE  H17X18781   5.140   1.814   8.258  3.9055 -0.3856 -1.0137
  166SAPE  H17Y18782   5.064   1.968   8.225 -0.4576 -1.0430 -0.4273
  166SAPE  C31818783   5.184   1.967   8.407  0.1553 -0.3599  0.7422
  166SAPE  H18X18784   5.095   1.939   8.467  0.2318 -1.3583  0.4036
  166SAPE  H18Y18785   5.206   2.076   8.407  0.4028 -0.4048  0.2197
  166SAPE  H18Z18786   5.275   1.917   8.447  0.5463  1.0324  1.6112
  167SAPE     N18787   6.693   0.625   5.974  0.2934  0.2918 -0.1119
  167SAPE   HN118788   6.767   0.697   5.974  0.5764  0.0580  2.5461
  167SAPE   HN218789   6.712   0.567   6.059  1.5047  2.3080  1.0342
  167SAPE   HN318790   6.711   0.567   5.889  0.7117 -0.9328  0.7871
  167SAPE   C1218791   6.554   0.683   5.963 -0.7929  0.0420 -0.0514
  167SAPE  H12A18792   6.484   0.598   5.949 -0.2943 -0.6256  1.3648
  167SAPE  H12B18793   6.548   0.742   5.870  0.0985 -0.8573 -0.6950
  167SAPE   C1118794   6.518   0.755   6.090 -0.5464 -0.3911  0.1309
  167SAPE  H11A18795   6.520   0.681   6.173  0.6594  1.1106  1.5009
  167SAPE  H11B18796   6.415   0.793   6.074 -0.7926 -0.9554  0.3766
  167SAPE     P18797   6.576   1.018   6.073  0.2535 -0.0445 -0.0956
  167SAPE   O1318798   6.699   1.101   6.069 -0.5378  0.2608  0.4090
  167SAPE   O1418799   6.492   1.009   5.952 -0.2168  0.4423 -0.0068
  167SAPE   O1218800   6.610   0.868   6.121  0.1517 -0.1881 -0.2892
  167SAPE   O1118801   6.498   1.069   6.192  0.3025 -0.4541  0.2075
  167SAPE    C118802   6.562   1.057   6.324  0.1209 -0.1714  0.5312
  167SAPE    HA18803   6.611   0.958   6.336 -1.9787 -1.5048 -1.3658
  167SAPE    HB18804   6.633   1.140   6.345  1.6747 -1.8495  1.9838
  167SAPE    C218805   6.452   1.071   6.435  0.5708  1.0074 -0.7018
  167SAPE    HS18806   6.399   1.169   6.429 -0.5283  0.8177  4.0505
  167SAPE   O2118807   6.510   1.054   6.567 -0.0534 -0.2718  0.2348
  167SAPE   C2118808   6.588   1.160   6.593  0.8012  0.4256 -0.6686
  167SAPE   O2218809   6.592   1.265   6.534 -0.5132  0.1135  0.2358
  167SAPE   C2218810   6.680   1.118   6.706  0.4553 -0.1871 -0.2964
  167SAPE   H2R18811   6.609   1.077   6.780  0.9859  0.8918  0.8232
  167SAPE   H2S18812   6.754   1.039   6.682 -0.3375 -1.3399  1.0070
  167SAPE    C318813   6.345   0.965   6.409 -0.6162 -0.3623  0.0511
  167SAPE    HX18814   6.383   0.861   6.400 -1.1402 -0.6655  1.2452
  167SAPE    HY18815   6.295   0.984   6.311 -1.5983 -2.4599  0.1258
  167SAPE   O3118816   6.245   0.962   6.513  0.1091  0.4522  0.2832
  167SAPE   C3118817   6.139   1.032   6.497  0.3735 -0.6065 -0.7721
  167SAPE   O3218818   6.122   1.113   6.409  0.5978 -0.0309  0.2278
  167SAPE   C3218819   6.046   1.014   6.620 -0.1605 -0.4167 -0.3132
  167SAPE   H2X18820   6.110   0.995   6.709 -0.1055 -1.6905 -0.6223
  167SAPE   H2Y18821   5.995   0.916   6.612 -0.0404 -0.6470  1.3996
  167SAPE   C2318822   6.749   1.257   6.750 -0.3491  0.0226 -0.5948
  167SAPE   H3R18823   6.670   1.334   6.755 -0.0181  0.2471  1.7664
  167SAPE   H3S18824   6.834   1.285   6.684  1.9989 -1.7750  1.5130
  167SAPE   C2418825   6.812   1.245   6.892  0.1203 -0.2333 -0.4317
  167SAPE   H4R18826   6.887   1.325   6.907  2.4054 -2.8772  3.1329
  167SAPE   H4S18827   6.869   1.150   6.901 -1.1414 -0.8433  1.4967
  167SAPE   C2518828   6.696   1.245   6.998  0.0347 -0.3824  0.9514
  167SAPE   H5R18829   6.609   1.184   6.970 -0.5845  1.1960 -0.6140
  167SAPE   C2618830   6.715   1.290   7.125 -0.0167 -0.1164 -0.0867
  167SAPE   H6R18831   6.630   1.286   7.195  0.2196  0.8258  0.2637
  167SAPE   C2718832   6.839   1.355   7.180  0.1219 -0.1244 -1.3102
  167SAPE   H7R18833   6.935   1.319   7.138  0.9494 -0.7943  1.0490
  167SAPE   H7S18834   6.843   1.306   7.280 -2.1468  0.1291 -1.0665
  167SAPE   C2818835   6.844   1.508   7.192  0.4528 -0.0555 -0.4262
  167SAPE   H8R18836   6.876   1.559   7.099 -0.9726  0.7695 -0.4759
  167SAPE   C2918837   6.818   1.586   7.297  0.0203  0.2980 -1.1051
  167SAPE   H9R18838   6.824   1.695   7.281  0.9643  0.5080  0.5099
  167SAPE  C21018839   6.783   1.533   7.438 -0.5148 -0.2196  0.7116
  167SAPE  H10R18840   6.840   1.590   7.514 -0.0182  1.6647 -1.0042
  167SAPE  H10S18841   6.811   1.427   7.455 -0.9584 -0.7129 -1.3915
  167SAPE  C21118842   6.637   1.541   7.460  0.4797 -0.1029  0.1944
  167SAPE  H11R18843   6.574   1.569   7.374 -1.7070  0.1132  1.8158
  167SAPE  C21218844   6.576   1.534   7.585 -0.5068 -0.0310  0.0138
  167SAPE  H12R18845   6.466   1.530   7.578 -0.4815  0.1436 -0.5102
  167SAPE  C21318846   6.650   1.516   7.719  0.5963  0.1754 -0.0509
  167SAPE  H13R18847   6.609   1.587   7.794 -1.5255 -0.8490 -0.2055
  167SAPE  H13S18848   6.758   1.543   7.714  0.9378 -0.8118  1.5050
  167SAPE  C21418849   6.630   1.375   7.776  0.8151 -0.4709  0.3583
  167SAPE  H14R18850   6.556   1.313   7.723 -0.8574  0.1544  1.9287
  167SAPE  C21518851   6.688   1.335   7.884  0.1305  0.5238 -0.8286
  167SAPE  H15R18852   6.661   1.231   7.908 -1.3879  0.7894 -1.3194
  167SAPE  C21618853   6.794   1.386   7.974 -0.0809  0.3981  0.1259
  167SAPE  H16R18854   6.849   1.462   7.915 -0.7992  0.4636 -0.4549
  167SAPE  H16S18855   6.866   1.303   7.993 -0.3419  0.1454  0.0179
  167SAPE  C21718856   6.745   1.459   8.096  0.5765  0.8721  0.0343
  167SAPE  H17R18857   6.663   1.531   8.074 -0.4809 -0.2891  0.1077
  167SAPE  H17S18858   6.832   1.511   8.140  1.7906 -2.1927  1.3878
  167SAPE  C21818859   6.674   1.372   8.205  0.0383  0.5635  0.3792
  167SAPE  H18R18860   6.582   1.323   8.167 -0.4991  1.9317 -0.1147
  167SAPE  H18S18861   6.638   1.451   8.274  1.0515  1.2731  0.1110
  167SAPE  C21918862   6.770   1.275   8.276 -0.0293  0.2956 -0.4233
  167SAPE  H19R18863   6.825   1.224   8.193 -0.2768  0.1536 -0.5028
  167SAPE  H19S18864   6.706   1.201   8.329  0.9816  0.9897  1.7779
  167SAPE  C22018865   6.868   1.346   8.365  0.0997 -0.0450  0.0441
  167SAPE  H20R18866   6.812   1.426   8.419  0.5027 -0.9039  1.7686
  167SAPE  H20S18867   6.951   1.400   8.316 -0.4762 -0.3634 -1.3145
  167SAPE  H20T18868   6.914   1.274   8.436  0.4025 -0.4015 -0.5149
  167SAPE   C3318869   5.943   1.120   6.649 -0.7692  0.3422 -0.2838
  167SAPE   H3X18870   5.867   1.123   6.568 -1.0240  3.8230 -0.0075
  167SAPE   H3Y18871   5.987   1.221   6.664  1.2503 -0.3331 -1.4185
  167SAPE   C3418872   5.859   1.105   6.779  0.1809 -0.1199 -0.6246
  167SAPE   H4X18873   5.783   1.023   6.775 -1.1212  1.1456 -2.6187
  167SAPE   H4Y18874   5.800   1.199   6.787  1.5334  0.9067 -2.3992
  167SAPE   C3518875   5.949   1.091   6.900  0.8357 -0.3189  0.7634
  167SAPE   H5X18876   6.016   1.180   6.898 -0.2506  0.5258  1.5991
  167SAPE   H5Y18877   6.009   0.998   6.889  1.3189  0.0997 -0.1609
  167SAPE   C3618878   5.871   1.095   7.034  0.4383  0.1129 -0.0393
  167SAPE   H6X18879   5.805   1.007   7.042 -0.1584  0.5177 -0.4430
  167SAPE   H6Y18880   5.802   1.182   7.020  0.3086  0.1151  0.5737
  167SAPE   C3718881   5.958   1.116   7.155 -1.5546  0.0939  0.2654
  167SAPE   H7X18882   6.035   1.194   7.136 -1.2276 -0.0524  0.9438
  167SAPE   H7Y18883   6.023   1.027   7.170 -0.9232  0.1298 -2.1423
  167SAPE   C3818884   5.871   1.123   7.285  0.6751  0.4029 -0.2944
  167SAPE   H8X18885   5.793   1.045   7.281 -0.3534  1.4814 -2.3524
  167SAPE   H8Y18886   5.816   1.219   7.293 -1.7508 -1.1557  2.5909
  167SAPE   C3918887   5.960   1.115   7.410 -0.0999  0.1655  0.1262
  167SAPE   H9X18888   6.056   1.163   7.384  0.2055 -1.9335 -2.9019
  167SAPE   H9Y18889   5.981   1.006   7.420  2.6066  0.7985  1.7678
  167SAPE  C31018890   5.896   1.171   7.537 -0.5377  0.3915  0.2126
  167SAPE  H10X18891   5.798   1.121   7.549 -0.1976 -1.0669 -2.7400
  167SAPE  H10Y18892   5.869   1.278   7.522 -1.9134 -0.0229 -0.3041
  167SAPE  C31118893   5.997   1.164   7.659 -0.4899  0.2011  0.6659
  167SAPE  H11X18894   6.087   1.212   7.615 -0.6394 -0.9970 -0.9951
  167SAPE  H11Y18895   6.015   1.056   7.674  2.3122  0.6752  1.0045
  167SAPE  C31218896   5.963   1.226   7.793  0.4156  0.2192 -0.5274
  167SAPE  H12X18897   5.876   1.182   7.846 -0.1743  1.5789 -0.3333
  167SAPE  H12Y18898   5.913   1.324   7.779 -0.7228 -0.5338 -1.8580
  167SAPE  C31318899   6.077   1.251   7.897  0.2971 -0.2654  1.0093
  167SAPE  H13X18900   6.167   1.295   7.849 -2.0685  0.3173 -3.0580
  167SAPE  H13Y18901   6.106   1.154   7.943  0.2999 -0.9604 -0.4352
  167SAPE  C31418902   6.020   1.329   8.013  0.1121 -0.0580  0.1174
  167SAPE  H14X18903   5.963   1.260   8.080  0.2656  0.0100  0.3162
  167SAPE  H14Y18904   5.937   1.399   7.990 -1.2254 -2.0230 -1.2333
  167SAPE  C31518905   6.132   1.393   8.095  0.2444 -0.1987  0.1077
  167SAPE  H15X18906   6.079   1.466   8.160  0.9649  0.7003 -0.2980
  167SAPE  H15Y18907   6.174   1.468   8.025  0.0033 -0.7550 -0.6456
  167SAPE  C31618908   6.228   1.298   8.174  0.2878  0.7931 -0.4136
  167SAPE  H16X18909   6.305   1.262   8.102  0.8200  0.0225  0.5262
  167SAPE  H16Y18910   6.158   1.217   8.205 -0.1573  1.0957 -0.6206
  167SAPE  C31718911   6.284   1.340   8.300  0.4647 -0.1948 -0.1509
  167SAPE  H17X18912   6.196   1.375   8.359  0.1701  0.7947 -1.1622
  167SAPE  H17Y18913   6.343   1.433   8.290 -1.0873  0.5718 -2.4592
  167SAPE  C31818914   6.368   1.245   8.381  0.2773 -0.6134  0.0080
  167SAPE  H18X18915   6.399   1.294   8.475 -3.3733 -0.3004  1.1380
  167SAPE  H18Y18916   6.457   1.214   8.322  0.8902 -0.5801  0.9221
  167SAPE  H18Z18917   6.305   1.158   8.410  1.8117 -1.7726 -0.0444
  168SAPE     N18918   2.140   3.426   6.238  0.2614 -0.0369 -0.4626
  168SAPE   HN118919   2.132   3.530   6.240 -1.9005 -0.2071  0.1330
  168SAPE   HN218920   2.138   3.394   6.139  0.9830 -0.0345 -0.4839
  168SAPE   HN318921   2.065   3.376   6.289 -0.5853  1.9288  0.2827
  168SAPE   C1218922   2.263   3.391   6.303  0.8967 -0.1969 -0.6676
  168SAPE  H12A18923   2.350   3.425   6.242  0.9434 -0.1789 -0.5902
  168SAPE  H12B18924   2.284   3.283   6.314  0.7855 -0.3195 -1.5936
  168SAPE   C1118925   2.256   3.470   6.435 -0.6358 -0.3174 -0.1706
  168SAPE  H11A18926   2.345   3.463   6.501 -3.9316  0.1366  4.6206
  168SAPE  H11B18927   2.178   3.415   6.493 -0.1302  0.6621  1.4569
  168SAPE     P18928   2.136   3.687   6.531  0.1929 -0.0146 -0.3213
  168SAPE   O1318929   2.152   3.829   6.517  0.0778 -0.1911  0.8283
  168SAPE   O1418930   1.999   3.631   6.530 -0.4484  0.4086  0.0157
  168SAPE   O1218931   2.220   3.613   6.424  0.4760 -0.3143 -0.3452
  168SAPE   O1118932   2.199   3.647   6.663 -0.3419  0.0092  0.2112
  168SAPE    C118933   2.336   3.693   6.690 -0.3378  0.3031  0.0257
  168SAPE    HA18934   2.402   3.613   6.650 -0.3724 -0.6916  1.8781
  168SAPE    HB18935   2.368   3.785   6.638  1.7430  0.1067  0.9255
  168SAPE    C218936   2.369   3.700   6.840 -0.2359 -0.3419  0.4065
  168SAPE    HS18937   2.478   3.719   6.851 -0.3377 -0.0457  0.9241
  168SAPE   O2118938   2.314   3.586   6.918 -0.4137 -0.3660  0.3143
  168SAPE   C2118939   2.389   3.478   6.902  0.0583  0.1267  0.0065
  168SAPE   O2218940   2.486   3.473   6.832 -0.2787  0.5136  0.5832
  168SAPE   C2218941   2.346   3.367   6.993 -0.2383  0.1892 -0.7305
  168SAPE   H2R18942   2.400   3.383   7.089 -3.4153  1.8884  0.8565
  168SAPE   H2S18943   2.241   3.389   7.022 -0.2932 -0.9942  0.0101
  168SAPE    C318944   2.295   3.830   6.884 -0.3806  0.1813 -0.3156
  168SAPE    HX18945   2.192   3.842   6.845 -0.0632 -2.1122 -1.9786
  168SAPE    HY18946   2.357   3.914   6.845  0.9600 -0.7745 -0.2854
  168SAPE   O3118947   2.295   3.843   7.028 -0.0411  0.3178  0.2879
  168SAPE   C3118948   2.197   3.772   7.084  0.3668  0.0140 -0.0419
  168SAPE   O3218949   2.100   3.718   7.032 -0.7065 -0.3951 -0.0869
  168SAPE   C3218950   2.223   3.765   7.235  0.3561 -0.1567  0.0513
  168SAPE   H2X18951   2.129   3.798   7.285  0.4882  1.1469 -0.5371
  168SAPE   H2Y18952   2.299   3.841   7.263 -0.5776  1.4118 -1.5890
  168SAPE   C2318953   2.371   3.221   6.946  0.1553  0.3305  0.2263
  168SAPE   H3R18954   2.480   3.211   6.929  0.1343 -0.2544  0.4069
  168SAPE   H3S18955   2.322   3.192   6.851 -0.8847 -0.5052  0.9902
  168SAPE   C2418956   2.317   3.116   7.053 -0.7103  0.4114  0.2514
  168SAPE   H4R18957   2.362   3.136   7.152 -1.5996 -0.4711  0.8446
  168SAPE   H4S18958   2.364   3.020   7.021 -0.5629  0.6103 -0.1314
  168SAPE   C2518959   2.166   3.109   7.051  0.5162 -0.0118 -0.2891
  168SAPE   H5R18960   2.120   3.088   6.953 -1.3376 -0.1868  0.5914
  168SAPE   C2618961   2.072   3.121   7.154  0.4276  0.2939 -0.6441
  168SAPE   H6R18962   1.969   3.105   7.119  1.1749 -1.0589 -2.3549
  168SAPE   C2718963   2.090   3.152   7.302 -0.3571 -0.2792  0.4179
  168SAPE   H7R18964   2.035   3.247   7.320  1.4753  0.4885  2.0635
  168SAPE   H7S18965   2.190   3.195   7.320 -1.4162  1.5153  2.2146
  168SAPE   C2818966   2.060   3.035   7.394 -0.0573  0.2608 -0.9599
  168SAPE   H8R18967   2.140   2.964   7.369  1.4106  1.3089  0.6585
  168SAPE   C2918968   1.968   3.029   7.491 -0.3977 -0.0172  0.1212
  168SAPE   H9R18969   1.960   2.936   7.549 -2.7933 -0.1139 -0.3109
  168SAPE  C21018970   1.861   3.135   7.513 -0.9335 -0.2137 -0.2195
  168SAPE  H10R18971   1.873   3.227   7.451  2.5408  0.2887  1.0833
  168SAPE  H10S18972   1.867   3.184   7.613 -1.7312  0.1078 -0.3252
  168SAPE  C21118973   1.723   3.076   7.491 -0.7766 -0.2584 -0.4616
  168SAPE  H11R18974   1.685   3.074   7.388 -0.6608  1.1931 -0.5445
  168SAPE  C21218975   1.638   3.027   7.584 -0.4008  0.8474  0.3088
  168SAPE  H12R18976   1.538   2.992   7.557 -0.4772  0.2983  1.2932
  168SAPE  C21318977   1.668   3.017   7.733 -0.2951 -0.2641  0.4234
  168SAPE  H13R18978   1.776   3.005   7.758 -0.5516 -1.3552  1.0181
  168SAPE  H13S18979   1.611   2.928   7.767 -2.9666  0.4305 -2.0590
  168SAPE  C21418980   1.616   3.138   7.807  0.7187 -0.6125  0.0864
  168SAPE  H14R18981   1.614   3.234   7.752  0.5726 -0.2114  0.7862
  168SAPE  C21518982   1.584   3.137   7.940 -1.0629  0.4338  0.6678
  168SAPE  H15R18983   1.521   3.221   7.975 -2.3358 -0.5344  0.7209
  168SAPE  C21618984   1.597   3.026   8.045  0.1626 -0.2572 -0.0960
  168SAPE  H16R18985   1.674   3.072   8.110  1.1424 -1.6647 -0.2331
  168SAPE  H16S18986   1.645   2.939   7.996 -0.0432  1.2663 -3.1362
  168SAPE  C21718987   1.478   2.975   8.134 -0.2588 -0.1128 -0.7345
  168SAPE  H17R18988   1.399   2.931   8.069 -1.5903  1.6182 -0.3159
  168SAPE  H17S18989   1.435   3.053   8.201  0.7432 -0.7428  0.6808
  168SAPE  C21818990   1.529   2.857   8.226  0.1674  0.3610  0.6772
  168SAPE  H18R18991   1.606   2.890   8.299  1.4561 -0.7518 -0.1579
  168SAPE  H18S18992   1.580   2.776   8.170 -2.3962  0.2571 -1.5870
  168SAPE  C21918993   1.408   2.792   8.293 -0.6430  0.0211 -0.5704
  168SAPE  H19R18994   1.336   2.742   8.225 -1.3124 -2.4159  1.8636
  168SAPE  H19S18995   1.354   2.875   8.343 -2.3695 -0.5426 -1.4774
  168SAPE  C22018996   1.445   2.683   8.395  0.6349 -0.2638 -0.0642
  168SAPE  H20R18997   1.474   2.596   8.332  0.4976 -1.1176  1.0247
  168SAPE  H20S18998   1.350   2.656   8.446 -0.2227  2.5819 -0.0596
  168SAPE  H20T18999   1.527   2.711   8.464  2.0767  0.6029 -2.0915
  168SAPE   C3319000   2.248   3.625   7.276  0.0169  0.1201  0.5451
  168SAPE   H3X19001   2.339   3.577   7.234  1.6708  2.0301  1.8492
  168SAPE   H3Y19002   2.171   3.553   7.240  0.0476  0.0340  0.6513
  168SAPE   C3419003   2.239   3.607   7.429  0.1962  0.2324  0.0356
  168SAPE   H4X19004   2.158   3.663   7.479 -1.4987 -0.2741 -2.0926
  168SAPE   H4Y19005   2.335   3.648   7.468  1.8936 -0.3748 -3.3042
  168SAPE   C3519006   2.219   3.459   7.457  0.4650  0.5079  0.8287
  168SAPE   H5X19007   2.301   3.405   7.406 -2.0310 -0.6357 -2.1691
  168SAPE   H5Y19008   2.123   3.437   7.405  1.4800 -1.4422 -0.2514
  168SAPE   C3619009   2.214   3.416   7.606  0.4036 -0.8102 -0.3571
  168SAPE   H6X19010   2.296   3.452   7.672  0.7595 -2.1038 -0.0940
  168SAPE   H6Y19011   2.208   3.306   7.611 -1.3655 -0.6882  0.5843
  168SAPE   C3719012   2.091   3.461   7.680  0.0516  0.0107 -0.5639
  168SAPE   H7X19013   2.007   3.435   7.612 -0.1792 -1.3386  0.2054
  168SAPE   H7Y19014   2.090   3.572   7.684  0.5051  0.0648 -1.8345
  168SAPE   C3819015   2.080   3.392   7.817 -0.5811  0.8466 -0.0017
  168SAPE   H8X19016   2.169   3.414   7.880 -1.0257  0.1476  0.8669
  168SAPE   H8Y19017   2.077   3.281   7.806  1.1625  0.5870  1.8235
  168SAPE   C3919018   1.949   3.441   7.888  0.0439  0.1681  1.0892
  168SAPE   H9X19019   1.860   3.426   7.825 -0.1451 -1.3389  1.7021
  168SAPE   H9Y19020   1.961   3.552   7.897 -1.3675  0.5722 -1.4961
  168SAPE  C31019021   1.933   3.380   8.026  0.2764  0.6552 -0.3156
  168SAPE  H10X19022   2.028   3.401   8.080 -1.2355  0.6963  2.4662
  168SAPE  H10Y19023   1.932   3.269   8.017  2.4576  0.6494 -0.8769
  168SAPE  C31119024   1.807   3.420   8.108  0.6403  0.6246 -0.7910
  168SAPE  H11X19025   1.725   3.435   8.035  0.0171 -0.2803 -0.2936
  168SAPE  H11Y19026   1.829   3.523   8.143  1.1675  0.4368 -0.5548
  168SAPE  C31219027   1.783   3.327   8.226  0.8165 -0.1638  0.3959
  168SAPE  H12X19028   1.862   3.346   8.301  1.5383  0.1153 -0.4375
  168SAPE  H12Y19029   1.779   3.218   8.204  0.3304 -0.7431  3.1605
  168SAPE  C31319030   1.647   3.353   8.292 -0.2837 -0.1239 -0.3890
  168SAPE  H13X19031   1.572   3.329   8.213 -0.6998 -2.3830  0.6427
  168SAPE  H13Y19032   1.640   3.459   8.324 -2.2044 -0.2156 -0.4663
  168SAPE  C31419033   1.642   3.282   8.430 -0.6108 -0.0085  0.0970
  168SAPE  H14X19034   1.722   3.322   8.496  0.5353 -1.0521 -0.6487
  168SAPE  H14Y19035   1.654   3.172   8.421 -3.6212 -0.4231  0.3878
  168SAPE  C31519036   1.512   3.299   8.499 -0.3796 -0.2407 -0.1134
  168SAPE  H15X19037   1.426   3.292   8.429 -0.4314  0.9772 -0.1867
  168SAPE  H15Y19038   1.503   3.403   8.538 -0.5834  1.4666 -4.4853
  168SAPE  C31619039   1.501   3.188   8.611  0.0978  0.5050 -0.4256
  168SAPE  H16X19040   1.431   3.215   8.693  1.0796 -0.1449  0.6384
  168SAPE  H16Y19041   1.601   3.185   8.659  0.2701 -1.3988 -0.8547
  168SAPE  C31719042   1.452   3.054   8.561 -0.9980 -0.3461 -0.4098
  168SAPE  H17X19043   1.531   3.017   8.493 -0.7044  1.1481 -0.9139
  168SAPE  H17Y19044   1.361   3.079   8.503 -1.2299 -1.2634 -0.4312
  168SAPE  C31819045   1.407   2.945   8.668 -0.0674  0.6205 -0.0705
  168SAPE  H18X19046   1.453   2.955   8.769  0.0184 -4.2326  0.4574
  168SAPE  H18Y19047   1.405   2.838   8.641  1.6291  0.3321  0.9028
  168SAPE  H18Z19048   1.305   2.971   8.704  0.3636  0.8553  1.0039
  169SAPE     N19049   6.689   5.662   6.097  0.0299  0.4151 -0.2979
  169SAPE   HN119050   6.617   5.600   6.054  1.3527  0.1044 -2.1389
  169SAPE   HN219051   6.636   5.719   6.167  0.9399  0.8409  0.0426
  169SAPE   HN319052   6.726   5.726   6.024 -0.1951  0.3053 -0.5098
  169SAPE   C1219053   6.789   5.583   6.181 -0.0740  0.3677  0.0226
  169SAPE  H12A19054   6.875   5.648   6.210  2.1352 -1.5537 -2.0382
  169SAPE  H12B19055   6.823   5.495   6.123 -1.0581 -0.7521  1.1011
  169SAPE   C1119056   6.701   5.532   6.296 -0.1629  0.3895 -1.6613
  169SAPE  H11A19057   6.655   5.607   6.364 -1.7904 -0.4511 -1.7949
  169SAPE  H11B19058   6.764   5.485   6.375 -0.5505  0.6310 -1.2020
  169SAPE     P19059   6.625   5.275   6.251  0.3216 -0.1148 -0.1960
  169SAPE   O1319060   6.493   5.215   6.228 -0.3369 -0.5412 -0.4172
  169SAPE   O1419061   6.730   5.223   6.158 -0.9533  0.5279 -0.1782
  169SAPE   O1219062   6.605   5.437   6.245 -0.2611 -0.3089 -0.1004
  169SAPE   O1119063   6.669   5.250   6.401  0.4058 -0.4477  0.3955
  169SAPE    C119064   6.609   5.308   6.516  0.5055  0.3892  0.1511
  169SAPE    HA19065   6.690   5.368   6.561 -0.2775  1.6058 -0.0413
  169SAPE    HB19066   6.526   5.376   6.488 -0.4486 -0.0100  1.9135
  169SAPE    C219067   6.556   5.205   6.621 -1.0898 -0.7238  0.0937
  169SAPE    HS19068   6.515   5.261   6.707  0.3666 -0.0452  0.3551
  169SAPE   O2119069   6.662   5.118   6.656 -0.0664  0.1081 -0.0524
  169SAPE   C2119070   6.735   5.166   6.748 -0.9359 -0.2073  0.0169
  169SAPE   O2219071   6.734   5.282   6.792 -0.3253  0.2614 -0.1093
  169SAPE   C2219072   6.815   5.052   6.812 -0.1948  0.7590  0.5149
  169SAPE   H2R19073   6.785   4.959   6.758 -1.3376  1.3888  0.0372
  169SAPE   H2S19074   6.918   5.070   6.776 -0.8789  2.7442 -0.5148
  169SAPE    C319075   6.435   5.124   6.566  0.0942  0.2229  0.6344
  169SAPE    HX19076   6.462   5.058   6.482 -3.4019 -1.6109  0.8592
  169SAPE    HY19077   6.379   5.211   6.524 -1.5699  0.1206  2.5250
  169SAPE   O3119078   6.351   5.071   6.665 -0.2920  0.1271  0.4177
  169SAPE   C3119079   6.372   4.943   6.701 -0.5837 -0.8748 -0.4539
  169SAPE   O3219080   6.466   4.876   6.662  0.3509 -0.6999 -0.3813
  169SAPE   C3219081   6.281   4.897   6.810  0.4888 -0.4103  0.2655
  169SAPE   H2X19082   6.217   4.819   6.763  0.6664 -0.2164 -0.2997
  169SAPE   H2Y19083   6.217   4.974   6.857  0.7724 -0.2526  0.3939
  169SAPE   C2319084   6.817   5.044   6.964  0.3370  0.1303  1.0013
  169SAPE   H3R19085   6.797   5.145   7.005 -1.7572  0.7665 -1.4644
  169SAPE   H3S19086   6.917   5.001   6.988  0.7634  0.9305  0.6991
  169SAPE   C2419087   6.708   4.953   7.023 -0.0560  0.4969 -0.3047
  169SAPE   H4R19088   6.616   5.010   6.997 -0.4920 -0.6896 -1.3909
  169SAPE   H4S19089   6.729   4.962   7.132  0.2446 -2.1635 -0.1131
  169SAPE   C2519090   6.698   4.811   6.970  0.0587  0.4247  0.1449
  169SAPE   H5R19091   6.655   4.804   6.869 -2.6543  1.7838  1.1690
  169SAPE   C2619092   6.723   4.696   7.042 -0.3014 -0.2408 -0.0862
  169SAPE   H6R19093   6.720   4.598   6.994  0.7055 -0.4913  0.3432
  169SAPE   C2719094   6.771   4.693   7.186  0.1462 -0.4856  0.4827
  169SAPE   H7R19095   6.684   4.697   7.256 -1.9840  2.9311 -2.2065
  169SAPE   H7S19096   6.829   4.786   7.205 -1.1254  0.2895  0.6687
  169SAPE   C2819097   6.861   4.573   7.208  0.0264 -0.1391  0.4789
  169SAPE   H8R19098   6.913   4.536   7.119  0.6943  0.9738  0.4062
  169SAPE   C2919099   6.892   4.519   7.326  0.2996  0.1173  0.2944
  169SAPE   H9R19100   6.970   4.442   7.325  0.1627 -0.0146 -1.2060
  169SAPE  C21019101   6.835   4.554   7.464 -0.0253 -0.3999 -0.4927
  169SAPE  H10R19102   6.726   4.534   7.470 -0.0711 -0.4320 -1.3806
  169SAPE  H10S19103   6.847   4.664   7.468  0.6433 -0.4738 -0.3869
  169SAPE  C21119104   6.916   4.490   7.574 -0.6343  0.2532  0.3871
  169SAPE  H11R19105   6.980   4.405   7.548  0.5610  1.3680 -0.4099
  169SAPE  C21219106   6.905   4.525   7.704  0.3546 -0.8007  0.2164
  169SAPE  H12R19107   6.970   4.475   7.777  1.9868  0.3074 -0.4488
  169SAPE  C21319108   6.820   4.636   7.776  0.0537  0.8818  0.1703
  169SAPE  H13R19109   6.832   4.732   7.720  0.5382 -0.2230 -1.6576
  169SAPE  H13S19110   6.883   4.662   7.863 -0.1433  0.8064  0.3342
  169SAPE  C21419111   6.679   4.611   7.802  0.1485  0.7364  0.0760
  169SAPE  H14R19112   6.610   4.661   7.732  1.2669  0.9259 -0.9088
  169SAPE  C21519113   6.637   4.527   7.903  0.0025 -0.1635  0.8869
  169SAPE  H15R19114   6.532   4.494   7.902  0.0463 -0.3372  1.9866
  169SAPE  C21619115   6.722   4.455   8.008 -0.7347 -0.6017  0.8100
  169SAPE  H16R19116   6.832   4.474   8.006 -0.9213  0.3401 -1.5314
  169SAPE  H16S19117   6.705   4.346   7.990  1.5586 -0.7877 -0.4496
  169SAPE  C21719118   6.657   4.471   8.143 -0.1402  0.3301  0.2382
  169SAPE  H17R19119   6.548   4.463   8.126 -0.4325  2.3265  1.0724
  169SAPE  H17S19120   6.678   4.574   8.180 -0.5283  0.5838 -0.2468
  169SAPE  C21819121   6.685   4.364   8.257  0.3846 -0.6087  0.3528
  169SAPE  H18R19122   6.695   4.262   8.214  0.7718 -1.0046  1.3583
  169SAPE  H18S19123   6.603   4.373   8.332  1.1771  0.6779  1.0868
  169SAPE  C21919124   6.822   4.401   8.326  0.0160  0.0263 -0.0990
  169SAPE  H19R19125   6.898   4.422   8.247 -0.8577  1.2600 -0.6305
  169SAPE  H19S19126   6.850   4.315   8.390 -1.9945 -0.8466 -0.3533
  169SAPE  C22019127   6.822   4.517   8.420  1.3365 -0.0205 -0.1070
  169SAPE  H20R19128   6.926   4.548   8.444  2.0301 -0.5695 -2.2968
  169SAPE  H20S19129   6.767   4.482   8.509 -0.0634  0.5410 -0.7478
  169SAPE  H20T19130   6.773   4.610   8.384 -0.6467 -1.9453 -2.4783
  169SAPE   C3319131   6.362   4.831   6.921 -0.4746  0.8060 -0.7365
  169SAPE   H3X19132   6.437   4.906   6.955  1.0357 -0.5356 -1.0003
  169SAPE   H3Y19133   6.420   4.742   6.887 -0.9602 -0.3131  1.3233
  169SAPE   C3419134   6.278   4.779   7.030 -0.0857 -0.2485 -0.3975
  169SAPE   H4X19135   6.286   4.669   7.020  0.1870 -0.1016 -1.8992
  169SAPE   H4Y19136   6.169   4.800   7.024 -0.3235 -1.3644 -0.1101
  169SAPE   C3519137   6.320   4.823   7.169  0.0149 -0.5334  0.5161
  169SAPE   H5X19138   6.277   4.925   7.182  0.7581  0.0871 -1.7176
  169SAPE   H5Y19139   6.431   4.825   7.183 -0.3182 -2.1657  4.0942
  169SAPE   C3619140   6.272   4.729   7.285 -0.4508 -0.3046 -0.6607
  169SAPE   H6X19141   6.272   4.626   7.244  1.3133 -0.4741 -0.2753
  169SAPE   H6Y19142   6.166   4.757   7.304 -0.4815 -0.9706  0.1798
  169SAPE   C3719143   6.347   4.736   7.414  0.4152 -0.5635 -0.2776
  169SAPE   H7X19144   6.374   4.841   7.441 -1.5852 -0.3006  0.7844
  169SAPE   H7Y19145   6.446   4.689   7.397  1.5647  1.0051  1.8588
  169SAPE   C3819146   6.265   4.695   7.540 -0.4886  0.3145 -0.2741
  169SAPE   H8X19147   6.218   4.597   7.519  0.1628 -0.9662  3.9684
  169SAPE   H8Y19148   6.177   4.761   7.554  0.2338  1.4472 -0.9819
  169SAPE   C3919149   6.349   4.687   7.666 -0.2828 -0.2757 -0.2924
  169SAPE   H9X19150   6.401   4.784   7.676 -0.4530 -0.3611  1.5657
  169SAPE   H9Y19151   6.416   4.598   7.667 -1.0578 -0.9117  3.8409
  169SAPE  C31019152   6.271   4.678   7.799 -0.0651  0.0217  0.2140
  169SAPE  H10X19153   6.241   4.572   7.810 -0.9460  0.3076  0.6898
  169SAPE  H10Y19154   6.183   4.746   7.789  0.1760  0.1878 -0.7945
  169SAPE  C31119155   6.336   4.735   7.926 -0.7068 -0.7083 -0.1593
  169SAPE  H11X19156   6.379   4.836   7.909 -1.9364  0.0959  1.2837
  169SAPE  H11Y19157   6.422   4.667   7.943 -1.1186 -1.1565  0.1440
  169SAPE  C31219158   6.233   4.734   8.039  0.2921 -0.0780  0.2440
  169SAPE  H12X19159   6.158   4.654   8.021 -0.6365  0.6430  0.8628
  169SAPE  H12Y19160   6.167   4.822   8.026 -1.3179 -1.4870 -1.3331
  169SAPE  C31319161   6.289   4.716   8.179  0.2203  0.3079 -1.0508
  169SAPE  H13X19162   6.327   4.615   8.204 -0.5406 -0.0968 -1.4782
  169SAPE  H13Y19163   6.200   4.720   8.246 -0.6252 -0.2309 -2.1111
  169SAPE  C31419164   6.393   4.816   8.236 -0.5519  0.0454  0.8564
  169SAPE  H14X19165   6.339   4.913   8.228 -1.6050 -0.7401 -2.3182
  169SAPE  H14Y19166   6.486   4.821   8.176 -2.4447  0.7675 -2.1407
  169SAPE  C31519167   6.434   4.803   8.386 -0.5570 -0.5656  0.3286
  169SAPE  H15X19168   6.487   4.707   8.400 -1.7080 -1.0308  1.6859
  169SAPE  H15Y19169   6.347   4.798   8.455 -1.3360  1.2061 -0.4732
  169SAPE  C31619170   6.528   4.919   8.429  0.2979 -0.3094 -0.1238
  169SAPE  H16X19171   6.466   5.010   8.419 -0.4074 -0.7256  0.3916
  169SAPE  H16Y19172   6.615   4.905   8.361 -0.0863 -1.6237 -0.3772
  169SAPE  C31719173   6.586   4.894   8.566  0.5578  0.4014 -1.0539
  169SAPE  H17X19174   6.635   4.795   8.583 -0.7281 -0.7454 -3.8014
  169SAPE  H17Y19175   6.502   4.886   8.638  0.7335  0.0401 -0.8835
  169SAPE  C31819176   6.675   5.001   8.620  0.1359  0.0034  0.0189
  169SAPE  H18X19177   6.627   5.101   8.621  0.6824  0.2859 -1.7313
  169SAPE  H18Y19178   6.776   5.013   8.576  0.1084  0.6242  0.1212
  169SAPE  H18Z19179   6.692   4.985   8.729  0.2130 -2.3523 -0.3078
  170SAPE     N19180   0.703   2.826   6.081 -0.6563  0.0171  0.0806
  170SAPE   HN119181   0.757   2.879   6.152  0.4034  0.0882 -0.7617
  170SAPE   HN219182   0.692   2.898   6.006  0.1598  0.6195  0.5251
  170SAPE   HN319183   0.621   2.796   6.136 -0.7811 -0.6778 -0.4849
  170SAPE   C1219184   0.773   2.700   6.053 -0.0789  0.0271  0.2009
  170SAPE  H12A19185   0.819   2.717   5.954 -0.8698  0.1673 -0.1474
  170SAPE  H12B19186   0.703   2.614   6.056  0.5644 -0.4954  0.4563
  170SAPE   C1119187   0.883   2.668   6.149 -0.6005 -0.3233  0.6053
  170SAPE  H11A19188   0.938   2.575   6.124 -0.2073 -0.3317  1.4743
  170SAPE  H11B19189   0.832   2.650   6.247  0.9252  0.7286  1.6200
  170SAPE     P19190   1.101   2.777   6.057 -0.2307 -0.1951 -0.1620
  170SAPE   O1319191   1.074   2.689   5.940 -0.3396  0.2027  0.7183
  170SAPE   O1419192   1.137   2.914   6.016  0.0406 -0.2999 -0.0208
  170SAPE   O1219193   0.978   2.776   6.153  0.0899 -0.2043  0.2664
  170SAPE   O1119194   1.210   2.715   6.145  0.2090  0.1944  0.2628
  170SAPE    C119195   1.205   2.582   6.185  0.4703  0.3050 -0.3833
  170SAPE    HA19196   1.103   2.558   6.222  0.9846  1.2000  1.6171
  170SAPE    HB19197   1.219   2.514   6.097 -1.2810 -0.9530  0.2804
  170SAPE    C219198   1.299   2.535   6.296 -0.2268 -0.1817 -0.2407
  170SAPE    HS19199   1.280   2.427   6.313 -0.0602 -0.0321  0.8726
  170SAPE   O2119200   1.270   2.615   6.416  0.1054 -0.0711  0.7911
  170SAPE   C2119201   1.161   2.586   6.478  0.1093  0.7761  0.0804
  170SAPE   O2219202   1.071   2.503   6.449 -0.1081  0.5902 -0.4362
  170SAPE   C2219203   1.149   2.679   6.607 -0.1229  0.1411  0.4267
  170SAPE   H2R19204   1.239   2.739   6.633 -0.3319  0.8897 -0.5839
  170SAPE   H2S19205   1.070   2.755   6.593  1.5007  1.6058 -1.0066
  170SAPE    C319206   1.445   2.569   6.253 -0.3947 -0.3885 -0.1315
  170SAPE    HX19207   1.453   2.674   6.218 -2.2994 -0.7939 -1.8656
  170SAPE    HY19208   1.475   2.499   6.172 -0.5382 -2.3075  1.4378
  170SAPE   O3119209   1.544   2.559   6.359 -0.4078 -0.2617  0.3353
  170SAPE   C3119210   1.560   2.443   6.424 -0.1144 -0.3267  0.0224
  170SAPE   O3219211   1.489   2.347   6.410 -0.3916 -0.2794  0.0577
  170SAPE   C3219212   1.684   2.449   6.511 -0.7685  0.2635 -0.1102
  170SAPE   H2X19213   1.741   2.543   6.500  1.7937 -1.0720  1.3302
  170SAPE   H2Y19214   1.756   2.368   6.483 -0.9422 -0.5956  1.8578
  170SAPE   C2319215   1.113   2.590   6.728 -0.2394 -0.4876 -1.1103
  170SAPE   H3R19216   1.183   2.506   6.747 -0.2049 -0.1706  0.2183
  170SAPE   H3S19217   1.016   2.539   6.713 -1.0057  1.2614 -2.3168
  170SAPE   C2419218   1.115   2.669   6.861 -0.0948 -0.8475  0.3504
  170SAPE   H4R19219   1.216   2.714   6.864  0.7273 -2.6530  0.6386
  170SAPE   H4S19220   1.106   2.599   6.947  0.5079 -0.3996  0.7861
  170SAPE   C2519221   1.013   2.784   6.874  0.3378  0.3849 -1.2697
  170SAPE   H5R19222   0.994   2.848   6.787 -0.0639  1.7509 -0.1990
  170SAPE   C2619223   0.958   2.819   6.992 -0.0099  0.3426 -0.8706
  170SAPE   H6R19224   0.889   2.904   6.989 -0.5419 -0.0438  0.4095
  170SAPE   C2719225   0.980   2.758   7.135  0.2328 -0.1723  0.0448
  170SAPE   H7R19226   1.002   2.826   7.220 -0.4325 -1.7834  1.5416
  170SAPE   H7S19227   1.065   2.686   7.132  0.1261 -0.2627 -1.5408
  170SAPE   C2819228   0.849   2.689   7.172  0.4963  0.2773  0.0190
  170SAPE   H8R19229   0.820   2.610   7.102  1.5281 -1.5290  1.5845
  170SAPE   C2919230   0.773   2.715   7.280  0.1567  0.1581  0.5843
  170SAPE   H9R19231   0.686   2.650   7.293 -0.1408  0.9070  2.5900
  170SAPE  C21019232   0.791   2.814   7.394  0.2343  0.4146  0.1959
  170SAPE  H10R19233   0.880   2.875   7.367  0.4236 -0.7510 -1.9519
  170SAPE  H10S19234   0.821   2.755   7.484 -1.6983 -0.2527  0.4313
  170SAPE  C21119235   0.679   2.914   7.412  0.0843  0.1069  0.1122
  170SAPE  H11R19236   0.673   2.986   7.328  0.6512  1.2158  1.0079
  170SAPE  C21219237   0.607   2.928   7.521 -0.3968 -0.2819 -0.1934
  170SAPE  H12R19238   0.522   2.997   7.514 -0.5004 -0.3690  0.1734
  170SAPE  C21319239   0.620   2.851   7.648 -0.7503  0.2105 -0.6445
  170SAPE  H13R19240   0.646   2.922   7.729  0.0354  0.4918 -1.1443
  170SAPE  H13S19241   0.705   2.780   7.654 -1.0471 -0.2777 -2.0376
  170SAPE  C21419242   0.501   2.775   7.703 -0.1864 -0.8127 -0.1019
  170SAPE  H14R19243   0.461   2.696   7.638 -4.0053  0.5387  0.4857
  170SAPE  C21519244   0.439   2.798   7.819 -0.4599  0.2661  0.7334
  170SAPE  H15R19245   0.354   2.735   7.847 -2.1308  1.5647 -1.2183
  170SAPE  C21619246   0.480   2.896   7.924  0.6277 -0.4958 -0.1655
  170SAPE  H16R19247   0.499   3.000   7.889 -0.7755  1.3378  4.1571
  170SAPE  H16S19248   0.564   2.853   7.984  1.6043  0.9996 -0.4188
  170SAPE  C21719249   0.365   2.905   8.029  0.6062  0.4642 -0.0323
  170SAPE  H17R19250   0.337   2.806   8.070 -1.2832  1.3636  0.9544
  170SAPE  H17S19251   0.270   2.946   7.988  0.9280 -0.2949 -1.5793
  170SAPE  C21819252   0.413   2.977   8.153  0.1979 -1.1616 -0.8262
  170SAPE  H18R19253   0.507   2.929   8.190 -0.3195 -0.5104  1.4041
  170SAPE  H18S19254   0.338   2.965   8.234  0.9262  1.0789  0.2148
  170SAPE  C21919255   0.446   3.128   8.130 -0.1210 -0.0264  0.2133
  170SAPE  H19R19256   0.354   3.181   8.097  0.6948  1.1169 -0.2676
  170SAPE  H19S19257   0.529   3.143   8.058 -1.4605  2.2942 -0.8990
  170SAPE  C22019258   0.520   3.188   8.249 -0.3431 -0.4576 -0.2201
  170SAPE  H20R19259   0.455   3.201   8.339  0.5613  0.5190  0.2943
  170SAPE  H20S19260   0.553   3.287   8.212 -1.4485 -1.5883 -4.4290
  170SAPE  H20T19261   0.610   3.128   8.275 -1.9046 -2.3418  1.0643
  170SAPE   C3319262   1.639   2.426   6.659  0.5579  0.5099 -0.0150
  170SAPE   H3X19263   1.731   2.418   6.721  1.2023 -2.7065 -1.2596
  170SAPE   H3Y19264   1.574   2.336   6.659  0.4581  0.5584 -1.8218
  170SAPE   C3419265   1.555   2.543   6.708  0.7158 -0.1264  0.1390
  170SAPE   H4X19266   1.481   2.569   6.629 -0.3152  0.4145  1.2591
  170SAPE   H4Y19267   1.607   2.638   6.734  1.7888 -0.8382  0.6377
  170SAPE   C3519268   1.477   2.501   6.837 -0.2460  0.6670 -0.5299
  170SAPE   H5X19269   1.422   2.407   6.817 -1.9542  1.3054  0.9876
  170SAPE   H5Y19270   1.409   2.586   6.859 -0.9774  0.0742 -0.4668
  170SAPE   C3619271   1.555   2.475   6.961  0.8433  0.6433 -0.6227
  170SAPE   H6X19272   1.593   2.570   7.006  0.0670  0.9167 -0.5388
  170SAPE   H6Y19273   1.639   2.407   6.936  1.4530  0.2268  2.2872
  170SAPE   C3719274   1.471   2.386   7.059  0.4860 -1.0420  1.1419
  170SAPE   H7X19275   1.532   2.348   7.143  0.1431  1.8953  2.8123
  170SAPE   H7Y19276   1.435   2.300   6.999 -1.0411  0.2111  0.1980
  170SAPE   C3819277   1.352   2.460   7.117  0.5275  0.4244  0.0013
  170SAPE   H8X19278   1.290   2.493   7.031  0.3209 -3.7600 -1.5620
  170SAPE   H8Y19279   1.393   2.549   7.169  0.2310 -1.2977  3.3055
  170SAPE   C3919280   1.276   2.376   7.213 -0.0612 -0.4960 -0.0209
  170SAPE   H9X19281   1.348   2.344   7.291  1.1876  1.0385 -0.5286
  170SAPE   H9Y19282   1.234   2.285   7.165  0.4507 -0.4252 -0.5926
  170SAPE  C31019283   1.160   2.455   7.276 -0.8068  0.9547  0.3967
  170SAPE  H10X19284   1.075   2.471   7.206 -1.5387  0.3276  1.1293
  170SAPE  H10Y19285   1.196   2.558   7.298  0.7512  0.3979  0.5404
  170SAPE  C31119286   1.100   2.398   7.399 -0.7417 -0.1614  0.2156
  170SAPE  H11X19287   1.164   2.318   7.443 -1.4378 -0.2870  1.0006
  170SAPE  H11Y19288   1.010   2.341   7.367 -0.2673 -1.4136  1.0499
  170SAPE  C31219289   1.056   2.508   7.500  0.3486 -0.1635  0.3544
  170SAPE  H12X19290   1.003   2.584   7.438  1.5574  0.3461 -0.0747
  170SAPE  H12Y19291   1.141   2.556   7.552  1.0342 -2.3989  1.3479
  170SAPE  C31319292   0.956   2.443   7.604 -0.2962  0.3337  0.5518
  170SAPE  H13X19293   1.008   2.378   7.677 -0.7215  0.3701  0.8869
  170SAPE  H13Y19294   0.885   2.377   7.549 -0.6198  1.4989 -0.4551
  170SAPE  C31419295   0.886   2.543   7.699  0.2654  0.3154  0.2142
  170SAPE  H14X19296   0.835   2.614   7.631 -1.7546  0.3895  1.7492
  170SAPE  H14Y19297   0.970   2.588   7.757 -0.9097  0.1330  2.0905
  170SAPE  C31519298   0.782   2.473   7.785 -0.0595 -0.0715  0.5150
  170SAPE  H15X19299   0.817   2.379   7.832 -3.5690 -1.0150  1.3403
  170SAPE  H15Y19300   0.705   2.428   7.720  0.8827  0.5992 -1.0911
  170SAPE  C31619301   0.717   2.564   7.890  0.7565 -0.2695 -0.1456
  170SAPE  H16X19302   0.622   2.520   7.927  1.3283 -0.1500  1.5044
  170SAPE  H16Y19303   0.709   2.670   7.856 -1.0890  0.2341  1.7360
  170SAPE  C31719304   0.805   2.568   8.020 -0.7946 -0.4722 -0.1980
  170SAPE  H17X19305   0.904   2.600   7.981  0.6432 -3.0556  1.1313
  170SAPE  H17Y19306   0.816   2.466   8.064  2.1692 -0.6373 -1.2082
  170SAPE  C31819307   0.761   2.667   8.130  0.5299 -0.0443 -0.7710
  170SAPE  H18X19308   0.678   2.626   8.192  1.1882 -2.1210 -1.2117
  170SAPE  H18Y19309   0.738   2.766   8.086 -3.7340 -1.4966 -2.0530
  170SAPE  H18Z19310   0.841   2.681   8.206  1.4565  0.2728 -1.8051
  171SAPE     N19311   3.276   3.388   6.215  0.8389  0.0437  0.6516
  171SAPE   HN119312   3.380   3.382   6.223  0.9622 -1.0001 -1.2988
  171SAPE   HN219313   3.266   3.489   6.196  0.8747 -0.0435  0.1575
  171SAPE   HN319314   3.236   3.361   6.307 -1.1178  0.5336 -0.0276
  171SAPE   C1219315   3.248   3.299   6.104 -0.8358  0.7791  0.5146
  171SAPE  H12A19316   3.321   3.316   6.022 -0.0705  0.0499  1.0388
  171SAPE  H12B19317   3.147   3.331   6.071 -1.1791 -1.0973 -0.3076
  171SAPE   C1119318   3.243   3.149   6.145 -0.4663 -0.0450 -0.3712
  171SAPE  H11A19319   3.221   3.081   6.060 -2.1568 -0.1215  0.1137
  171SAPE  H11B19320   3.154   3.126   6.207  1.3918 -0.6756  2.1681
  171SAPE     P19321   3.359   2.990   6.312 -0.4583  0.2303 -0.5830
  171SAPE   O1319322   3.294   2.876   6.240  0.6954 -0.2941 -0.0528
  171SAPE   O1419323   3.493   2.977   6.367 -0.1316 -0.0429 -0.1884
  171SAPE   O1219324   3.362   3.113   6.215 -0.4765  0.1615 -0.0460
  171SAPE   O1119325   3.260   3.029   6.429 -0.1222  0.2523  0.1942
  171SAPE    C119326   3.246   2.937   6.542  0.3006 -0.2229 -0.2788
  171SAPE    HA19327   3.280   2.832   6.530  0.7277 -0.1609  0.3505
  171SAPE    HB19328   3.302   2.980   6.628 -1.1464  0.6852  0.2330
  171SAPE    C219329   3.099   2.922   6.585 -0.1896 -0.1794  0.1514
  171SAPE    HS19330   3.046   2.912   6.488 -0.6914  2.6309  0.0948
  171SAPE   O2119331   3.048   3.032   6.660 -0.0715  0.0763  0.1499
  171SAPE   C2119332   2.914   3.045   6.647 -0.8190 -0.8214 -0.0868
  171SAPE   O2219333   2.840   2.957   6.607  0.6547 -0.3987 -0.7848
  171SAPE   C2219334   2.873   3.180   6.702 -0.2681  0.0616  0.2999
  171SAPE   H2R19335   2.955   3.255   6.698  0.1037 -0.4499 -2.9758
  171SAPE   H2S19336   2.788   3.223   6.646 -1.7347 -1.3013  1.4521
  171SAPE    C319337   3.091   2.791   6.665  0.0977 -0.7226  0.1222
  171SAPE    HX19338   3.128   2.701   6.612 -0.9357  0.5310 -2.8444
  171SAPE    HY19339   2.980   2.786   6.669  0.0340  0.8994  0.5241
  171SAPE   O3119340   3.160   2.805   6.795 -0.2303 -0.1727  0.2805
  171SAPE   C3119341   3.093   2.796   6.905  0.4598 -0.2052 -0.9536
  171SAPE   O3219342   2.975   2.772   6.917  0.0761  0.1146  0.4468
  171SAPE   C3219343   3.178   2.836   7.027 -0.4210  0.5626 -0.2946
  171SAPE   H2X19344   3.226   2.934   7.003 -0.1095  0.3719 -0.4679
  171SAPE   H2Y19345   3.264   2.766   7.036  0.2670  1.1037 -2.3094
  171SAPE   C2319346   2.823   3.163   6.852 -0.1324 -0.3261  0.3323
  171SAPE   H3R19347   2.739   3.090   6.865  2.4062 -3.2701  0.7698
  171SAPE   H3S19348   2.779   3.263   6.873  2.0413  0.4863  1.1621
  171SAPE   C2419349   2.935   3.134   6.953  0.3539 -0.3509 -0.3669
  171SAPE   H4R19350   3.026   3.187   6.919  0.4756 -0.4444 -0.1826
  171SAPE   H4S19351   2.960   3.026   6.953 -2.1159 -0.9737 -2.2665
  171SAPE   C2519352   2.888   3.183   7.087 -0.9487  0.1423  0.2694
  171SAPE   H5R19353   2.781   3.166   7.109 -0.9858  3.0475  2.6355
  171SAPE   C2619354   2.958   3.240   7.179  0.4236 -0.3399  0.6803
  171SAPE   H6R19355   2.909   3.258   7.276 -2.1946  2.7842 -1.1306
  171SAPE   C2719356   3.096   3.290   7.173  0.5765  0.7262  0.3622
  171SAPE   H7R19357   3.126   3.316   7.069  2.2850 -0.4790  0.5267
  171SAPE   H7S19358   3.155   3.202   7.203  0.0535  0.9223  2.0234
  171SAPE   C2819359   3.112   3.401   7.270  0.0025  0.3965  0.0780
  171SAPE   H8R19360   3.029   3.473   7.274 -0.9591 -0.6732 -0.3495
  171SAPE   C2919361   3.229   3.431   7.328  0.2456 -0.4894  0.0013
  171SAPE   H9R19362   3.235   3.518   7.396 -1.9482 -0.9882  0.8855
  171SAPE  C21019363   3.348   3.343   7.315 -0.0161  0.6900  0.1979
  171SAPE  H10R19364   3.394   3.365   7.217  1.1695 -0.0710  0.5537
  171SAPE  H10S19365   3.314   3.238   7.304 -1.2397  1.1430 -0.3639
  171SAPE  C21119366   3.459   3.337   7.417  1.0139  0.1841 -0.2548
  171SAPE  H11R19367   3.563   3.334   7.379  0.6768 -1.6662 -1.1097
  171SAPE  C21219368   3.445   3.336   7.551  0.5754  0.3013 -1.5594
  171SAPE  H12R19369   3.532   3.355   7.615 -0.4605  0.5684 -0.2029
  171SAPE  C21319370   3.314   3.333   7.636 -0.6024  0.2218 -0.6483
  171SAPE  H13R19371   3.226   3.295   7.578 -1.3272  0.2142  0.4379
  171SAPE  H13S19372   3.286   3.435   7.668 -2.1331 -0.5035  0.4197
  171SAPE  C21419373   3.324   3.239   7.752 -0.3349  0.3659 -0.5931
  171SAPE  H14R19374   3.274   3.143   7.731  0.8009 -0.4611  0.4344
  171SAPE  C21519375   3.365   3.262   7.880 -0.5352 -0.0759  0.8019
  171SAPE  H15R19376   3.386   3.169   7.935  2.8111  0.9633  1.3822
  171SAPE  C21619377   3.412   3.392   7.945  0.5253  0.3556 -0.5199
  171SAPE  H16R19378   3.351   3.477   7.908 -0.9468  0.7551  2.6405
  171SAPE  H16S19379   3.513   3.424   7.912  1.0960  0.5729  1.4043
  171SAPE  C21719380   3.407   3.384   8.101 -0.1261 -0.1003 -0.0581
  171SAPE  H17R19381   3.305   3.361   8.140  0.0909  0.7032  0.9903
  171SAPE  H17S19382   3.428   3.489   8.129 -2.3889  0.5499 -0.6653
  171SAPE  C21819383   3.523   3.298   8.160  0.3173  1.0162 -0.2620
  171SAPE  H18R19384   3.508   3.197   8.117  0.3136  0.4140  1.1123
  171SAPE  H18S19385   3.493   3.295   8.267  0.9612  0.1748 -0.1030
  171SAPE  C21919386   3.664   3.346   8.145 -0.5261 -0.9891 -0.4578
  171SAPE  H19R19387   3.698   3.345   8.039 -1.8614  1.0313 -0.9154
  171SAPE  H19S19388   3.712   3.268   8.209  1.4965  0.6779  0.1351
  171SAPE  C22019389   3.697   3.478   8.214 -0.6449 -0.1294  0.1852
  171SAPE  H20R19390   3.653   3.465   8.315 -2.0391  1.8146 -0.1383
  171SAPE  H20S19391   3.663   3.565   8.153  2.0704 -1.2651 -3.0999
  171SAPE  H20T19392   3.807   3.494   8.212 -0.9337  1.9960 -3.5971
  171SAPE   C3319393   3.113   2.839   7.164 -0.0219 -0.0348  0.1145
  171SAPE   H3X19394   3.081   2.734   7.183 -0.7430  0.3802  1.2563
  171SAPE   H3Y19395   3.034   2.917   7.158  1.8556  2.0121  1.1849
  171SAPE   C3419396   3.201   2.875   7.281 -0.9068 -0.1877  0.5199
  171SAPE   H4X19397   3.234   2.981   7.287  0.1968 -0.4032 -1.4247
  171SAPE   H4Y19398   3.296   2.820   7.265 -1.0926 -1.1512  2.5445
  171SAPE   C3519399   3.140   2.840   7.424  0.7274 -0.0310  0.4445
  171SAPE   H5X19400   3.099   2.737   7.429  0.0124  0.3057  1.7869
  171SAPE   H5Y19401   3.056   2.908   7.451  1.4635  1.4213 -0.8298
  171SAPE   C3619402   3.245   2.861   7.527  0.2133  0.2124  0.1678
  171SAPE   H6X19403   3.270   2.969   7.530 -0.5836  0.4918 -1.9035
  171SAPE   H6Y19404   3.331   2.807   7.482 -0.5960 -1.8025  0.9979
  171SAPE   C3719405   3.223   2.798   7.661 -0.0308  0.0441  0.0376
  171SAPE   H7X19406   3.305   2.829   7.730  1.5900 -0.6160 -1.5537
  171SAPE   H7Y19407   3.231   2.689   7.642  1.5693  0.4823 -1.9284
  171SAPE   C3819408   3.090   2.832   7.719  0.2535 -0.2506 -0.0400
  171SAPE   H8X19409   3.085   2.776   7.814  0.2055 -0.0365  0.0837
  171SAPE   H8Y19410   3.006   2.793   7.657  1.4069 -0.5367 -1.4640
  171SAPE   C3919411   3.062   2.977   7.755  0.1105 -0.4329  1.0656
  171SAPE   H9X19412   3.081   3.039   7.665  1.5815 -0.7416  1.1442
  171SAPE   H9Y19413   3.135   3.008   7.833  0.9339  0.1249  0.0960
  171SAPE  C31019414   2.914   2.978   7.813 -0.0429 -0.8581 -0.1552
  171SAPE  H10X19415   2.862   2.900   7.753  0.4153  0.4518 -2.3327
  171SAPE  H10Y19416   2.866   3.076   7.790  0.1491 -0.9913 -1.1696
  171SAPE  C31119417   2.917   2.946   7.966  0.2449 -0.7458  0.4878
  171SAPE  H11X19418   2.957   2.842   7.972 -1.1387 -1.3695 -0.7677
  171SAPE  H11Y19419   2.813   2.933   8.003 -0.1287 -2.3733 -1.0717
  171SAPE  C31219420   2.990   3.051   8.050 -0.4799  0.4734 -0.3630
  171SAPE  H12X19421   2.940   3.150   8.048  0.1753  0.9201  2.3442
  171SAPE  H12Y19422   3.097   3.065   8.021  0.1115 -0.6334  1.1776
  171SAPE  C31319423   3.004   3.021   8.202 -0.4556  0.1039 -0.9341
  171SAPE  H13X19424   3.065   2.931   8.224 -1.1895 -0.2997 -0.5141
  171SAPE  H13Y19425   2.901   2.997   8.236 -0.3851 -0.5930 -1.1963
  171SAPE  C31419426   3.068   3.137   8.278 -0.0601 -0.2980  0.3518
  171SAPE  H14X19427   2.997   3.218   8.251  1.0218  0.2101 -1.0006
  171SAPE  H14Y19428   3.169   3.154   8.236  0.0682 -0.8579  0.4198
  171SAPE  C31519429   3.069   3.124   8.430  0.0735  0.2170  0.1249
  171SAPE  H15X19430   2.968   3.090   8.461 -0.5445  1.8799 -0.0351
  171SAPE  H15Y19431   3.084   3.225   8.473  0.5936 -0.4384  1.5228
  171SAPE  C31619432   3.182   3.032   8.480 -0.7655  0.3250 -0.4815
  171SAPE  H16X19433   3.286   3.071   8.481  0.4343 -2.7511 -0.8832
  171SAPE  H16Y19434   3.189   2.949   8.407 -0.6692 -0.5081  0.4574
  171SAPE  C31719435   3.155   2.961   8.617  0.3144 -0.2077  0.1946
  171SAPE  H17X19436   3.234   2.890   8.648  0.4697 -0.8795 -1.6659
  171SAPE  H17Y19437   3.063   2.899   8.603  1.5367 -2.5409  2.0651
  171SAPE  C31819438   3.146   3.057   8.729 -0.0867 -0.1070 -0.0601
  171SAPE  H18X19439   3.103   3.002   8.815 -2.2933  1.6171  0.0074
  171SAPE  H18Y19440   3.079   3.139   8.695 -0.2012 -1.0964 -2.3393
  171SAPE  H18Z19441   3.239   3.111   8.756 -1.0598  1.6919 -0.1717
  172SAPE     N19442   2.394   2.427   6.080  0.2143  0.6533  0.2172
  172SAPE   HN119443   2.394   2.511   6.142 -0.0218  1.8375 -1.3457
  172SAPE   HN219444   2.350   2.448   5.988  2.4416 -0.2143 -1.0674
  172SAPE   HN319445   2.327   2.360   6.123 -1.2312  1.6846 -0.3867
  172SAPE   C1219446   2.531   2.367   6.060 -1.0463  0.7701  0.6423
  172SAPE  H12A19447   2.604   2.450   6.052  0.7944 -1.0160 -2.1150
  172SAPE  H12B19448   2.533   2.302   5.970  0.7211  0.0003  1.2074
  172SAPE   C1119449   2.562   2.269   6.179 -0.2297 -0.1154 -0.5712
  172SAPE  H11A19450   2.558   2.331   6.272  1.7928 -0.4100 -0.2710
  172SAPE  H11B19451   2.665   2.227   6.181  0.4405  1.5015  0.5257
  172SAPE     P19452   2.491   2.028   6.263 -0.4205  0.0779  0.1576
  172SAPE   O1319453   2.366   1.958   6.276 -0.1438 -0.4502 -0.3371
  172SAPE   O1419454   2.593   1.965   6.176 -0.5485  0.4347  0.2929
  172SAPE   O1219455   2.465   2.170   6.197  0.0315  0.6841  0.1819
  172SAPE   O1119456   2.564   2.066   6.399  0.0714 -0.1664 -0.4775
  172SAPE    C119457   2.502   2.154   6.494 -0.4392  0.0393 -0.0463
  172SAPE    HA19458   2.573   2.237   6.517  0.7767 -1.1456  0.5156
  172SAPE    HB19459   2.411   2.197   6.447 -0.1760  1.3672  0.6309
  172SAPE    C219460   2.463   2.070   6.621  0.0342 -0.1975 -0.1412
  172SAPE    HS19461   2.440   2.154   6.690  0.1850  0.5766 -1.0212
  172SAPE   O2119462   2.567   1.988   6.672 -0.0634  0.5362 -0.7460
  172SAPE   C2119463   2.666   2.066   6.719  0.2938 -0.2402  0.2321
  172SAPE   O2219464   2.663   2.187   6.749 -0.0438  0.2477 -0.1538
  172SAPE   C2219465   2.783   1.981   6.772 -0.5124  0.3015  0.5000
  172SAPE   H2R19466   2.794   1.887   6.713  0.3653  0.0275  1.0855
  172SAPE   H2S19467   2.873   2.045   6.756  1.5399 -1.8098  3.1384
  172SAPE    C319468   2.336   1.991   6.597 -0.1235  0.0325  0.5237
  172SAPE    HX19469   2.364   1.899   6.542  1.9679 -0.2870  2.0514
  172SAPE    HY19470   2.263   2.044   6.533 -1.0446  0.1531  1.6375
  172SAPE   O3119471   2.274   1.959   6.729 -0.1198  0.1082 -0.0616
  172SAPE   C3119472   2.223   1.836   6.741  0.3901  0.1585 -0.5251
  172SAPE   O3219473   2.188   1.768   6.643 -0.1941  0.5974  0.2500
  172SAPE   C3219474   2.183   1.788   6.879 -0.2596 -0.2204 -0.4247
  172SAPE   H2X19475   2.280   1.782   6.932  0.0324  0.0482 -0.9241
  172SAPE   H2Y19476   2.125   1.693   6.875  0.2676 -0.7830  3.4527
  172SAPE   C2319477   2.769   1.947   6.920  0.3734 -0.5468 -0.5372
  172SAPE   H3R19478   2.778   2.043   6.975 -0.4724 -0.6016 -0.2905
  172SAPE   H3S19479   2.857   1.894   6.961  0.1805 -0.7995 -0.4466
  172SAPE   C2419480   2.640   1.880   6.954 -0.4061 -0.2198 -0.0083
  172SAPE   H4R19481   2.628   1.818   6.862 -3.7799  0.5941 -0.1982
  172SAPE   H4S19482   2.563   1.960   6.963 -0.0198  0.2524 -0.8378
  172SAPE   C2519483   2.646   1.794   7.077 -0.3559  0.0108 -0.0651
  172SAPE   H5R19484   2.682   1.691   7.065 -1.3077 -0.5134  1.4502
  172SAPE   C2619485   2.610   1.828   7.201  0.4154 -0.1932 -0.1499
  172SAPE   H6R19486   2.614   1.758   7.286 -0.2422 -1.8519 -1.4544
  172SAPE   C2719487   2.561   1.968   7.247 -0.2504 -0.1816  0.0711
  172SAPE   H7R19488   2.521   2.036   7.168 -1.3984  0.5533  1.2771
  172SAPE   H7S19489   2.655   2.008   7.291 -1.0496  0.9979  0.7196
  172SAPE   C2819490   2.470   1.965   7.361  0.1068  0.9738 -0.3244
  172SAPE   H8R19491   2.364   1.953   7.333  0.0146  2.0899 -0.4444
  172SAPE   C2919492   2.501   1.960   7.492  0.0679  0.6400  0.3556
  172SAPE   H9R19493   2.413   1.952   7.558 -1.0829  1.2972 -1.0868
  172SAPE  C21019494   2.634   1.955   7.559 -0.0789 -0.5346 -0.4450
  172SAPE  H10R19495   2.707   1.924   7.481  0.0289 -1.3637 -0.0166
  172SAPE  H10S19496   2.641   1.878   7.639  0.8942 -1.6148 -1.5610
  172SAPE  C21119497   2.671   2.087   7.625 -0.1300 -0.0010  0.1278
  172SAPE  H11R19498   2.646   2.174   7.564 -1.8255  1.0927  2.3072
  172SAPE  C21219499   2.705   2.110   7.755  0.0780  0.2074 -0.3191
  172SAPE  H12R19500   2.720   2.213   7.789 -0.8803  0.9889 -2.2175
  172SAPE  C21319501   2.727   2.007   7.853  0.6132 -0.1576  1.1930
  172SAPE  H13R19502   2.817   2.018   7.917 -0.4074 -2.7785  3.1670
  172SAPE  H13S19503   2.737   1.909   7.802 -0.9091  0.9464 -1.3406
  172SAPE  C21419504   2.606   2.005   7.947  0.3312 -0.1591 -0.2807
  172SAPE  H14R19505   2.521   1.942   7.914  0.7980 -2.0311  1.9900
  172SAPE  C21519506   2.602   2.058   8.071  0.4588 -0.2826 -0.0715
  172SAPE  H15R19507   2.511   2.059   8.133  1.7289  1.4822  1.7995
  172SAPE  C21619508   2.708   2.142   8.135 -0.0727  0.5097 -0.6852
  172SAPE  H16R19509   2.737   2.229   8.072  2.9101 -0.8524 -1.3125
  172SAPE  H16S19510   2.798   2.082   8.161 -0.3375  1.1047  1.6754
  172SAPE  C21719511   2.660   2.205   8.273  0.2772  0.3743 -0.9252
  172SAPE  H17R19512   2.566   2.261   8.257 -1.1607 -1.3803  1.1420
  172SAPE  H17S19513   2.743   2.271   8.308  1.3396 -1.4931  0.1527
  172SAPE  C21819514   2.634   2.102   8.387 -0.7704 -0.2378  0.1104
  172SAPE  H18R19515   2.736   2.073   8.418 -1.0504 -2.2177 -0.7406
  172SAPE  H18S19516   2.582   2.017   8.337  0.5630  1.1285 -3.8428
  172SAPE  C21919517   2.554   2.160   8.505 -0.2292  0.2509 -0.6342
  172SAPE  H19R19518   2.554   2.081   8.583 -2.6075  1.7227  0.9466
  172SAPE  H19S19519   2.448   2.181   8.478 -0.8482 -0.7006  0.9870
  172SAPE  C22019520   2.603   2.292   8.564  0.3071 -0.3105  0.5539
  172SAPE  H20R19521   2.609   2.377   8.492 -1.5927 -0.8452 -0.2449
  172SAPE  H20S19522   2.706   2.280   8.605  0.1164  1.1232  1.4637
  172SAPE  H20T19523   2.530   2.328   8.639 -1.5134 -3.1794  0.2270
  172SAPE   C3319524   2.090   1.894   6.950 -0.6302  0.4327  0.5019
  172SAPE   H3X19525   2.006   1.898   6.877  0.3634  1.8186 -0.5848
  172SAPE   H3Y19526   2.139   1.992   6.965 -1.2677  0.4073  3.1302
  172SAPE   C3419527   2.035   1.847   7.091  0.0467  0.6799 -0.5954
  172SAPE   H4X19528   2.029   1.736   7.083  0.4720  0.6750 -0.8124
  172SAPE   H4Y19529   1.933   1.889   7.108  0.5514  1.7561 -0.2416
  172SAPE   C3519530   2.115   1.882   7.221  0.2264 -0.7070  0.2618
  172SAPE   H5X19531   2.137   1.990   7.227 -0.6016 -0.3984 -1.7760
  172SAPE   H5Y19532   2.214   1.835   7.204 -1.1118 -3.7617  0.4403
  172SAPE   C3619533   2.039   1.831   7.341  0.3545 -0.2366  0.4285
  172SAPE   H6X19534   2.031   1.720   7.344  3.4219 -0.7145 -3.5276
  172SAPE   H6Y19535   1.934   1.869   7.339  1.2698  2.3877  0.7217
  172SAPE   C3719536   2.103   1.876   7.474  0.1282 -0.2405 -0.2301
  172SAPE   H7X19537   2.101   1.987   7.472  2.6924 -0.1518  0.7570
  172SAPE   H7Y19538   2.211   1.850   7.471  0.0875 -0.3806 -0.4612
  172SAPE   C3819539   2.032   1.811   7.594 -0.5585  0.2683  0.1890
  172SAPE   H8X19540   2.067   1.707   7.606  0.9118  0.4468 -2.1103
  172SAPE   H8Y19541   1.924   1.807   7.569 -0.0264 -0.1235 -2.2106
  172SAPE   C3919542   2.063   1.892   7.720  0.8242  0.1960 -0.4191
  172SAPE   H9X19543   2.025   1.994   7.698  1.5529  0.6947  0.5751
  172SAPE   H9Y19544   2.167   1.900   7.757  1.4724 -3.3569 -1.3080
  172SAPE  C31019545   1.975   1.836   7.838 -1.1060  0.7033  0.4953
  172SAPE  H10X19546   2.023   1.744   7.878 -0.3875 -0.0657 -2.0375
  172SAPE  H10Y19547   1.873   1.818   7.797 -0.5665 -1.1554 -0.1013
  172SAPE  C31119548   1.959   1.918   7.964 -0.8076  0.0891  0.4525
  172SAPE  H11X19549   1.906   2.013   7.944 -2.0400 -0.5582  0.5217
  172SAPE  H11Y19550   2.052   1.920   8.025 -1.0774 -2.1972  0.9933
  172SAPE  C31219551   1.855   1.863   8.061 -0.2782  0.3968 -1.0577
  172SAPE  H12X19552   1.881   1.757   8.077 -2.1081  0.1935  0.9043
  172SAPE  H12Y19553   1.754   1.857   8.015 -0.7292 -1.2763  0.1026
  172SAPE  C31319554   1.842   1.921   8.204 -0.3793  0.5804  0.5384
  172SAPE  H13X19555   1.817   2.029   8.204  0.5809  0.8086  1.4916
  172SAPE  H13Y19556   1.940   1.912   8.255 -0.0479  1.8593  0.1546
  172SAPE  C31419557   1.736   1.849   8.290 -0.5935 -0.2613 -0.1941
  172SAPE  H14X19558   1.747   1.738   8.291  0.1853 -0.2208 -2.1543
  172SAPE  H14Y19559   1.633   1.873   8.257 -0.7481 -0.8808 -0.1616
  172SAPE  C31519560   1.744   1.906   8.434  0.1523 -0.2632  0.1972
  172SAPE  H15X19561   1.699   2.008   8.433  0.3444 -0.1566  1.5019
  172SAPE  H15Y19562   1.849   1.908   8.468  0.8705 -0.1774 -1.9879
  172SAPE  C31619563   1.673   1.824   8.539  0.5261 -0.0899 -0.2087
  172SAPE  H16X19564   1.737   1.733   8.549  0.0631 -0.3380  0.4789
  172SAPE  H16Y19565   1.589   1.777   8.484  1.5589  0.1611 -2.0318
  172SAPE  C31719566   1.640   1.902   8.666  0.4237 -0.0347  0.1436
  172SAPE  H17X19567   1.573   1.987   8.644  0.9368 -0.1527 -1.9473
  172SAPE  H17Y19568   1.731   1.949   8.711  1.7934 -2.6205  0.2142
  172SAPE  C31819569   1.574   1.815   8.774  0.9693 -0.8762  0.3069
  172SAPE  H18X19570   1.636   1.726   8.796  0.0891 -1.7905 -0.8703
  172SAPE  H18Y19571   1.482   1.766   8.735  0.7383  1.3125 -2.0415
  172SAPE  H18Z19572   1.548   1.884   8.857  1.4125 -1.1977  0.7144
  173SOPE     N19573   3.326   5.601  11.037 -0.0070 -0.2119  0.1962
  173SOPE   HN119574   3.378   5.590  10.948  1.7059 -1.2604  1.2977
  173SOPE   HN219575   3.390   5.581  11.117 -1.9116 -1.2589  1.4937
  173SOPE   HN319576   3.246   5.535  11.037 -0.2419  0.0666  0.8073
  173SOPE   C1219577   3.276   5.747  11.047  0.4426  0.4226 -0.2680
  173SOPE  H12A19578   3.366   5.808  11.066  0.9434 -1.0265  2.1554
  173SOPE  H12B19579   3.217   5.752  11.141 -0.0048 -1.4367 -0.4313
  173SOPE   C1119580   3.188   5.772  10.924  0.2690  0.1189  0.3754
  173SOPE  H11A19581   3.094   5.715  10.938  0.7119 -0.9747 -0.9847
  173SOPE  H11B19582   3.235   5.742  10.828  0.0684  0.1267  0.2761
  173SOPE     P19583   3.008   5.962  10.869 -0.1692  0.0392  0.1761
  173SOPE   O1319584   3.009   6.108  10.887  0.2011  0.1653 -0.1030
  173SOPE   O1419585   2.904   5.889  10.942  0.0949  0.2420 -0.1780
  173SOPE   O1219586   3.150   5.911  10.920  0.1949  0.4957 -0.2443
  173SOPE   O1119587   2.990   5.927  10.717  0.3925 -0.3886 -0.1581
  173SOPE    C119588   3.097   5.958  10.622  0.2810  0.7373  0.0351
  173SOPE    HA19589   3.200   5.957  10.663  0.5894 -0.5736 -0.7338
  173SOPE    HB19590   3.082   6.061  10.582 -0.3143  1.4759  2.0873
  173SOPE    C219591   3.081   5.855  10.508 -0.4217 -0.5660 -0.0310
  173SOPE    HS19592   3.172   5.857  10.444 -1.5735  0.0522 -1.6588
  173SOPE   O2119593   2.968   5.873  10.421 -0.3516  0.7105  0.2833
  173SOPE   C2119594   2.965   5.996  10.356 -0.0685  0.5030  0.2246
  173SOPE   O2219595   3.056   6.070  10.344 -0.5203  0.1800  0.1314
  173SOPE   C2219596   2.838   6.018  10.286  0.3519  0.1151  0.2472
  173SOPE   H2R19597   2.765   6.091  10.328  0.1508  1.0567 -1.6665
  173SOPE   H2S19598   2.782   5.922  10.272  1.4153 -0.0575 -3.2872
  173SOPE    C319599   3.076   5.708  10.558 -0.3477 -0.0388  0.7309
  173SOPE    HX19600   2.989   5.705  10.627 -0.6720  3.7856  0.5640
  173SOPE    HY19601   3.168   5.696  10.618  1.3743 -0.3638 -1.8955
  173SOPE   O3119602   3.077   5.604  10.459 -0.2176  0.0059 -0.1896
  173SOPE   C3119603   2.950   5.555  10.426 -0.5566 -0.5478  0.0646
  173SOPE   O3219604   2.851   5.577  10.492  0.8079 -0.0690  0.0882
  173SOPE   C3219605   2.945   5.487  10.288 -0.0665 -0.3389  0.1975
  173SOPE   H2X19606   2.841   5.478  10.250  0.0145  0.6208 -0.2492
  173SOPE   H2Y19607   2.976   5.382  10.310  0.6073 -0.3139 -0.6375
  173SOPE   C2319608   2.861   6.068  10.141 -1.0415 -0.8548  0.1661
  173SOPE   H3R19609   2.901   5.988  10.075 -0.2706  0.7544 -1.3677
  173SOPE   H3S19610   2.935   6.151  10.132  1.5157 -2.9288  1.3844
  173SOPE   C2419611   2.733   6.114  10.070  0.4401  0.2678  0.4600
  173SOPE   H4R19612   2.661   6.034  10.046  2.5310 -0.8251 -2.3466
  173SOPE   H4S19613   2.687   6.185  10.142  0.7366 -1.1554  2.0923
  173SOPE   C2519614   2.771   6.179   9.941 -0.1081 -0.2577 -0.3559
  173SOPE   H5R19615   2.671   6.214   9.908  0.1080 -1.2038 -2.0898
  173SOPE   H5S19616   2.842   6.262   9.960 -0.6891  0.3665 -0.8628
  173SOPE   C2619617   2.816   6.071   9.835  0.1981  0.2140  1.0479
  173SOPE   H6R19618   2.916   6.030   9.860  0.0356  0.2704  1.7944
  173SOPE   H6S19619   2.745   5.986   9.830  0.3646  0.1703 -0.8426
  173SOPE   C2719620   2.826   6.132   9.699  0.2255  0.6329 -0.0452
  173SOPE   H7R19621   2.885   6.225   9.716  2.4975 -0.7922  0.1091
  173SOPE   H7S19622   2.893   6.063   9.644 -0.1238  0.2523  0.0118
  173SOPE   C2819623   2.691   6.148   9.628  0.1199 -0.3371 -0.2138
  173SOPE   H8R19624   2.625   6.209   9.694  1.2997 -0.4375  1.0721
  173SOPE   H8S19625   2.700   6.221   9.544 -0.8398  0.4757  0.3735
  173SOPE   C2919626   2.632   6.017   9.594  0.1054 -0.2194 -0.3909
  173SOPE   H9119627   2.597   5.972   9.687  0.0442  1.1062  0.2345
  173SOPE  C21019628   2.614   5.957   9.475  0.0745 -0.2368  0.7776
  173SOPE  H10119629   2.574   5.854   9.474 -2.8877  0.8977 -0.4112
  173SOPE  C21119630   2.661   6.012   9.342  0.2835 -0.5501 -0.2466
  173SOPE  H11R19631   2.735   5.939   9.304 -1.5844 -1.1671 -2.8578
  173SOPE  H11S19632   2.716   6.107   9.354  1.2981 -1.2455  0.7214
  173SOPE  C21219633   2.547   6.030   9.241  0.7520  0.4117  0.3676
  173SOPE  H12R19634   2.487   6.120   9.265  0.3150  0.4385 -0.7614
  173SOPE  H12S19635   2.480   5.942   9.247 -0.3125  1.2526  0.9931
  173SOPE  C21319636   2.623   6.034   9.111 -0.4265 -0.2208  0.1420
  173SOPE  H13R19637   2.673   5.936   9.094 -0.6730 -0.6702  1.8543
  173SOPE  H13S19638   2.697   6.115   9.104  1.7403 -2.1473  0.1290
  173SOPE  C21419639   2.522   6.063   8.998  0.1494  0.0253 -0.1574
  173SOPE  H14R19640   2.436   5.995   9.018  1.6559 -1.7582  0.3558
  173SOPE  H14S19641   2.580   6.031   8.909  0.4219  0.1918 -0.0429
  173SOPE  C21519642   2.453   6.206   8.992  0.0264 -0.3942  1.2679
  173SOPE  H15R19643   2.524   6.284   8.955 -2.0856  1.0422  0.1661
  173SOPE  H15S19644   2.401   6.237   9.085 -2.1470 -0.7247  0.1867
  173SOPE  C21619645   2.344   6.208   8.884  0.2266 -0.2204 -0.5575
  173SOPE  H16R19646   2.268   6.134   8.917  0.3985 -1.4558 -2.8010
  173SOPE  H16S19647   2.383   6.166   8.789  1.7183  0.9219 -0.4886
  173SOPE  C21719648   2.269   6.342   8.864 -0.0174 -0.3195  0.3615
  173SOPE  H17R19649   2.355   6.402   8.830 -0.0372 -0.9579 -0.8437
  173SOPE  H17S19650   2.240   6.377   8.965  0.2119  2.0880 -0.3646
  173SOPE  C21819651   2.152   6.343   8.765 -0.0573  0.2195 -0.3450
  173SOPE  H18R19652   2.091   6.435   8.770  0.0603  0.3627 -1.5900
  173SOPE  H18S19653   2.088   6.256   8.792 -0.6703  1.4199  2.2600
  173SOPE  H18T19654   2.196   6.331   8.664  0.6437 -1.1801  0.1043
  173SOPE   C3319655   3.014   5.567  10.169  0.4787 -0.7722  0.0772
  173SOPE   H3X19656   3.022   5.495  10.085 -0.1577 -0.1150 -0.5512
  173SOPE   H3Y19657   3.120   5.588  10.197  0.0184  1.1303  0.4499
  173SOPE   C3419658   2.937   5.693  10.119 -0.4262 -0.1974  0.0142
  173SOPE   H4X19659   2.995   5.741  10.037 -0.0250 -1.3923 -0.4175
  173SOPE   H4Y19660   2.932   5.773  10.197  1.9680  1.0818 -1.0892
  173SOPE   C3519661   2.794   5.678  10.067 -1.3928  1.0551 -0.5548
  173SOPE   H5X19662   2.736   5.772  10.062 -1.3906  1.2452  2.1476
  173SOPE   H5Y19663   2.733   5.630  10.147 -0.5479  1.5717  0.4066
  173SOPE   C3619664   2.787   5.604   9.925  0.3678 -0.4921  1.1604
  173SOPE   H6X19665   2.685   5.562   9.909 -0.8170  2.5757  0.1962
  173SOPE   H6Y19666   2.850   5.513   9.925  0.0057 -0.7917 -2.1576
  173SOPE   C3719667   2.804   5.701   9.808  0.9207 -0.3484  0.4354
  173SOPE   H7X19668   2.882   5.777   9.828  0.1767  0.5401  0.0328
  173SOPE   H7Y19669   2.714   5.765   9.796  0.9127 -0.7831 -2.0756
  173SOPE   C3819670   2.848   5.624   9.677 -0.1362  0.3116 -0.7360
  173SOPE   H8X19671   2.761   5.575   9.629 -0.5358 -0.6417  0.9147
  173SOPE   H8Y19672   2.923   5.549   9.711 -3.0651 -2.1078  0.5200
  173SOPE   C3919673   2.914   5.723   9.576 -0.9592  0.1934  0.5512
  173SOPE   H9X19674   3.022   5.730   9.599 -0.3536  0.7681 -2.3116
  173SOPE   H9Y19675   2.866   5.823   9.585 -1.9687 -0.2866  0.5864
  173SOPE  C31019676   2.905   5.661   9.431  0.4448  0.0911 -0.0741
  173SOPE  H10X19677   2.802   5.633   9.399  0.5180  0.3816 -0.5593
  173SOPE  H10Y19678   2.955   5.562   9.427  2.8340  1.2606  0.2828
  173SOPE  C31119679   2.976   5.742   9.327  0.5334 -0.2577 -0.4873
  173SOPE  H11X19680   3.082   5.716   9.347  0.1438 -1.1229  0.4667
  173SOPE  H11Y19681   2.952   5.849   9.348 -1.4889 -1.1130  1.7613
  173SOPE  C31219682   2.949   5.709   9.180  0.3652  0.8568 -0.2245
  173SOPE  H12X19683   2.839   5.700   9.165  0.7247 -2.1667 -1.3797
  173SOPE  H12Y19684   2.985   5.606   9.158 -0.8307  0.3298  0.1755
  173SOPE  C31319685   3.012   5.802   9.080 -0.5939  0.4723  0.5293
  173SOPE  H13X19686   3.120   5.796   9.101 -0.2080 -0.1728 -1.4754
  173SOPE  H13Y19687   2.980   5.909   9.080  0.1855  0.7284 -0.9747
  173SOPE  C31419688   3.012   5.756   8.934 -0.8416 -0.0305 -0.1136
  173SOPE  H14X19689   3.038   5.649   8.926  0.8717  0.2252  1.5472
  173SOPE  H14Y19690   3.094   5.811   8.882 -0.9548  0.5227  0.2806
  173SOPE  C31519691   2.881   5.775   8.861  0.2724  0.0888  0.7702
  173SOPE  H15X19692   2.849   5.880   8.883 -1.1541  0.1377 -1.3498
  173SOPE  H15Y19693   2.794   5.720   8.904 -0.6250 -0.1806 -1.3010
  173SOPE  C31619694   2.889   5.743   8.706  0.1791 -0.4521 -0.1363
  173SOPE  H16X19695   2.893   5.632   8.694 -1.2984 -0.4079 -1.2574
  173SOPE  H16Y19696   2.981   5.796   8.673  0.0583  0.0044  0.2661
  173SOPE  C31719697   2.772   5.790   8.620 -0.5397 -0.0913 -0.1657
  173SOPE  H17X19698   2.795   5.784   8.511  0.3368  0.8903 -0.0360
  173SOPE  H17Y19699   2.747   5.892   8.655 -1.3619 -1.2229  2.6807
  173SOPE  C31819700   2.640   5.713   8.647  0.2194  0.6508 -0.4206
  173SOPE  H18X19701   2.617   5.721   8.756  0.4417 -0.6296 -0.2701
  173SOPE  H18Y19702   2.659   5.605   8.630  0.4301  0.6772 -0.3545
  173SOPE  H18Z19703   2.551   5.748   8.591 -1.0189 -0.0046  1.1087
  174SOPE     N19704   2.706   5.705  11.006  0.0950 -0.8408 -0.6306
  174SOPE   HN119705   2.721   5.672  11.104  0.2055  2.1318  0.4061
  174SOPE   HN219706   2.788   5.764  10.980  0.8459 -1.2684  0.7143
  174SOPE   HN319707   2.619   5.762  11.007  0.8034  0.3071  1.9227
  174SOPE   C1219708   2.704   5.593  10.912 -0.0995 -0.5143  0.1294
  174SOPE  H12A19709   2.628   5.611  10.832  0.2449 -0.2650 -0.1458
  174SOPE  H12B19710   2.681   5.495  10.958 -2.8662 -0.0083 -0.1120
  174SOPE   C1119711   2.842   5.581  10.846 -0.2252 -0.6374 -0.3051
  174SOPE  H11A19712   2.868   5.679  10.802 -1.1446 -0.2801 -0.0826
  174SOPE  H11B19713   2.830   5.505  10.766  1.8699 -0.4390 -0.8274
  174SOPE     P19714   2.999   5.407  10.979  0.1668 -0.6076 -0.0153
  174SOPE   O1319715   2.908   5.329  11.064 -0.4042  0.4122 -0.1555
  174SOPE   O1419716   3.139   5.424  11.032 -0.3478 -0.1725 -0.0431
  174SOPE   O1219717   2.939   5.552  10.948  0.1961  0.2625  0.4421
  174SOPE   O1119718   3.015   5.350  10.830 -0.6346 -0.3226 -0.4261
  174SOPE    C119719   3.126   5.387  10.747  0.0610 -0.3109  0.1734
  174SOPE    HA19720   3.179   5.478  10.783 -2.0568  0.5994  1.0777
  174SOPE    HB19721   3.091   5.416  10.646 -0.7964 -3.3317 -0.4258
  174SOPE    C219722   3.221   5.267  10.724  0.0432  1.0333 -0.2741
  174SOPE    HS19723   3.299   5.300  10.652  1.6473 -1.0267  0.4514
  174SOPE   O2119724   3.143   5.156  10.672 -0.0330  0.2463  0.1336
  174SOPE   C2119725   3.124   5.141  10.539 -0.3635  0.0902 -0.6321
  174SOPE   O2219726   3.169   5.220  10.458  0.3477 -0.2132  0.2079
  174SOPE   C2219727   3.035   5.018  10.508 -0.1164 -0.0464  0.2814
  174SOPE   H2R19728   2.944   5.032  10.570  0.1664  0.9563  0.4874
  174SOPE   H2S19729   3.098   4.931  10.534  2.0552  1.1086 -0.9507
  174SOPE    C319730   3.295   5.233  10.857 -0.4591 -0.1408  0.3820
  174SOPE    HX19731   3.218   5.189  10.924 -1.4753 -1.2614 -1.4738
  174SOPE    HY19732   3.329   5.323  10.912 -0.4965  1.1114 -1.5808
  174SOPE   O3119733   3.398   5.139  10.820  0.1235  0.3513 -0.2065
  174SOPE   C3119734   3.524   5.181  10.815  0.2621  0.0106 -0.5713
  174SOPE   O3219735   3.562   5.294  10.834  0.3011 -0.5573 -0.4749
  174SOPE   C3219736   3.610   5.071  10.768 -0.8769  0.4990  0.5928
  174SOPE   H2X19737   3.613   4.997  10.850 -0.2843  0.8348  0.8754
  174SOPE   H2Y19738   3.719   5.090  10.762 -0.7871 -0.4567 -1.1428
  174SOPE   C2319739   3.000   5.012  10.358 -0.3046  0.5056  0.4403
  174SOPE   H3R19740   2.974   4.911  10.319  0.1772  0.7470 -0.5083
  174SOPE   H3S19741   3.081   5.061  10.301  0.5845 -0.5568  0.7901
  174SOPE   C2419742   2.859   5.077  10.333  0.0916  0.3079  0.1623
  174SOPE   H4R19743   2.790   5.046  10.415  0.0794 -1.9375 -0.6669
  174SOPE   H4S19744   2.867   5.187  10.349 -0.8398  0.4313 -0.1365
  174SOPE   C2519745   2.808   5.049  10.186  0.0571  0.3289 -0.1423
  174SOPE   H5R19746   2.882   5.107  10.126  0.2983  2.9716  2.5624
  174SOPE   H5S19747   2.817   4.943  10.154  0.6509  0.5566 -0.7489
  174SOPE   C2619748   2.665   5.101  10.163  0.3955 -0.1038 -1.0763
  174SOPE   H6R19749   2.600   5.052  10.239  1.5115 -1.3874 -0.9211
  174SOPE   H6S19750   2.673   5.211  10.180  0.1856 -0.7560  3.9883
  174SOPE   C2719751   2.614   5.073  10.021  0.1680  0.4584  0.0429
  174SOPE   H7R19752   2.618   4.964  10.001  2.2136  0.6027 -0.4702
  174SOPE   H7S19753   2.505   5.093  10.014  0.1636  0.4012 -0.0581
  174SOPE   C2819754   2.683   5.153   9.909  0.4180  0.5655  0.7878
  174SOPE   H8R19755   2.669   5.262   9.922  3.4963  1.0324  0.3266
  174SOPE   H8S19756   2.793   5.143   9.910  0.3691  0.0459  2.0539
  174SOPE   C2919757   2.635   5.105   9.772  0.7010 -0.0885  0.1706
  174SOPE   H9119758   2.709   5.033   9.733 -1.4576 -1.1837 -1.9993
  174SOPE  C21019759   2.536   5.154   9.696  0.1143 -0.6633  0.3956
  174SOPE  H10119760   2.521   5.116   9.595  1.2064  2.8658 -1.1827
  174SOPE  C21119761   2.448   5.270   9.726 -0.3852 -0.7653 -0.5628
  174SOPE  H11R19762   2.444   5.298   9.834  1.4500 -0.1283 -0.6408
  174SOPE  H11S19763   2.343   5.246   9.699 -0.8351  1.3627 -0.8643
  174SOPE  C21219764   2.493   5.386   9.636  0.4836  0.0883 -0.2585
  174SOPE  H12R19765   2.603   5.401   9.643  0.2665  0.9229  1.6479
  174SOPE  H12S19766   2.444   5.471   9.687  1.0452 -0.1509  0.7009
  174SOPE  C21319767   2.455   5.380   9.492 -0.2134 -0.2509 -0.8312
  174SOPE  H13R19768   2.345   5.383   9.474 -0.1963 -1.2964 -1.0922
  174SOPE  H13S19769   2.493   5.287   9.445 -1.1104 -2.4516  2.6273
  174SOPE  C21419770   2.502   5.507   9.413 -0.2614 -0.6930 -0.3842
  174SOPE  H14R19771   2.608   5.532   9.435  0.0174 -1.8631 -0.3944
  174SOPE  H14S19772   2.451   5.588   9.470 -1.2080  0.9522 -3.4049
  174SOPE  C21519773   2.475   5.506   9.266  0.2246  0.6163  0.5478
  174SOPE  H15R19774   2.365   5.489   9.254  0.3437  0.0214  0.2904
  174SOPE  H15S19775   2.533   5.427   9.214  2.2887  2.1640  0.4346
  174SOPE  C21619776   2.534   5.640   9.199 -0.0416 -0.0099  0.2583
  174SOPE  H16R19777   2.645   5.631   9.192  0.2185  2.2918  1.1182
  174SOPE  H16S19778   2.512   5.718   9.275 -0.0630 -0.8371  1.1008
  174SOPE  C21719779   2.481   5.671   9.065 -0.3560 -0.4506 -0.1015
  174SOPE  H17R19780   2.524   5.769   9.034 -0.6259 -0.5735 -0.9043
  174SOPE  H17S19781   2.373   5.693   9.077  0.2816  1.3953  2.7175
  174SOPE  C21819782   2.514   5.574   8.957 -0.6647 -0.1329 -0.3966
  174SOPE  H18R19783   2.623   5.568   8.935 -1.1835 -1.0339 -2.8577
  174SOPE  H18S19784   2.460   5.593   8.861 -0.8423  1.3137 -0.0209
  174SOPE  H18T19785   2.471   5.477   8.989 -1.3916  0.9738  2.1468
  174SOPE   C3319786   3.561   5.035  10.624  0.4044  0.6692 -0.3530
  174SOPE   H3X19787   3.619   5.086  10.545  0.7716 -0.8232 -1.0680
  174SOPE   H3Y19788   3.458   5.073  10.605  0.1669  0.5426  0.6363
  174SOPE   C3419789   3.589   4.884  10.576 -0.1063  1.0399  0.3775
  174SOPE   H4X19790   3.536   4.809  10.639 -1.0987 -1.0595 -2.7917
  174SOPE   H4Y19791   3.696   4.865  10.597  0.5090  1.0116 -2.6164
  174SOPE   C3519792   3.545   4.866  10.431 -0.2491 -0.2087 -0.7946
  174SOPE   H5X19793   3.560   4.760  10.401  1.0824 -0.1842 -0.2577
  174SOPE   H5Y19794   3.613   4.931  10.372  1.1306 -1.3669 -0.5124
  174SOPE   C3619795   3.395   4.881  10.428 -0.2526  0.2145  0.1879
  174SOPE   H6X19796   3.369   4.989  10.414  3.6788  1.2609  0.2420
  174SOPE   H6Y19797   3.352   4.846  10.524 -2.8514  0.3705 -0.8660
  174SOPE   C3719798   3.323   4.793  10.323 -0.2844 -0.4578 -0.1014
  174SOPE   H7X19799   3.215   4.815  10.338 -0.0973  0.2622  0.2052
  174SOPE   H7Y19800   3.348   4.689  10.354 -1.0250 -0.4683  0.4685
  174SOPE   C3819801   3.348   4.826  10.178  0.8236 -0.8441  0.0556
  174SOPE   H8X19802   3.451   4.797  10.149  0.5673 -1.0265 -0.6887
  174SOPE   H8Y19803   3.326   4.934  10.164 -0.0792 -0.8358  1.4901
  174SOPE   C3919804   3.247   4.752  10.094  0.0854  0.4919 -0.5352
  174SOPE   H9X19805   3.145   4.795  10.106 -0.9971 -2.0425 -0.2205
  174SOPE   H9Y19806   3.245   4.646  10.125 -1.6467  0.6991  0.1318
  174SOPE  C31019807   3.268   4.767   9.943 -0.0741 -0.3473  0.1030
  174SOPE  H10X19808   3.369   4.725   9.925 -0.0537  0.1814 -1.0524
  174SOPE  H10Y19809   3.272   4.876   9.919  2.3083  0.0035  1.8571
  174SOPE  C31119810   3.162   4.701   9.856  0.2125  0.5214 -0.1867
  174SOPE  H11X19811   3.062   4.738   9.887  0.9572  2.3734  0.1208
  174SOPE  H11Y19812   3.144   4.593   9.870 -2.9936  0.9138 -0.8014
  174SOPE  C31219813   3.188   4.732   9.704  0.2244 -0.3640  0.0106
  174SOPE  H12X19814   3.284   4.679   9.690 -1.4445 -3.8128  0.9320
  174SOPE  H12Y19815   3.217   4.838   9.688  2.9789 -0.9947  0.6855
  174SOPE  C31319816   3.069   4.683   9.613 -0.6786  0.8021 -0.3149
  174SOPE  H13X19817   2.970   4.722   9.645 -1.2337  0.1500 -1.2138
  174SOPE  H13Y19818   3.058   4.574   9.635  0.5592  0.9406  1.0725
  174SOPE  C31419819   3.103   4.715   9.467 -0.2082  0.0154 -0.2770
  174SOPE  H14X19820   3.186   4.649   9.434 -0.4047 -1.1672  1.5111
  174SOPE  H14Y19821   3.131   4.822   9.457  0.2642  0.1172  2.0263
  174SOPE  C31519822   2.980   4.697   9.371 -0.8057  0.3219  0.0176
  174SOPE  H15X19823   2.907   4.779   9.389 -1.0829  0.4288 -1.5338
  174SOPE  H15Y19824   2.936   4.597   9.390  0.7194 -0.2208  0.7462
  174SOPE  C31619825   3.017   4.699   9.219  0.5326 -0.1896 -0.3124
  174SOPE  H16X19826   3.075   4.608   9.191  0.6377 -0.6345  1.2663
  174SOPE  H16Y19827   3.087   4.785   9.207  2.0680 -1.2682  0.6445
  174SOPE  C31719828   2.904   4.726   9.129  0.2691 -0.1531 -0.4153
  174SOPE  H17X19829   2.961   4.754   9.038 -1.2049  0.7494 -1.0816
  174SOPE  H17Y19830   2.838   4.808   9.164 -0.3953 -1.5860  1.7525
  174SOPE  C31819831   2.820   4.604   9.101  0.1241 -0.2169  0.1462
  174SOPE  H18X19832   2.888   4.519   9.082  1.9979  1.9123 -2.9863
  174SOPE  H18Y19833   2.745   4.621   9.021  0.3445  2.1781  0.4249
  174SOPE  H18Z19834   2.757   4.577   9.189  0.1908  3.4706  1.4035
  175SOPE     N19835   5.274   0.444  10.327 -0.1007  0.2293  0.3179
  175SOPE   HN119836   5.293   0.539  10.366  0.6062  0.2801 -0.1371
  175SOPE   HN219837   5.250   0.381  10.406  1.5574 -2.2989 -1.1140
  175SOPE   HN319838   5.369   0.413  10.298  0.0837 -0.2870  1.4396
  175SOPE   C1219839   5.158   0.439  10.227  1.1958 -0.0264  0.0726
  175SOPE  H12A19840   5.174   0.515  10.148 -1.1055  0.5646  0.1360
  175SOPE  H12B19841   5.066   0.466  10.283  0.7515 -0.2804 -0.5335
  175SOPE   C1119842   5.140   0.300  10.170 -0.4932  0.1517 -0.0536
  175SOPE  H11A19843   5.213   0.287  10.087 -1.5279 -1.4286 -0.7332
  175SOPE  H11B19844   5.040   0.296  10.121 -1.0095  0.7896  0.9265
  175SOPE     P19845   5.048   0.102  10.330  0.0521  0.2131  0.1123
  175SOPE   O1319846   4.971   0.196  10.414 -0.2066 -0.2861  0.5588
  175SOPE   O1419847   5.101  -0.018  10.394 -0.7745 -0.1169 -0.0698
  175SOPE   O1219848   5.160   0.196  10.264  0.2676  0.3953  0.0528
  175SOPE   O1119849   4.956   0.050  10.215  0.0416 -0.4324 -0.0625
  175SOPE    C119850   4.816   0.085  10.205  0.4067 -0.2491  0.2993
  175SOPE    HA19851   4.801   0.194  10.222 -1.2813 -1.0144  4.1622
  175SOPE    HB19852   4.753   0.042  10.286  0.5734  1.4317  1.3555
  175SOPE    C219853   4.766   0.053  10.067  0.6186  0.3031  0.0783
  175SOPE    HS19854   4.656   0.068  10.077  0.5712  0.3653 -0.4990
  175SOPE   O2119855   4.802  -0.078  10.019 -0.5666 -0.3086  0.7126
  175SOPE   C2119856   4.747  -0.176  10.077  0.4620  0.9794 -0.4224
  175SOPE   O2219857   4.652  -0.178  10.148 -0.5694  0.2093 -0.4098
  175SOPE   C2219858   4.818  -0.304  10.034  0.0531 -0.4747  0.1471
  175SOPE   H2R19859   4.873  -0.341  10.123  0.9985  2.6861  0.9274
  175SOPE   H2S19860   4.898  -0.278   9.962 -0.0167 -1.1546 -0.1780
  175SOPE    C319861   4.817   0.152   9.955 -0.3395 -0.8145 -0.0391
  175SOPE    HX19862   4.928   0.154   9.967 -0.2959 -1.1245 -0.3635
  175SOPE    HY19863   4.782   0.256   9.967 -1.4130 -1.4145  2.2158
  175SOPE   O3119864   4.771   0.110   9.822  0.5093 -0.1079 -0.5810
  175SOPE   C3119865   4.858   0.050   9.746 -0.1566 -0.8719  0.0532
  175SOPE   O3219866   4.976   0.039   9.779 -0.0043 -0.9228  0.2804
  175SOPE   C3219867   4.786   0.005   9.617  0.2236  0.8046  0.1897
  175SOPE   H2X19868   4.713   0.087   9.599  0.0234  0.4142 -0.7586
  175SOPE   H2Y19869   4.754  -0.099   9.640 -1.5848  1.6942  1.9112
  175SOPE   C2319870   4.714  -0.398   9.982  0.0551  0.2154  0.1209
  175SOPE   H3R19871   4.640  -0.421  10.061  0.9748  0.7743  1.1623
  175SOPE   H3S19872   4.767  -0.492   9.954 -1.8456 -0.4285 -1.4220
  175SOPE   C2419873   4.648  -0.341   9.855  0.5192 -0.4721  0.1984
  175SOPE   H4R19874   4.703  -0.252   9.816  1.7371  0.0441  3.0093
  175SOPE   H4S19875   4.649  -0.423   9.781 -2.2323  0.6768 -1.1755
  175SOPE   C2519876   4.500  -0.296   9.876 -0.0417 -0.1628 -0.9710
  175SOPE   H5R19877   4.471  -0.367   9.957 -1.5604  1.4027 -0.0958
  175SOPE   H5S19878   4.494  -0.192   9.914 -1.1752 -0.2717 -0.8192
  175SOPE   C2619879   4.402  -0.320   9.759 -0.3858 -0.3674 -0.0384
  175SOPE   H6R19880   4.411  -0.423   9.721  1.0601  0.4741 -2.0444
  175SOPE   H6S19881   4.300  -0.309   9.803  0.4327  2.2836  1.3539
  175SOPE   C2719882   4.433  -0.215   9.648  0.7402  0.2573 -0.4017
  175SOPE   H7R19883   4.459  -0.118   9.695 -0.4999  0.6426 -0.4794
  175SOPE   H7S19884   4.516  -0.267   9.596  0.4470 -1.3615  0.6934
  175SOPE   C2819885   4.318  -0.171   9.559  0.1373  0.0063 -0.6720
  175SOPE   H8R19886   4.229  -0.134   9.614 -0.3184 -0.9603 -0.7401
  175SOPE   H8S19887   4.355  -0.087   9.496 -2.7649  2.1602  0.3962
  175SOPE   C2919888   4.260  -0.266   9.457  1.4814  0.1227  0.1235
  175SOPE   H9119889   4.172  -0.315   9.502 -0.0839  2.1892 -0.5803
  175SOPE  C21019890   4.300  -0.311   9.333 -0.2324 -0.2947 -0.2678
  175SOPE  H10119891   4.222  -0.363   9.276  1.5703 -2.5615 -0.7546
  175SOPE  C21119892   4.419  -0.263   9.255 -0.5956  0.3678  0.1017
  175SOPE  H11R19893   4.496  -0.341   9.268 -1.8040 -0.7194  0.8080
  175SOPE  H11S19894   4.471  -0.174   9.298  0.7514  0.5649 -1.8594
  175SOPE  C21219895   4.402  -0.253   9.101  0.8150  0.1524  0.8289
  175SOPE  H12R19896   4.363  -0.346   9.053  1.7014  0.8733 -1.3445
  175SOPE  H12S19897   4.498  -0.233   9.049  1.3701 -2.0080  0.9828
  175SOPE  C21319898   4.302  -0.137   9.064 -0.1574  0.0085 -1.4045
  175SOPE  H13R19899   4.340  -0.035   9.083 -1.0698 -0.1727  1.7478
  175SOPE  H13S19900   4.205  -0.148   9.117  0.7666  1.9126  0.7397
  175SOPE  C21419901   4.288  -0.146   8.913 -0.3775  0.5996 -1.1993
  175SOPE  H14R19902   4.194  -0.087   8.903  0.9885  2.6412 -2.2467
  175SOPE  H14S19903   4.277  -0.247   8.869  1.5549  0.0963 -0.5787
  175SOPE  C21519904   4.397  -0.061   8.843  0.2563 -0.0693  0.0114
  175SOPE  H15R19905   4.488  -0.118   8.872 -0.3329 -2.3673 -2.4862
  175SOPE  H15S19906   4.401   0.037   8.895 -0.8982  0.1877 -0.3771
  175SOPE  C21619907   4.386  -0.050   8.692  0.4712 -0.3701 -0.6256
  175SOPE  H16R19908   4.398  -0.149   8.643  0.4718 -1.2472  1.1085
  175SOPE  H16S19909   4.457   0.028   8.658 -0.3948  0.0538 -1.4776
  175SOPE  C21719910   4.245  -0.008   8.651  0.4126  0.7202  0.2529
  175SOPE  H17R19911   4.212   0.076   8.716  1.6710  0.6190  1.0344
  175SOPE  H17S19912   4.175  -0.091   8.671  0.5267  0.5188 -0.1867
  175SOPE  C21819913   4.223   0.018   8.502 -0.0348  0.0812  0.7502
  175SOPE  H18R19914   4.129   0.075   8.486 -1.6197 -2.9816 -1.2475
  175SOPE  H18S19915   4.232  -0.070   8.434  0.8898  0.9945 -0.3345
  175SOPE  H18T19916   4.306   0.090   8.481  0.2786  0.2443  2.4601
  175SOPE   C3319917   4.869   0.007   9.489  0.2826  0.0435  0.2070
  175SOPE   H3X19918   4.962  -0.054   9.498  0.8931  0.9297  0.0044
  175SOPE   H3Y19919   4.894   0.112   9.464 -0.1623 -0.5829 -3.0904
  175SOPE   C3419920   4.794  -0.047   9.372  0.6606  0.7025  0.0242
  175SOPE   H4X19921   4.694  -0.002   9.387 -0.1027 -0.1801 -2.1342
  175SOPE   H4Y19922   4.784  -0.158   9.376 -1.4915  0.8885  0.3853
  175SOPE   C3519923   4.845  -0.014   9.240  0.5489 -0.7835 -0.2171
  175SOPE   H5X19924   4.952  -0.040   9.233  0.7448 -0.9801  2.8245
  175SOPE   H5Y19925   4.833   0.096   9.227 -2.4999 -0.9754  0.3866
  175SOPE   C3619926   4.781  -0.077   9.119 -0.4046 -0.3399 -0.0940
  175SOPE   H6X19927   4.670  -0.073   9.121 -0.3215  2.5247  2.2430
  175SOPE   H6Y19928   4.809  -0.184   9.122 -0.0860 -0.2288  1.8205
  175SOPE   C3719929   4.824  -0.022   8.984 -0.0368  0.5437  0.3681
  175SOPE   H7X19930   4.921   0.032   8.986  1.5913 -2.1943 -1.4194
  175SOPE   H7Y19931   4.742   0.046   8.952 -1.0759 -1.2225 -0.8458
  175SOPE   C3819932   4.831  -0.119   8.863 -0.4449 -0.4883 -0.0728
  175SOPE   H8X19933   4.727  -0.159   8.855 -0.0846 -1.7453  1.4992
  175SOPE   H8Y19934   4.901  -0.203   8.878 -0.5074 -0.6715 -0.8031
  175SOPE   C3919935   4.864  -0.036   8.739  0.3554 -0.7155 -0.2771
  175SOPE   H9X19936   4.952  -0.078   8.686 -0.6169  0.6160 -3.0269
  175SOPE   H9Y19937   4.902   0.062   8.775 -1.3198  0.5621 -1.8643
  175SOPE  C31019938   4.752  -0.032   8.632 -0.8950  0.0678  0.0114
  175SOPE  H10X19939   4.666   0.029   8.668 -1.6844 -0.1740 -1.4499
  175SOPE  H10Y19940   4.715  -0.137   8.623 -0.0179 -0.5149  2.6344
  175SOPE  C31119941   4.795   0.025   8.498  0.3043  0.4192  0.1934
  175SOPE  H11X19942   4.882  -0.033   8.459 -2.2272 -1.6933 -2.6080
  175SOPE  H11Y19943   4.825   0.130   8.517  1.2503  0.2369 -0.2364
  175SOPE  C31219944   4.686   0.031   8.393  0.5996 -0.2796 -0.0581
  175SOPE  H12X19945   4.715   0.104   8.315  0.3825  0.6240  0.7055
  175SOPE  H12Y19946   4.586   0.071   8.422  0.2353 -1.6020  0.5507
  175SOPE  C31319947   4.678  -0.105   8.320  0.0954 -0.1763  0.0389
  175SOPE  H13X19948   4.642  -0.189   8.382 -0.5122 -0.7963 -1.1343
  175SOPE  H13Y19949   4.784  -0.131   8.295  0.1212  0.1580 -0.2090
  175SOPE  C31419950   4.593  -0.115   8.191 -0.0120  0.4001  0.1030
  175SOPE  H14X19951   4.587  -0.224   8.167  3.0566  0.1787  0.1106
  175SOPE  H14Y19952   4.643  -0.070   8.103  0.8994  0.9120  0.8729
  175SOPE  C31519953   4.454  -0.053   8.192  0.0761 -0.2468 -0.1086
  175SOPE  H15X19954   4.467   0.056   8.206  2.2183 -0.5598  0.4501
  175SOPE  H15Y19955   4.393  -0.084   8.280 -1.1572 -0.1852 -0.9390
  175SOPE  C31619956   4.381  -0.097   8.063  0.0122  0.6446  0.3006
  175SOPE  H16X19957   4.364  -0.206   8.059  1.5336  0.4213 -0.2510
  175SOPE  H16Y19958   4.436  -0.075   7.969  1.0952 -0.7738  0.5851
  175SOPE  C31719959   4.244  -0.030   8.056 -0.3566  0.4464  0.3332
  175SOPE  H17X19960   4.263   0.075   8.089  1.6064 -0.3934  2.0125
  175SOPE  H17Y19961   4.181  -0.079   8.133 -0.5415  1.5278  0.8937
  175SOPE  C31819962   4.189  -0.042   7.904 -0.4698  0.4523 -0.6059
  175SOPE  H18X19963   4.079  -0.041   7.914 -0.3864 -2.0584  1.3050
  175SOPE  H18Y19964   4.216  -0.137   7.852 -2.8206 -0.9126  0.5577
  175SOPE  H18Z19965   4.224   0.038   7.836  1.3475 -0.6522 -1.0314
  176SOPE     N19966   4.987   6.572  10.545  0.1668 -0.0444  0.0840
  176SOPE   HN119967   5.012   6.485  10.596 -0.2238 -0.0091  0.3399
  176SOPE   HN219968   5.060   6.602  10.478 -0.6783  0.7122 -0.5269
  176SOPE   HN319969   5.000   6.635  10.627  3.5637  0.2266 -0.6278
  176SOPE   C1219970   4.851   6.582  10.479  0.4690 -0.1704 -0.0076
  176SOPE  H12A19971   4.860   6.514  10.392 -0.4702  0.3676 -0.5368
  176SOPE  H12B19972   4.834   6.690  10.460 -2.3942 -0.3217  1.4979
  176SOPE   C1119973   4.739   6.539  10.579 -0.0350 -0.0765  0.3711
  176SOPE  H11A19974   4.643   6.563  10.528 -1.5250 -0.6624  2.7737
  176SOPE  H11B19975   4.745   6.602  10.671 -2.1679  1.8973 -0.7658
  176SOPE     P19976   4.641   6.322  10.700 -0.0404  0.0407 -0.1577
  176SOPE   O1319977   4.641   6.373  10.838  0.0630  0.4028  0.0749
  176SOPE   O1419978   4.651   6.182  10.686 -0.7074  0.1091 -0.1059
  176SOPE   O1219979   4.749   6.399  10.611 -0.2034  0.0952  0.2806
  176SOPE   O1119980   4.499   6.360  10.634  0.0558 -0.5811 -0.1094
  176SOPE    C119981   4.462   6.318  10.502 -0.1440  0.2550 -0.0412
  176SOPE    HA19982   4.542   6.357  10.435  1.5070 -1.0709  1.1366
  176SOPE    HB19983   4.371   6.374  10.471  0.1962  1.4547  1.0718
  176SOPE    C219984   4.433   6.168  10.491  0.5543  0.6678 -0.6851
  176SOPE    HS19985   4.524   6.105  10.481 -0.5314 -1.0713  0.0917
  176SOPE   O2119986   4.347   6.162  10.376 -0.6763  0.3275 -0.4490
  176SOPE   C2119987   4.415   6.168  10.264 -0.0976 -0.2586  0.7596
  176SOPE   O2219988   4.538   6.168  10.256 -0.6923  0.0146  0.0890
  176SOPE   C2219989   4.317   6.208  10.152 -0.1441  0.3721 -0.8335
  176SOPE   H2R19990   4.310   6.319  10.147 -0.8735  0.3265 -0.7756
  176SOPE   H2S19991   4.216   6.169  10.176 -0.4589  1.3899 -0.4398
  176SOPE    C319992   4.361   6.122  10.613 -0.9027 -0.7497 -0.1957
  176SOPE    HX19993   4.269   6.181  10.633  1.2116  2.9606 -0.9254
  176SOPE    HY19994   4.417   6.138  10.708 -0.4825 -3.3441  0.0116
  176SOPE   O3119995   4.336   5.980  10.591  0.3118  0.0923 -0.6872
  176SOPE   C3119996   4.211   5.927  10.581  0.2749  0.0068  0.0812
  176SOPE   O3219997   4.107   5.989  10.586 -0.6579 -0.4705  0.5269
  176SOPE   C3219998   4.222   5.776  10.543 -0.2894  0.1851  0.3562
  176SOPE   H2X19999   4.230   5.711  10.633  0.6578  2.3688  1.8900
  176SOPE   H2Y20000   4.317   5.764  10.486 -0.2758 -0.9722  0.6033
  176SOPE   C2320001   4.358   6.148  10.021  1.0095 -0.6561 -0.9881
  176SOPE   H3R20002   4.360   6.038  10.030 -3.5045 -0.7462  0.2805
  176SOPE   H3S20003   4.454   6.195   9.992  1.8409 -0.1041  2.4742
  176SOPE   C2420004   4.255   6.167   9.906  0.7258 -0.1764 -0.2968
  176SOPE   H4R20005   4.157   6.123   9.934  0.9750 -1.4739 -1.3769
  176SOPE   H4S20006   4.239   6.275   9.885  0.2165 -0.4225 -1.1756
  176SOPE   C2520007   4.306   6.103   9.772  0.2244  0.2781  0.3037
  176SOPE   H5R20008   4.389   6.169   9.739  0.1180  0.5190  0.5248
  176SOPE   H5S20009   4.341   5.998   9.782  1.2211  0.5645 -0.0893
  176SOPE   C2620010   4.212   6.105   9.658  0.4493  0.1974  0.8282
  176SOPE   H6R20011   4.142   6.018   9.658 -0.6127  1.0433  1.0576
  176SOPE   H6S20012   4.143   6.192   9.661 -1.2916 -1.0066 -1.8981
  176SOPE   C2720013   4.284   6.107   9.521 -0.4866 -0.1310  0.1124
  176SOPE   H7R20014   4.342   6.198   9.497  0.9287 -1.2587 -0.8138
  176SOPE   H7S20015   4.364   6.030   9.530 -1.0521 -0.7192  0.1716
  176SOPE   C2820016   4.201   6.069   9.390  0.4623 -0.5058  0.0891
  176SOPE   H8R20017   4.163   5.964   9.390  0.8014 -0.6348 -1.1768
  176SOPE   H8S20018   4.114   6.136   9.374  1.1669  1.0991  2.6108
  176SOPE   C2920019   4.281   6.067   9.265 -0.9094 -0.0088 -0.3432
  176SOPE   H9120020   4.386   6.039   9.282 -1.0363 -0.6010 -0.5487
  176SOPE  C21020021   4.242   6.088   9.140 -0.3403 -0.5487 -0.0194
  176SOPE  H10120022   4.313   6.071   9.058 -1.0437 -0.2245 -0.6988
  176SOPE  C21120023   4.106   6.126   9.080 -0.4903 -0.4389 -0.4579
  176SOPE  H11R20024   4.103   6.235   9.060 -0.2944 -0.0982  1.2995
  176SOPE  H11S20025   4.024   6.106   9.153  1.7347 -1.7584  1.7413
  176SOPE  C21220026   4.079   6.074   8.935  0.2223  0.3139  0.4319
  176SOPE  H12R20027   4.140   5.985   8.912  0.9948  0.4496  1.8633
  176SOPE  H12S20028   4.124   6.146   8.864 -1.3438 -1.1053 -2.0518
  176SOPE  C21320029   3.929   6.060   8.905 -0.5349 -0.4887  0.3041
  176SOPE  H13R20030   3.872   6.156   8.906 -1.5889 -1.1040  0.1051
  176SOPE  H13S20031   3.893   6.005   8.995 -0.6304 -0.9801 -0.0402
  176SOPE  C21420032   3.901   6.002   8.765 -0.3996  0.6817 -0.5933
  176SOPE  H14R20033   3.939   5.901   8.739 -3.3772 -0.4077 -0.8833
  176SOPE  H14S20034   3.950   6.068   8.690  2.0280  0.2190  0.5210
  176SOPE  C21520035   3.752   6.005   8.740  0.1991  0.7312 -0.1708
  176SOPE  H15R20036   3.711   6.106   8.760  0.7196  0.5687  1.8018
  176SOPE  H15S20037   3.701   5.944   8.817  1.1642 -0.5905 -0.5486
  176SOPE  C21620038   3.723   5.962   8.596  0.5376 -0.0025  0.2583
  176SOPE  H16R20039   3.732   5.851   8.591 -2.3274 -0.3789  2.3250
  176SOPE  H16S20040   3.787   6.012   8.520 -2.7824  2.0382 -1.2924
  176SOPE  C21720041   3.580   5.990   8.549  0.5769  0.1552 -0.3298
  176SOPE  H17R20042   3.499   5.940   8.607  0.2514  0.2793 -0.6776
  176SOPE  H17S20043   3.570   5.951   8.446  0.9149  3.5945 -1.7233
  176SOPE  C21820044   3.549   6.142   8.556  0.2263  0.5202  0.5735
  176SOPE  H18R20045   3.557   6.172   8.662  1.4405  0.3245  0.5430
  176SOPE  H18S20046   3.449   6.168   8.514  0.4093  0.0747 -0.1519
  176SOPE  H18T20047   3.629   6.192   8.498  0.8764 -1.3550 -0.1857
  176SOPE   C3320048   4.106   5.725  10.450 -0.3260  0.1302  0.4407
  176SOPE   H3X20049   4.008   5.774  10.471 -0.9804 -0.8350 -0.2894
  176SOPE   H3Y20050   4.092   5.615  10.455  0.0784  0.0325 -0.4740
  176SOPE   C3420051   4.134   5.762  10.314 -0.3054  0.5318  0.6619
  176SOPE   H4X20052   4.219   5.704  10.275 -0.2503  1.5180 -0.6953
  176SOPE   H4Y20053   4.167   5.868  10.308 -4.0312  1.7304 -0.1784
  176SOPE   C3520054   4.019   5.762  10.213  0.0237 -0.4386  0.2963
  176SOPE   H5X20055   4.031   5.821  10.120  0.8944  0.2646  0.8456
  176SOPE   H5Y20056   3.939   5.811  10.273  2.1114  1.9054  1.2716
  176SOPE   C3620057   3.974   5.616  10.174  0.6105 -0.1746  0.1976
  176SOPE   H6X20058   3.974   5.546  10.260  0.6807 -1.0319 -0.4904
  176SOPE   H6Y20059   4.046   5.576  10.099  2.7588  0.8352  1.6604
  176SOPE   C3720060   3.833   5.618  10.115 -0.0214  0.4722  0.8822
  176SOPE   H7X20061   3.826   5.712  10.057  0.6960 -0.2043 -0.3164
  176SOPE   H7Y20062   3.763   5.637  10.200 -1.6425 -1.5983  0.0571
  176SOPE   C3820063   3.786   5.504  10.027 -0.0778 -0.2071 -0.1471
  176SOPE   H8X20064   3.676   5.508  10.014 -0.2821 -2.1301  0.8327
  176SOPE   H8Y20065   3.810   5.414  10.087  0.8010 -0.9175 -1.5507
  176SOPE   C3920066   3.844   5.506   9.888 -0.3284 -0.0902 -0.1038
  176SOPE   H9X20067   3.955   5.499   9.895 -0.2122 -0.1762 -1.7993
  176SOPE   H9Y20068   3.812   5.605   9.850 -0.8160 -0.1810  0.0678
  176SOPE  C31020069   3.783   5.405   9.794  0.0222  0.7140 -0.1424
  176SOPE  H10X20070   3.673   5.412   9.807  0.0050 -1.4605  0.9895
  176SOPE  H10Y20071   3.812   5.299   9.810  0.7714  0.8225 -0.7167
  176SOPE  C31120072   3.806   5.447   9.644  0.2418 -0.7381 -0.0949
  176SOPE  H11X20073   3.916   5.459   9.634  0.6418 -2.5964  1.8188
  176SOPE  H11Y20074   3.751   5.542   9.629  0.0890 -0.4703  2.0090
  176SOPE  C31220075   3.758   5.354   9.537  0.3249 -0.2514  0.2244
  176SOPE  H12X20076   3.649   5.363   9.521 -0.1496  0.0944  3.3532
  176SOPE  H12Y20077   3.773   5.252   9.580 -1.5328 -0.7841 -0.3827
  176SOPE  C31320078   3.821   5.371   9.400 -0.0555  0.2957  0.2775
  176SOPE  H13X20079   3.784   5.281   9.345  1.6439  0.4857 -1.2277
  176SOPE  H13Y20080   3.931   5.383   9.409 -0.0346  1.1139 -0.8702
  176SOPE  C31420081   3.768   5.487   9.325  0.3575 -0.6635 -0.4879
  176SOPE  H14X20082   3.810   5.583   9.364 -0.0962 -1.4064  1.8922
  176SOPE  H14Y20083   3.662   5.504   9.355  1.0091 -0.8270  1.9525
  176SOPE  C31520084   3.771   5.467   9.172  0.3243 -0.1412 -0.5832
  176SOPE  H15X20085   3.704   5.542   9.125  0.8961  0.4681 -0.4449
  176SOPE  H15Y20086   3.737   5.366   9.143  1.9310 -1.0327  0.5804
  176SOPE  C31620087   3.909   5.490   9.111  0.1511 -0.0130 -0.2109
  176SOPE  H16X20088   3.981   5.415   9.149  0.2276 -0.0931 -0.5147
  176SOPE  H16Y20089   3.957   5.584   9.145  3.2665 -1.6534  0.0344
  176SOPE  C31720090   3.903   5.477   8.954 -0.6907  0.2013  0.0310
  176SOPE  H17X20091   3.833   5.396   8.924  0.3646 -0.6430 -0.1849
  176SOPE  H17Y20092   3.999   5.436   8.917 -1.2421 -0.8759 -0.2472
  176SOPE  C31820093   3.873   5.603   8.871  0.1965  0.7347  0.5303
  176SOPE  H18X20094   3.769   5.633   8.899  0.4705  1.1620  1.1173
  176SOPE  H18Y20095   3.881   5.581   8.763  1.1988  2.8664  0.1491
  176SOPE  H18Z20096   3.942   5.688   8.893  0.0876  1.4874 -1.9418
  177SOPE     N20097   4.042   3.760  11.126 -0.5389  0.0905 -0.7704
  177SOPE   HN120098   4.010   3.738  11.030 -1.5906 -1.2732 -0.1183
  177SOPE   HN220099   4.087   3.853  11.133  3.7188 -1.7952 -0.9596
  177SOPE   HN320100   4.123   3.701  11.155 -1.6892 -1.4329 -0.5464
  177SOPE   C1220101   3.920   3.759  11.216 -0.3912 -0.2879 -0.0733
  177SOPE  H12A20102   3.960   3.781  11.317 -3.0490  3.1719  0.3035
  177SOPE  H12B20103   3.884   3.654  11.224  0.3493 -0.5550 -0.1842
  177SOPE   C1120104   3.812   3.851  11.156  0.0688  1.0142  0.1575
  177SOPE  H11A20105   3.732   3.860  11.232  0.2636  2.1287  0.2364
  177SOPE  H11B20106   3.771   3.792  11.071 -0.0850 -0.2847  1.1177
  177SOPE     P20107   3.766   4.072  11.030  0.0579 -0.0426  0.2459
  177SOPE   O1320108   3.820   4.206  11.003 -0.2826 -0.4616 -0.0054
  177SOPE   O1420109   3.626   4.056  11.080  0.5615  0.1581  0.3617
  177SOPE   O1220110   3.857   3.987  11.131  0.3146  0.0053  0.0893
  177SOPE   O1120111   3.777   3.987  10.902 -0.0792 -0.5551 -0.0960
  177SOPE    C120112   3.894   3.943  10.834 -0.3842  0.1530 -0.0065
  177SOPE    HA20113   3.896   3.832  10.837  0.0325  0.2000  1.7628
  177SOPE    HB20114   3.990   3.978  10.876  0.6099  2.1059 -3.6800
  177SOPE    C220115   3.889   3.963  10.681 -0.8256 -0.7321  0.7660
  177SOPE    HS20116   3.989   3.940  10.639 -0.7714 -1.4581  1.2828
  177SOPE   O2120117   3.845   4.091  10.639  0.4408 -0.4893  0.3372
  177SOPE   C2120118   3.922   4.190  10.680 -0.5801 -0.1200  0.3715
  177SOPE   O2220119   4.034   4.190  10.716  0.5530 -0.5201  0.7006
  177SOPE   C2220120   3.840   4.316  10.684 -0.5493  0.2039  0.1406
  177SOPE   H2R20121   3.904   4.403  10.711 -1.1422  0.2220  1.5510
  177SOPE   H2S20122   3.772   4.300  10.770  0.5107 -1.9964  0.6211
  177SOPE    C320123   3.781   3.871  10.616 -0.2312  0.6571  0.1703
  177SOPE    HX20124   3.681   3.904  10.651 -0.1633  0.6601  0.3601
  177SOPE    HY20125   3.793   3.768  10.658  1.9159  1.0156  0.5219
  177SOPE   O3120126   3.788   3.848  10.473  0.0328 -0.3974 -0.5064
  177SOPE   C3120127   3.738   3.943  10.399  0.3838 -0.3298  0.0943
  177SOPE   O3220128   3.669   4.035  10.440 -0.1265 -0.9999  0.0546
  177SOPE   C3220129   3.781   3.920  10.258  0.7934  0.0379 -0.0381
  177SOPE   H2X20130   3.723   3.831  10.229  1.4843 -0.3505 -0.2412
  177SOPE   H2Y20131   3.888   3.893  10.247  0.9967  0.1311  1.6068
  177SOPE   C2320132   3.746   4.354  10.566 -0.2613 -0.0344  0.3661
  177SOPE   H3R20133   3.664   4.419  10.604  0.7257  0.8776  0.9360
  177SOPE   H3S20134   3.693   4.262  10.531  1.6010 -0.8217 -0.4411
  177SOPE   C2420135   3.813   4.428  10.455 -0.5842 -0.5696 -0.5011
  177SOPE   H4R20136   3.850   4.525  10.495 -1.0303 -1.8491  3.1788
  177SOPE   H4S20137   3.893   4.365  10.410  0.7624  0.7296  0.0265
  177SOPE   C2520138   3.726   4.456  10.336 -0.5741 -0.3320  0.5147
  177SOPE   H5R20139   3.712   4.364  10.274 -1.6660 -0.1545  0.4956
  177SOPE   H5S20140   3.626   4.497  10.360 -1.3721 -0.0597 -3.0018
  177SOPE   C2620141   3.787   4.563  10.248 -0.0873 -0.3696 -0.1163
  177SOPE   H6R20142   3.794   4.665  10.293  1.4469 -0.6876  0.3770
  177SOPE   H6S20143   3.888   4.530  10.216 -1.1298 -2.6795 -1.0738
  177SOPE   C2720144   3.705   4.579  10.119 -1.1084  0.5145 -0.3091
  177SOPE   H7R20145   3.708   4.479  10.071  0.0360  0.0115  0.7725
  177SOPE   H7S20146   3.599   4.607  10.133 -1.3368  0.0978 -1.2005
  177SOPE   C2820147   3.769   4.692  10.028  0.2729 -0.6061  0.8016
  177SOPE   H8R20148   3.876   4.663  10.039  0.0407 -1.2237  1.4384
  177SOPE   H8S20149   3.745   4.675   9.921 -0.8940 -2.7815  1.3762
  177SOPE   C2920150   3.761   4.843  10.072 -0.0065 -0.2160 -0.3233
  177SOPE   H9120151   3.818   4.859  10.165  0.3280 -0.8467 -0.4188
  177SOPE  C21020152   3.703   4.949  10.012  0.0583  0.9271 -0.4733
  177SOPE  H10120153   3.685   5.047  10.061  0.3690 -0.8327  3.3711
  177SOPE  C21120154   3.633   4.935   9.883 -0.6174 -0.3979  0.5086
  177SOPE  H11R20155   3.525   4.959   9.883 -0.3036  1.0224  0.1479
  177SOPE  H11S20156   3.634   4.830   9.847  0.8284 -0.5819  1.0331
  177SOPE  C21220157   3.698   5.014   9.763  0.6186  0.3368  0.0269
  177SOPE  H12R20158   3.809   5.009   9.770  0.6023 -2.5303 -0.9198
  177SOPE  H12S20159   3.677   5.122   9.772 -2.6251 -0.3255  1.1729
  177SOPE  C21320160   3.660   4.966   9.617 -0.3263  0.6632  0.1379
  177SOPE  H13R20161   3.693   4.865   9.587 -0.8376  1.2629 -2.5737
  177SOPE  H13S20162   3.717   5.027   9.543 -0.4919 -1.0635 -1.4321
  177SOPE  C21420163   3.506   4.983   9.603  0.9105  0.1215  0.6052
  177SOPE  H14R20164   3.482   5.075   9.661  0.3331  2.1098 -2.6670
  177SOPE  H14S20165   3.452   4.893   9.640  0.1466  0.0248 -0.7122
  177SOPE  C21520166   3.469   5.009   9.457  0.0906 -0.4591  0.5788
  177SOPE  H15R20167   3.535   5.086   9.411 -3.2296  2.8016  1.0779
  177SOPE  H15S20168   3.362   5.037   9.467  0.6341  1.9074  0.0949
  177SOPE  C21620169   3.477   4.882   9.370 -0.0015  0.5826 -0.3704
  177SOPE  H16R20170   3.451   4.792   9.429  1.2706  0.9190  0.7284
  177SOPE  H16S20171   3.583   4.870   9.338 -0.1438 -0.1800 -0.5646
  177SOPE  C21720172   3.381   4.896   9.249  0.4254  0.0849 -0.3988
  177SOPE  H17R20173   3.410   4.991   9.199 -1.7666  1.4782  0.9230
  177SOPE  H17S20174   3.276   4.904   9.284  0.1965 -2.6765 -0.3189
  177SOPE  C21820175   3.377   4.782   9.148 -0.3628  0.3357 -0.0572
  177SOPE  H18R20176   3.339   4.687   9.192  1.9816 -0.4970  0.2454
  177SOPE  H18S20177   3.481   4.767   9.113  0.0351  2.0162  0.3945
  177SOPE  H18T20178   3.313   4.806   9.061 -1.3358  0.3569  0.6546
  177SOPE   C3320179   3.765   4.039  10.169 -0.2207 -0.7396  0.6357
  177SOPE   H3X20180   3.821   4.127  10.206 -0.8073  0.2320 -0.7363
  177SOPE   H3Y20181   3.659   4.073  10.166 -0.2811 -0.9394  0.4741
  177SOPE   C3420182   3.814   4.013  10.028  0.3082 -0.3030 -0.1627
  177SOPE   H4X20183   3.745   3.947   9.973  0.7742 -1.0657  0.1610
  177SOPE   H4Y20184   3.909   3.956  10.025  0.7276  0.2807  1.2714
  177SOPE   C3520185   3.846   4.141   9.947  0.2228  0.2462  0.4594
  177SOPE   H5X20186   3.931   4.193   9.996 -0.8291  1.8165  0.6333
  177SOPE   H5Y20187   3.763   4.214   9.949  0.1067  0.0812  3.1072
  177SOPE   C3620188   3.881   4.111   9.801  0.3374  0.6921  0.0373
  177SOPE   H6X20189   3.786   4.076   9.755 -0.9100  0.8939  2.3843
  177SOPE   H6Y20190   3.962   4.035   9.802  1.5701  1.9623 -0.8082
  177SOPE   C3720191   3.939   4.228   9.721  0.0823  0.5605  0.0774
  177SOPE   H7X20192   4.028   4.269   9.772 -0.5736  0.7891  1.0571
  177SOPE   H7Y20193   3.861   4.306   9.708 -0.6484 -0.4104 -1.5844
  177SOPE   C3820194   3.999   4.177   9.592 -0.1366 -0.5579 -0.0869
  177SOPE   H8X20195   4.068   4.093   9.617  0.5081 -0.2835 -0.9164
  177SOPE   H8Y20196   4.062   4.253   9.541 -0.5155 -0.7139 -0.8039
  177SOPE   C3920197   3.887   4.138   9.485 -0.2445  0.1969  0.6043
  177SOPE   H9X20198   3.825   4.229   9.469  0.3019  0.3947 -0.4560
  177SOPE   H9Y20199   3.821   4.061   9.532  0.2944 -1.1494 -0.7676
  177SOPE  C31020200   3.934   4.085   9.354  0.0776  0.0137 -0.1808
  177SOPE  H10X20201   3.844   4.068   9.291 -2.1330  1.3452  2.5263
  177SOPE  H10Y20202   3.978   3.983   9.356  2.2708  0.8670 -2.1697
  177SOPE  C31120203   4.043   4.169   9.277  0.4239  0.4654  0.3905
  177SOPE  H11X20204   4.145   4.131   9.296  0.8338  0.8899 -0.8883
  177SOPE  H11Y20205   4.037   4.271   9.322  2.0771  0.3860  0.8010
  177SOPE  C31220206   4.016   4.174   9.124  0.2825  0.5487  0.6975
  177SOPE  H12X20207   3.919   4.226   9.120  1.1187  2.0664 -0.3608
  177SOPE  H12Y20208   4.010   4.069   9.086  0.0395  0.4700  0.9595
  177SOPE  C31320209   4.121   4.255   9.049 -0.2307  0.2190 -1.0623
  177SOPE  H13X20210   4.227   4.228   9.066  0.4911  3.4888 -0.0756
  177SOPE  H13Y20211   4.110   4.355   9.095 -0.4650 -0.3799  0.1839
  177SOPE  C31420212   4.105   4.271   8.899 -0.1600  0.0377 -0.3470
  177SOPE  H14X20213   4.007   4.318   8.878 -0.2136 -0.5777 -1.5548
  177SOPE  H14Y20214   4.106   4.168   8.856  1.2956 -0.2744  0.4008
  177SOPE  C31520215   4.216   4.367   8.841  0.4010  0.0994 -0.2610
  177SOPE  H15X20216   4.317   4.321   8.847  0.5169  0.1451 -1.6970
  177SOPE  H15Y20217   4.221   4.459   8.904  0.0463  0.1922 -0.3656
  177SOPE  C31620218   4.182   4.420   8.701  0.1502  0.5660 -0.2739
  177SOPE  H16X20219   4.237   4.514   8.678  2.8926 -0.8518  0.2544
  177SOPE  H16Y20220   4.075   4.448   8.690  0.1579  0.4956 -0.5084
  177SOPE  C31720221   4.226   4.324   8.593  0.1183 -0.2442  0.8891
  177SOPE  H17X20222   4.212   4.385   8.502 -0.4809  0.0521  1.1795
  177SOPE  H17Y20223   4.170   4.228   8.594 -1.2347  0.5217 -0.2318
  177SOPE  C31820224   4.376   4.305   8.603  0.1659  0.0100  0.0835
  177SOPE  H18X20225   4.418   4.273   8.505  1.2341  1.6899 -0.0188
  177SOPE  H18Y20226   4.396   4.224   8.676 -0.3185  0.4004  0.6520
  177SOPE  H18Z20227   4.423   4.400   8.635 -1.7369  0.0619  2.9247
  178SOPE     N20228   1.374   2.722  10.855 -0.2009 -0.2762  0.3380
  178SOPE   HN120229   1.403   2.665  10.937 -2.9771 -1.6553  0.4257
  178SOPE   HN220230   1.421   2.814  10.864  0.8386 -0.7741  0.1206
  178SOPE   HN320231   1.274   2.739  10.880  0.2118  0.1000  1.7432
  178SOPE   C1220232   1.385   2.655  10.721 -0.0979  0.2231  0.7428
  178SOPE  H12A20233   1.492   2.646  10.695 -0.8382 -0.0591 -2.4206
  178SOPE  H12B20234   1.337   2.720  10.645  2.4819  2.0938  0.6505
  178SOPE   C1120235   1.329   2.509  10.733  0.3382 -0.7292  0.0857
  178SOPE  H11A20236   1.396   2.448  10.797 -0.5112 -0.5810  1.1286
  178SOPE  H11B20237   1.331   2.468  10.629 -0.7862 -2.3358  0.6797
  178SOPE     P20238   1.126   2.383  10.811 -0.2152  0.4233 -0.2806
  178SOPE   O1320239   0.983   2.389  10.764  0.6274  0.5915 -0.1504
  178SOPE   O1420240   1.152   2.349  10.954  0.1376  0.1320 -0.4515
  178SOPE   O1220241   1.194   2.516  10.780  0.2154 -0.1055  0.2279
  178SOPE   O1120242   1.210   2.279  10.723 -0.1092 -0.1942  0.2562
  178SOPE    C120243   1.146   2.210  10.612  0.4160 -0.9573 -0.1039
  178SOPE    HA20244   1.035   2.202  10.618  0.1866  1.5292 -0.7993
  178SOPE    HB20245   1.191   2.109  10.596  0.7115 -0.7741 -0.4293
  178SOPE    C220246   1.171   2.290  10.476 -0.0743 -0.3554  0.0452
  178SOPE    HS20247   1.127   2.228  10.394 -1.4574  0.1518  0.3902
  178SOPE   O2120248   1.308   2.319  10.456  0.2103  0.4853  0.5126
  178SOPE   C2120249   1.378   2.218  10.413 -0.1017  0.0030  0.6758
  178SOPE   O2220250   1.334   2.102  10.396 -0.0823 -0.5810 -0.4004
  178SOPE   C2220251   1.526   2.262  10.386 -0.2189 -0.3850  0.4922
  178SOPE   H2R20252   1.559   2.307  10.482  1.4688 -0.4530 -0.0464
  178SOPE   H2S20253   1.519   2.346  10.314 -0.9154  0.3769  1.4274
  178SOPE    C320254   1.092   2.426  10.468 -0.4324 -0.2086 -0.0278
  178SOPE    HX20255   1.147   2.503  10.527  2.1771 -1.4822 -0.7096
  178SOPE    HY20256   0.989   2.407  10.502 -0.1862  0.5759  1.1856
  178SOPE   O3120257   1.074   2.452  10.323  0.2421 -0.1970 -0.2452
  178SOPE   C3120258   1.156   2.552  10.281  0.2775  1.0407  0.2405
  178SOPE   O3220259   1.215   2.630  10.354 -0.1454  0.1616 -0.2767
  178SOPE   C3220260   1.176   2.542  10.131  0.4873  0.4153  0.1512
  178SOPE   H2X20261   1.194   2.647  10.099 -1.1765  0.5282 -0.4893
  178SOPE   H2Y20262   1.084   2.496  10.090 -0.6441  1.6088  1.2596
  178SOPE   C2320263   1.613   2.145  10.333  0.0127  0.1039  0.1495
  178SOPE   H3R20264   1.578   2.049  10.377 -1.8324  1.1231  0.9983
  178SOPE   H3S20265   1.718   2.156  10.367 -0.6120  0.3224  2.0949
  178SOPE   C2420266   1.601   2.132  10.183  0.5451  0.3234  0.5319
  178SOPE   H4R20267   1.497   2.103  10.160  0.7305  0.2551 -0.2301
  178SOPE   H4S20268   1.629   2.228  10.134 -1.3694 -1.0546 -3.4280
  178SOPE   C2520269   1.701   2.033  10.130  0.3877 -0.2853  0.1931
  178SOPE   H5R20270   1.804   2.063  10.162 -0.3681  4.6520 -1.5939
  178SOPE   H5S20271   1.685   1.932  10.173  0.5818  0.6817  2.6369
  178SOPE   C2620272   1.677   2.018   9.980  0.5933 -0.0386  0.2528
  178SOPE   H6R20273   1.580   1.969   9.958  0.8415 -1.8832  3.0879
  178SOPE   H6S20274   1.681   2.117   9.929 -3.0689 -0.4273 -0.9382
  178SOPE   C2720275   1.783   1.921   9.931  0.4119 -0.2772  0.0125
  178SOPE   H7R20276   1.887   1.944   9.966 -0.6796  1.2206  2.4254
  178SOPE   H7S20277   1.748   1.828   9.979  0.7601 -1.7911 -2.5743
  178SOPE   C2820278   1.781   1.925   9.782  0.2907  0.6388  0.2619
  178SOPE   H8R20279   1.682   1.947   9.738  0.4262  0.9745  0.1236
  178SOPE   H8S20280   1.848   2.010   9.757 -1.2222  2.4546  2.2054
  178SOPE   C2920281   1.822   1.792   9.721  0.5958 -0.5164 -0.0185
  178SOPE   H9120282   1.825   1.711   9.795 -1.1506  0.9839  1.7630
  178SOPE  C21020283   1.849   1.763   9.592 -0.6240 -0.9672  0.1432
  178SOPE  H10120284   1.887   1.666   9.559  0.6560 -0.0813 -1.0332
  178SOPE  C21120285   1.858   1.864   9.477  0.6367 -0.3559 -0.2076
  178SOPE  H11R20286   1.837   1.966   9.515  0.9070 -0.7680  1.0627
  178SOPE  H11S20287   1.778   1.844   9.403  0.4072  0.2027 -0.1105
  178SOPE  C21220288   1.989   1.888   9.400 -0.3512 -0.2627 -0.4274
  178SOPE  H12R20289   2.035   1.790   9.377 -0.6661 -0.4392 -0.3019
  178SOPE  H12S20290   2.059   1.936   9.471 -0.2217 -1.4659  0.2680
  178SOPE  C21320291   1.967   1.967   9.274 -0.8308 -0.2070  0.3203
  178SOPE  H13R20292   1.921   2.067   9.288  2.0014  1.1680  0.0923
  178SOPE  H13S20293   1.897   1.912   9.208 -0.0594 -0.6585 -0.1194
  178SOPE  C21420294   2.098   1.982   9.188  0.6792  0.4242 -0.6590
  178SOPE  H14R20295   2.133   1.882   9.154 -0.2182 -0.6328  1.4231
  178SOPE  H14S20296   2.173   2.026   9.258  2.6747  0.6812 -2.8868
  178SOPE  C21520297   2.074   2.069   9.070  0.3392  0.4777  0.0800
  178SOPE  H15R20298   2.022   2.165   9.090 -1.1099 -0.5972  1.5847
  178SOPE  H15S20299   2.003   2.020   9.000 -0.6489 -1.4651  2.3812
  178SOPE  C21620300   2.207   2.112   9.003 -0.8157 -0.5409  0.5045
  178SOPE  H16R20301   2.256   2.014   8.987  0.1635 -0.3032  1.9293
  178SOPE  H16S20302   2.261   2.178   9.075  1.8626  0.1101 -2.0398
  178SOPE  C21720303   2.177   2.200   8.879 -0.9091  0.5146 -0.2853
  178SOPE  H17R20304   2.133   2.295   8.918 -2.0247  0.6267 -1.7817
  178SOPE  H17S20305   2.100   2.143   8.823 -1.6329 -0.9451  2.1050
  178SOPE  C21820306   2.302   2.212   8.786  0.1106  0.2700 -0.3846
  178SOPE  H18R20307   2.378   2.272   8.840  0.4057 -0.0348 -0.4532
  178SOPE  H18S20308   2.273   2.256   8.688  0.0104  0.2848 -0.3485
  178SOPE  H18T20309   2.335   2.107   8.769  0.9689  0.5436 -0.4223
  178SOPE   C3320310   1.304   2.466  10.098  0.0559 -0.0795 -0.4455
  178SOPE   H3X20311   1.295   2.363  10.138 -1.6791  0.3064  0.2179
  178SOPE   H3Y20312   1.393   2.510  10.148 -0.0211  0.5230 -0.8349
  178SOPE   C3420313   1.314   2.479   9.941  0.7805  0.2108 -0.1159
  178SOPE   H4X20314   1.289   2.584   9.915  0.7022  0.3347  0.4619
  178SOPE   H4Y20315   1.236   2.420   9.889  0.7917  1.1183 -1.1837
  178SOPE   C3520316   1.458   2.448   9.886  0.8512  0.0625 -0.3421
  178SOPE   H5X20317   1.483   2.344   9.915 -0.6110 -0.4092 -0.7533
  178SOPE   H5Y20318   1.519   2.518   9.948  1.0244  1.0139 -1.5737
  178SOPE   C3620319   1.485   2.483   9.739  0.0263 -0.0017  0.7324
  178SOPE   H6X20320   1.454   2.588   9.724 -1.0475 -0.6035 -1.3919
  178SOPE   H6Y20321   1.417   2.426   9.672  3.1145 -3.0204 -0.0005
  178SOPE   C3720322   1.632   2.455   9.690  0.6821 -0.0656  0.9780
  178SOPE   H7X20323   1.648   2.349   9.717 -1.0628 -1.0131 -1.5245
  178SOPE   H7Y20324   1.710   2.508   9.748  0.8394 -1.2475  1.8587
  178SOPE   C3820325   1.631   2.465   9.533 -0.2810 -0.5525 -0.2224
  178SOPE   H8X20326   1.535   2.434   9.485 -2.0636  2.3120  1.3066
  178SOPE   H8Y20327   1.707   2.400   9.486 -0.0552 -0.6137  0.2284
  178SOPE   C3920328   1.643   2.609   9.482 -0.2527 -0.2483 -0.0495
  178SOPE   H9X20329   1.726   2.665   9.530  1.1048 -0.8595 -1.6172
  178SOPE   H9Y20330   1.551   2.669   9.496  1.2136  1.6945  1.5377
  178SOPE  C31020331   1.677   2.614   9.329  0.1180 -0.2929  0.4861
  178SOPE  H10X20332   1.590   2.576   9.272 -0.6635  2.3791 -0.1939
  178SOPE  H10Y20333   1.756   2.538   9.311  0.1934 -0.2218  0.5171
  178SOPE  C31120334   1.710   2.756   9.283  0.2376  0.1732  0.3844
  178SOPE  H11X20335   1.800   2.783   9.342 -0.3233  1.2392  0.7618
  178SOPE  H11Y20336   1.626   2.826   9.304  1.3268  1.5941  0.0959
  178SOPE  C31220337   1.746   2.755   9.134  0.9875  0.1302 -0.2286
  178SOPE  H12X20338   1.654   2.728   9.077  2.1053 -2.0892 -1.0490
  178SOPE  H12Y20339   1.810   2.667   9.113 -1.3040 -1.4034 -1.0111
  178SOPE  C31320340   1.817   2.882   9.094 -0.6130  0.6449 -0.4833
  178SOPE  H13X20341   1.902   2.900   9.164 -2.1132  1.6249  1.1081
  178SOPE  H13Y20342   1.741   2.959   9.115 -0.5147 -0.2428  3.6503
  178SOPE  C31420343   1.860   2.914   8.953  0.2739  0.0778 -0.5890
  178SOPE  H14X20344   1.937   2.837   8.932  1.0107  0.9616 -1.1797
  178SOPE  H14Y20345   1.906   3.015   8.964 -1.1896  0.4009  3.3299
  178SOPE  C31520346   1.754   2.911   8.844 -0.0696  0.3448 -0.1111
  178SOPE  H15X20347   1.693   3.000   8.874 -1.0353 -1.7239  4.5395
  178SOPE  H15Y20348   1.694   2.818   8.858  2.2809 -1.1514  0.1605
  178SOPE  C31620349   1.817   2.907   8.713 -0.5634 -0.0470 -0.4494
  178SOPE  H16X20350   1.744   2.887   8.631 -0.4346 -2.2172 -0.0689
  178SOPE  H16Y20351   1.875   2.812   8.712 -0.0508  0.2608 -0.0173
  178SOPE  C31720352   1.900   3.030   8.675  0.0152 -0.4451  0.4426
  178SOPE  H17X20353   1.988   3.046   8.741  2.4789  2.7365 -3.3615
  178SOPE  H17Y20354   1.829   3.114   8.688 -0.5409 -0.7901 -0.2695
  178SOPE  C31820355   1.949   3.040   8.530  0.3316  0.3535  0.7362
  178SOPE  H18X20356   2.002   2.943   8.520 -1.5301 -0.5382 -1.0056
  178SOPE  H18Y20357   2.017   3.126   8.518 -0.1178  0.8296  1.5567
  178SOPE  H18Z20358   1.878   3.050   8.445  0.7721 -0.5144  0.2543
  179SOPE     N20359   6.131   3.566   6.566  0.4651  0.0666  0.1992
  179SOPE   HN120360   6.034   3.569   6.601 -0.1846 -1.0532 -1.4351
  179SOPE   HN220361   6.125   3.586   6.464  1.9393  1.4592  0.3638
  179SOPE   HN320362   6.177   3.475   6.584  1.8483  1.1993  2.6653
  179SOPE   C1220363   6.216   3.660   6.651 -0.3187  0.4912 -0.0380
  179SOPE  H12A20364   6.306   3.673   6.588  0.7191  0.8223  1.4875
  179SOPE  H12B20365   6.241   3.618   6.750 -2.7340  0.7651  0.7310
  179SOPE   C1120366   6.129   3.786   6.676  0.1414 -0.3902  0.5172
  179SOPE  H11A20367   6.176   3.850   6.754 -1.5162  1.0488  0.3641
  179SOPE  H11B20368   6.028   3.759   6.715 -0.2747 -2.5542 -1.8746
  179SOPE     P20369   6.212   3.952   6.494  0.1724  0.3488 -0.6560
  179SOPE   O1320370   6.149   4.057   6.409 -0.1963  0.6615 -0.6403
  179SOPE   O1420371   6.320   3.870   6.434  0.7412 -0.0645  0.3707
  179SOPE   O1220372   6.103   3.854   6.555  0.1281 -0.0349  0.1931
  179SOPE   O1120373   6.275   4.027   6.615  0.5262 -0.2614  0.1487
  179SOPE    C120374   6.387   4.121   6.588  0.3975 -0.2142 -0.7562
  179SOPE    HA20375   6.367   4.199   6.512 -0.0717  0.1074 -0.2971
  179SOPE    HB20376   6.472   4.062   6.548 -0.1796 -1.8403  0.3691
  179SOPE    C220377   6.450   4.189   6.713 -0.4953  0.9086 -0.6030
  179SOPE    HS20378   6.548   4.235   6.687  1.1734 -1.6935  0.8221
  179SOPE   O2120379   6.475   4.087   6.806  0.3686 -0.2484 -0.2779
  179SOPE   C2120380   6.577   4.006   6.811  0.2755  0.2743  1.0733
  179SOPE   O2220381   6.683   4.023   6.756 -0.6377 -0.3438 -0.3466
  179SOPE   C2220382   6.549   3.896   6.910  0.0897  0.0594 -0.2995
  179SOPE   H2R20383   6.537   3.792   6.872 -1.0096 -0.4329  1.3087
  179SOPE   H2S20384   6.455   3.928   6.960  1.1647  0.2585  1.6500
  179SOPE    C320385   6.359   4.287   6.780  0.1034 -0.0389  0.2146
  179SOPE    HX20386   6.272   4.238   6.828 -0.5651  0.3584 -0.5920
  179SOPE    HY20387   6.327   4.367   6.709 -0.4600  0.0666  0.5844
  179SOPE   O3120388   6.434   4.358   6.887  0.1852  0.2726  0.0068
  179SOPE   C3120389   6.365   4.390   6.999 -0.7872 -0.5563 -0.0779
  179SOPE   O3220390   6.242   4.395   7.004  0.4324 -0.1057  1.0967
  179SOPE   C3220391   6.465   4.405   7.112 -0.4930  0.1199 -0.2093
  179SOPE   H2X20392   6.483   4.515   7.113 -0.8390  0.1750 -0.1016
  179SOPE   H2Y20393   6.562   4.358   7.085 -1.5558 -0.5651 -3.0114
  179SOPE   C2320394   6.646   3.890   7.035 -0.3826 -0.4136  0.5785
  179SOPE   H3R20395   6.673   3.992   7.073  1.4446 -0.7347  0.2002
  179SOPE   H3S20396   6.745   3.854   7.000  0.0402  2.1961 -1.0518
  179SOPE   C2420397   6.591   3.824   7.167  0.0779  0.3667  0.8236
  179SOPE   H4R20398   6.514   3.893   7.209 -0.1025  0.8968 -0.3689
  179SOPE   H4S20399   6.549   3.723   7.149  0.0197  0.3326  1.1383
  179SOPE   C2520400   6.696   3.807   7.273 -0.2563  0.8459  0.4809
  179SOPE   H5R20401   6.777   3.735   7.248 -1.5084 -0.4398  0.0420
  179SOPE   H5S20402   6.744   3.907   7.280 -1.3040  1.3757  0.3544
  179SOPE   C2620403   6.631   3.762   7.401  0.1809 -0.8675  0.9086
  179SOPE   H6R20404   6.558   3.842   7.428  0.3485 -0.5560  0.4485
  179SOPE   H6S20405   6.569   3.673   7.380 -1.5043  0.4726  0.0487
  179SOPE   C2720406   6.728   3.739   7.516 -0.0702  0.1409 -0.8773
  179SOPE   H7R20407   6.815   3.679   7.481  0.1839  1.4067 -2.4528
  179SOPE   H7S20408   6.762   3.837   7.553 -0.4519  0.6731 -1.9229
  179SOPE   C2820409   6.659   3.663   7.626 -0.0139 -0.5140  0.4896
  179SOPE   H8R20410   6.568   3.716   7.662 -0.6230 -0.5889 -0.9071
  179SOPE   H8S20411   6.610   3.576   7.578  1.5931 -2.1070  1.6780
  179SOPE   C2920412   6.754   3.626   7.736 -0.5404 -0.6967  0.0271
  179SOPE   H9120413   6.858   3.605   7.706 -0.5040  0.0320 -0.3615
  179SOPE  C21020414   6.723   3.625   7.865 -0.4130  0.2517  0.1650
  179SOPE  H10120415   6.796   3.598   7.943  2.9452  4.4804 -1.2920
  179SOPE  C21120416   6.591   3.655   7.931  0.3018 -0.7306 -0.2392
  179SOPE  H11R20417   6.548   3.555   7.955 -0.1178 -0.2181  1.2252
  179SOPE  H11S20418   6.520   3.696   7.856  0.4107 -2.1166 -1.1284
  179SOPE  C21220419   6.609   3.742   8.057  0.6274 -0.3859 -0.1921
  179SOPE  H12R20420   6.506   3.764   8.093  0.6096  0.6420 -0.8791
  179SOPE  H12S20421   6.652   3.842   8.034  1.9768 -0.2092  2.7802
  179SOPE  C21320422   6.685   3.670   8.167  0.4869 -0.9025 -0.1910
  179SOPE  H13R20423   6.795   3.672   8.155  0.3703 -0.0666 -1.1413
  179SOPE  H13S20424   6.663   3.561   8.158 -0.1930 -0.7843  0.0311
  179SOPE  C21420425   6.627   3.717   8.309  0.4515  0.3883 -0.1062
  179SOPE  H14R20426   6.620   3.827   8.325 -1.0719  0.4227 -0.9313
  179SOPE  H14S20427   6.709   3.690   8.379  0.5999  0.4839 -0.2424
  179SOPE  C21520428   6.493   3.651   8.358 -1.4701  1.0932 -0.0086
  179SOPE  H15R20429   6.489   3.543   8.336 -1.6737  0.6909  1.8715
  179SOPE  H15S20430   6.409   3.713   8.320 -3.0983  1.3297  3.7529
  179SOPE  C21620431   6.477   3.654   8.515 -0.2061 -0.9571  0.9616
  179SOPE  H16R20432   6.493   3.760   8.542 -1.0479 -0.9270  1.3560
  179SOPE  H16S20433   6.566   3.598   8.552 -1.0939 -2.0072  1.5590
  179SOPE  C21720434   6.349   3.602   8.573 -0.3462  0.4203  0.1585
  179SOPE  H17R20435   6.357   3.494   8.547 -1.1590 -0.1029  1.9856
  179SOPE  H17S20436   6.270   3.653   8.514 -1.0840 -0.4563  0.3651
  179SOPE  C21820437   6.329   3.611   8.720  0.5342 -0.0608  0.3142
  179SOPE  H18R20438   6.420   3.600   8.782 -0.9477  0.3268  2.6317
  179SOPE  H18S20439   6.264   3.525   8.750  3.5407 -0.8336  5.2334
  179SOPE  H18T20440   6.284   3.707   8.755 -1.2598 -0.8172  0.1342
  179SOPE   C3320441   6.416   4.376   7.248 -0.4173  0.1625  0.2287
  179SOPE   H3X20442   6.315   4.411   7.278 -0.7111 -0.5804  0.1224
  179SOPE   H3Y20443   6.487   4.425   7.318  0.2239  0.3436 -0.5446
  179SOPE   C3420444   6.420   4.226   7.276  0.4784 -0.0114 -0.3654
  179SOPE   H4X20445   6.503   4.175   7.223 -0.7722 -0.2829 -2.1426
  179SOPE   H4Y20446   6.321   4.203   7.230  0.9907 -0.7209 -1.1215
  179SOPE   C3520447   6.409   4.185   7.424 -0.2064  0.4536  0.5081
  179SOPE   H5X20448   6.377   4.078   7.430 -0.4659  0.4752 -0.4785
  179SOPE   H5Y20449   6.335   4.249   7.476 -1.0898 -0.2975  0.1987
  179SOPE   C3620450   6.541   4.206   7.507  0.4033 -0.2607  0.3101
  179SOPE   H6X20451   6.594   4.292   7.461 -0.8265  1.7154  2.4504
  179SOPE   H6Y20452   6.606   4.116   7.509 -0.7249 -1.0921 -0.0783
  179SOPE   C3720453   6.520   4.277   7.644 -0.4345  0.0796 -0.4238
  179SOPE   H7X20454   6.475   4.374   7.615 -0.5509 -0.3692 -1.7809
  179SOPE   H7Y20455   6.617   4.291   7.696 -1.1501 -0.5128  1.0928
  179SOPE   C3820456   6.429   4.203   7.743 -0.7140  0.3278  0.0173
  179SOPE   H8X20457   6.331   4.182   7.694 -0.1768 -0.1132 -0.8800
  179SOPE   H8Y20458   6.405   4.275   7.824  1.6036  1.3545 -0.2024
  179SOPE   C3920459   6.488   4.076   7.805 -0.2126 -0.7161 -0.0844
  179SOPE   H9X20460   6.587   4.108   7.843 -0.1220  1.0444 -1.7016
  179SOPE   H9Y20461   6.490   3.999   7.725  1.2618 -0.0766 -0.6795
  179SOPE  C31020462   6.409   4.045   7.937 -0.4623 -0.1307 -0.0866
  179SOPE  H10X20463   6.411   3.934   7.948 -2.5708 -0.0150  1.8627
  179SOPE  H10Y20464   6.308   4.090   7.930  0.4618  2.0625  0.4206
  179SOPE  C31120465   6.464   4.111   8.073 -1.0876  0.8577 -0.4854
  179SOPE  H11X20466   6.467   4.222   8.080  1.5479  0.7800  0.1632
  179SOPE  H11Y20467   6.557   4.053   8.092 -0.4860  1.1053 -2.5453
  179SOPE  C31220468   6.368   4.066   8.190 -0.5445 -0.1813  0.5038
  179SOPE  H12X20469   6.378   3.956   8.190  0.8888 -0.0592 -0.8722
  179SOPE  H12Y20470   6.260   4.082   8.168 -0.2548  0.7916 -0.2448
  179SOPE  C31320471   6.408   4.111   8.335 -0.1929  0.3609 -0.3254
  179SOPE  H13X20472   6.518   4.107   8.346 -0.3061  1.2034  1.1524
  179SOPE  H13Y20473   6.358   4.047   8.411 -0.4704 -0.0302 -0.8290
  179SOPE  C31420474   6.357   4.247   8.376 -0.4723  0.4235 -0.0735
  179SOPE  H14X20475   6.247   4.241   8.363 -0.2868 -0.8811 -1.1543
  179SOPE  H14Y20476   6.387   4.323   8.301  0.2312 -1.6960 -1.9910
  179SOPE  C31520477   6.390   4.285   8.528  0.0753 -0.0768  0.2922
  179SOPE  H15X20478   6.491   4.250   8.560 -0.1066  0.4861  1.4984
  179SOPE  H15Y20479   6.310   4.243   8.593  1.2912 -0.3606  1.6251
  179SOPE  C31620480   6.381   4.438   8.538  0.1541  0.4839 -0.5657
  179SOPE  H16X20481   6.297   4.480   8.478  0.4726 -2.9830 -3.6554
  179SOPE  H16Y20482   6.471   4.481   8.490  0.7427  0.3369  0.3948
  179SOPE  C31720483   6.362   4.495   8.677  1.1415 -0.3341 -0.4520
  179SOPE  H17X20484   6.263   4.458   8.710  0.8022  1.0301  0.0936
  179SOPE  H17Y20485   6.347   4.604   8.668  3.2172  0.3346  3.1533
  179SOPE  C31820486   6.476   4.461   8.773 -0.7438 -0.4076  0.5557
  179SOPE  H18X20487   6.467   4.507   8.874  0.3830  2.7210 -0.7032
  179SOPE  H18Y20488   6.570   4.499   8.729 -0.4710 -1.8763 -0.1552
  179SOPE  H18Z20489   6.482   4.351   8.782  2.3425 -0.3046  0.0740
  180SOPE     N20490   5.652   3.307   6.057  0.2463  0.2211 -0.0139
  180SOPE   HN120491   5.552   3.329   6.075  1.0650  1.2123  3.6972
  180SOPE   HN220492   5.663   3.216   6.008  0.5479  0.2111  0.0723
  180SOPE   HN320493   5.702   3.301   6.148 -1.5940  1.6106  1.1166
  180SOPE   C1220494   5.710   3.417   5.980 -0.1644  0.1536 -0.1908
  180SOPE  H12A20495   5.653   3.507   6.011  1.0506  0.4989  1.1232
  180SOPE  H12B20496   5.687   3.407   5.872 -0.1967  1.4106 -0.3161
  180SOPE   C1120497   5.864   3.437   6.012  0.1491  0.1570  0.0890
  180SOPE  H11A20498   5.909   3.520   5.953  0.2585 -0.4871 -0.7380
  180SOPE  H11B20499   5.909   3.343   5.974  1.9868  0.6098  1.0840
  180SOPE     P20500   5.883   3.580   6.227 -0.2187  0.6130 -0.6169
  180SOPE   O1320501   5.871   3.694   6.135 -0.2925 -0.0754  0.0296
  180SOPE   O1420502   5.997   3.600   6.322 -0.3540  0.1202  0.2153
  180SOPE   O1220503   5.893   3.447   6.147 -0.6026  0.1158 -0.1376
  180SOPE   O1120504   5.739   3.565   6.304 -0.0138 -0.0521  0.3023
  180SOPE    C120505   5.695   3.674   6.390 -0.3546  0.6044  0.0272
  180SOPE    HA20506   5.584   3.679   6.385 -0.3383 -0.0618 -1.3754
  180SOPE    HB20507   5.731   3.770   6.346 -0.0668 -0.1461 -1.3938
  180SOPE    C220508   5.727   3.662   6.537 -0.6684  0.3503 -0.1112
  180SOPE    HS20509   5.835   3.684   6.548 -0.5547 -0.3484  0.2068
  180SOPE   O2120510   5.688   3.526   6.590 -0.0558 -0.3291 -0.5255
  180SOPE   C2120511   5.776   3.467   6.664 -1.3903  0.1491  0.4630
  180SOPE   O2220512   5.879   3.517   6.707 -0.0412 -0.0554  0.1332
  180SOPE   C2220513   5.748   3.316   6.664  0.0632 -0.2887  0.1874
  180SOPE   H2R20514   5.801   3.262   6.582 -0.4531  0.1795 -0.4610
  180SOPE   H2S20515   5.637   3.303   6.662 -0.0428  0.6735 -0.6253
  180SOPE    C320516   5.664   3.785   6.617 -0.1795 -0.6444 -0.4915
  180SOPE    HX20517   5.554   3.787   6.602 -0.5190  1.1875  1.8804
  180SOPE    HY20518   5.700   3.883   6.579 -0.5419 -0.0288  0.7125
  180SOPE   O3120519   5.699   3.772   6.764 -0.4482 -0.2034 -0.3563
  180SOPE   C3120520   5.589   3.755   6.842  0.8962  0.8071 -0.3388
  180SOPE   O3220521   5.472   3.764   6.807 -0.5493 -0.6161  0.3424
  180SOPE   C3220522   5.641   3.739   6.991 -0.3173 -0.5082  0.0262
  180SOPE   H2X20523   5.725   3.810   7.005 -2.1410  1.9932 -1.4192
  180SOPE   H2Y20524   5.679   3.636   7.009  0.4582 -0.0498  1.0393
  180SOPE   C2320525   5.809   3.262   6.789  0.2708 -0.4741 -0.2411
  180SOPE   H3R20526   5.915   3.294   6.805 -0.1556  0.3012  1.1378
  180SOPE   H3S20527   5.824   3.152   6.778  1.3647 -0.5509  1.8055
  180SOPE   C2420528   5.714   3.289   6.914  0.0824  0.3967  0.3356
  180SOPE   H4R20529   5.717   3.398   6.931  1.7230  0.8528 -2.5058
  180SOPE   H4S20530   5.610   3.273   6.878 -0.1695 -1.8991  1.9712
  180SOPE   C2520531   5.759   3.209   7.034  0.1904 -0.4279  0.4256
  180SOPE   H5R20532   5.859   3.251   7.059  0.8661 -1.0342 -1.1819
  180SOPE   H5S20533   5.688   3.238   7.113 -1.0144 -0.0553 -0.7812
  180SOPE   C2620534   5.767   3.056   7.024 -0.5777 -0.3865 -0.6440
  180SOPE   H6R20535   5.667   3.014   6.999 -2.7419  2.5962  2.4873
  180SOPE   H6S20536   5.834   3.025   6.941 -1.9100  0.6525 -2.1655
  180SOPE   C2720537   5.812   2.999   7.163  0.5021  0.3594 -0.4654
  180SOPE   H7R20538   5.751   3.043   7.245  2.8846  0.1970  1.4603
  180SOPE   H7S20539   5.795   2.889   7.162 -1.6181  0.6641 -4.1691
  180SOPE   C2820540   5.959   3.031   7.194 -0.4809 -0.1181 -0.9745
  180SOPE   H8R20541   5.998   2.987   7.099  1.0048  0.5801 -0.7100
  180SOPE   H8S20542   5.983   3.140   7.188  0.9508 -0.4368 -1.2506
  180SOPE   C2920543   6.014   2.963   7.315 -0.4799  0.6343  0.1454
  180SOPE   H9120544   6.030   2.855   7.302 -3.7896  0.0746  0.3888
  180SOPE  C21020545   6.031   3.012   7.434 -0.8119  0.0424  0.2261
  180SOPE  H10120546   6.087   2.950   7.505 -1.5361  0.2990  1.0334
  180SOPE  C21120547   6.012   3.152   7.478 -0.2173 -0.1453 -0.3081
  180SOPE  H11R20548   5.956   3.213   7.404  0.8501  0.2255 -0.8286
  180SOPE  H11S20549   6.116   3.189   7.491  0.1629 -1.2785 -0.0195
  180SOPE  C21220550   5.952   3.160   7.620  0.5456 -0.7676  0.0403
  180SOPE  H12R20551   6.016   3.110   7.695 -0.8500 -0.9491  1.1195
  180SOPE  H12S20552   5.850   3.118   7.623  0.2448  0.0957  3.3832
  180SOPE  C21320553   5.936   3.305   7.661 -0.1712  0.2474 -0.1076
  180SOPE  H13R20554   5.881   3.353   7.578  0.0514  0.3016 -0.2234
  180SOPE  H13S20555   6.031   3.361   7.655 -0.5419  0.5797 -3.6682
  180SOPE  C21420556   5.857   3.338   7.794 -0.4446  0.6120 -0.1670
  180SOPE  H14R20557   5.765   3.279   7.776 -1.6664  2.1953  0.8000
  180SOPE  H14S20558   5.831   3.445   7.802 -1.0588  0.5616 -1.4180
  180SOPE  C21520559   5.931   3.282   7.919 -0.2713 -0.0987 -0.1803
  180SOPE  H15R20560   5.956   3.367   7.985 -2.5147 -0.0379  0.6244
  180SOPE  H15S20561   6.026   3.241   7.878 -0.2650  0.6411 -0.9120
  180SOPE  C21620562   5.865   3.159   7.988  0.4656  0.1702 -0.0047
  180SOPE  H16R20563   5.926   3.144   8.080 -1.1585  1.6591  1.3425
  180SOPE  H16S20564   5.876   3.065   7.930  2.5614 -0.6695  1.6636
  180SOPE  C21720565   5.716   3.170   8.021 -0.5376 -0.4632  0.2093
  180SOPE  H17R20566   5.695   3.084   8.089 -2.3415  0.1385  0.4357
  180SOPE  H17S20567   5.641   3.166   7.939  1.1848 -1.1134 -1.3858
  180SOPE  C21820568   5.688   3.303   8.099  0.2593 -0.0617 -0.5237
  180SOPE  H18R20569   5.749   3.388   8.063 -0.7054  1.0949  0.5078
  180SOPE  H18S20570   5.716   3.285   8.205 -3.8521 -1.6435  0.3879
  180SOPE  H18T20571   5.579   3.326   8.090  0.2957 -0.2479 -1.4891
  180SOPE   C3320572   5.532   3.772   7.097  0.6006 -1.0506 -0.2610
  180SOPE   H3X20573   5.458   3.690   7.093  0.2343 -0.7114 -0.4331
  180SOPE   H3Y20574   5.469   3.858   7.066  0.1485 -1.2674  0.0425
  180SOPE   C3420575   5.572   3.786   7.242  0.0694  0.3625  0.0093
  180SOPE   H4X20576   5.644   3.871   7.242 -0.1230  0.5941 -3.6967
  180SOPE   H4Y20577   5.618   3.698   7.292 -0.5850  0.3971  0.6822
  180SOPE   C3520578   5.451   3.822   7.327 -0.5531  0.4863  0.1126
  180SOPE   H5X20579   5.376   3.740   7.330 -0.6235  0.5499  0.1050
  180SOPE   H5Y20580   5.398   3.917   7.302 -0.3984  0.6006  0.2158
  180SOPE   C3620581   5.502   3.855   7.469  0.1670  0.5681 -0.6442
  180SOPE   H6X20582   5.584   3.928   7.457  0.5173 -0.1970 -3.1605
  180SOPE   H6Y20583   5.542   3.761   7.513 -1.1264 -0.3594 -1.4294
  180SOPE   C3720584   5.403   3.926   7.557  0.4084 -0.5053 -0.9236
  180SOPE   H7X20585   5.393   3.875   7.655 -1.4511  0.7614 -0.4406
  180SOPE   H7Y20586   5.304   3.920   7.507 -0.2902  3.3092 -0.1463
  180SOPE   C3820587   5.428   4.076   7.582  0.8626  0.1010 -0.1187
  180SOPE   H8X20588   5.335   4.117   7.626 -0.2052 -2.2577 -0.1167
  180SOPE   H8Y20589   5.443   4.123   7.483 -0.1197  1.2266  0.2586
  180SOPE   C3920590   5.550   4.106   7.673 -0.4301 -0.0388  0.5446
  180SOPE   H9X20591   5.585   4.212   7.677 -0.0602 -0.2319  3.1241
  180SOPE   H9Y20592   5.639   4.045   7.643 -0.9050 -0.5503  0.1733
  180SOPE  C31020593   5.520   4.078   7.826 -0.2618 -0.3138  0.6817
  180SOPE  H10X20594   5.462   3.984   7.840 -1.3080 -0.4094 -3.6049
  180SOPE  H10Y20595   5.451   4.160   7.859 -0.5953 -1.3734  2.6932
  180SOPE  C31120596   5.650   4.074   7.913  1.1089  0.1823  0.3176
  180SOPE  H11X20597   5.727   4.153   7.900  0.2024  1.0096 -0.0862
  180SOPE  H11Y20598   5.706   3.982   7.885 -0.3006 -0.0075 -2.0048
  180SOPE  C31220599   5.607   4.076   8.060  0.5610  0.5991  0.1613
  180SOPE  H12X20600   5.541   3.987   8.070 -0.3372  1.2439 -0.0083
  180SOPE  H12Y20601   5.556   4.172   8.081 -1.0644 -0.7802  2.8424
  180SOPE  C31320602   5.728   4.066   8.160 -0.2639 -0.7210  0.2632
  180SOPE  H13X20603   5.794   4.149   8.125  1.3579 -3.0655 -2.4398
  180SOPE  H13Y20604   5.773   3.966   8.141  0.2618 -0.3720 -0.3322
  180SOPE  C31420605   5.694   4.091   8.305 -0.5038  0.4281 -0.5917
  180SOPE  H14X20606   5.635   4.185   8.314  0.4490  0.8489  1.5354
  180SOPE  H14Y20607   5.785   4.114   8.365 -0.1241  1.3767 -1.4986
  180SOPE  C31520608   5.601   3.983   8.367  0.1052 -0.7088 -0.2312
  180SOPE  H15X20609   5.655   3.887   8.374  0.6976 -0.3858 -0.3791
  180SOPE  H15Y20610   5.507   3.962   8.311 -0.4211  1.8337 -0.3555
  180SOPE  C31620611   5.583   4.009   8.520 -0.8652 -0.3260  0.0528
  180SOPE  H16X20612   5.562   4.118   8.532  3.4614  0.6540 -0.2152
  180SOPE  H16Y20613   5.682   3.998   8.570 -0.3499 -1.6301 -1.2407
  180SOPE  C31720614   5.478   3.914   8.590  0.0867 -0.3937 -0.0662
  180SOPE  H17X20615   5.528   3.815   8.594  1.8593  0.4816 -0.0348
  180SOPE  H17Y20616   5.391   3.913   8.521 -1.4222  3.0133  1.6662
  180SOPE  C31820617   5.446   3.935   8.741  0.6562  0.4226  0.6038
  180SOPE  H18X20618   5.545   3.922   8.789  1.3392  0.7177 -0.6970
  180SOPE  H18Y20619   5.381   3.852   8.775  1.8157 -0.5222  0.5842
  180SOPE  H18Z20620   5.388   4.028   8.759 -2.8814 -1.5455 -0.1121
  181SOPE     N20621   4.347   1.113   5.719  0.2933 -0.3637 -0.3215
  181SOPE   HN120622   4.326   1.017   5.686 -2.4736  0.0780  0.0914
  181SOPE   HN220623   4.342   1.176   5.636  0.3079  1.3473  0.9299
  181SOPE   HN320624   4.440   1.109   5.766 -0.8617  1.7762  2.2404
  181SOPE   C1220625   4.248   1.176   5.809  0.6679  0.1925  0.2343
  181SOPE  H12A20626   4.248   1.128   5.909  2.6011  0.0849  0.1969
  181SOPE  H12B20627   4.148   1.171   5.761  0.4374  0.0808  0.7300
  181SOPE   C1120628   4.280   1.322   5.843 -0.6421  0.1655  0.2512
  181SOPE  H11A20629   4.205   1.354   5.919  0.5978  2.0370  0.7237
  181SOPE  H11B20630   4.269   1.385   5.752 -0.2644 -2.1642 -1.4426
  181SOPE     P20631   4.451   1.352   6.041 -0.1202  0.1029 -0.0420
  181SOPE   O1320632   4.598   1.335   6.060 -0.4970  0.2933 -0.8206
  181SOPE   O1420633   4.362   1.257   6.107 -0.3391  0.3574  0.3017
  181SOPE   O1220634   4.419   1.338   5.878 -0.2833  0.0171  0.3805
  181SOPE   O1120635   4.400   1.504   6.054  0.1372  0.2121  0.4720
  181SOPE    C120636   4.491   1.610   6.105  1.5287 -0.0170  0.0235
  181SOPE    HA20637   4.441   1.706   6.080  1.6482 -0.0634 -0.3917
  181SOPE    HB20638   4.587   1.628   6.053  1.3490  0.7023 -0.0725
  181SOPE    C220639   4.512   1.602   6.257 -0.1173  0.5788 -0.1410
  181SOPE    HS20640   4.576   1.513   6.279  0.0332  0.8969  0.6853
  181SOPE   O2120641   4.379   1.587   6.313 -0.0100  0.2218  0.6279
  181SOPE   C2120642   4.367   1.508   6.415 -0.4887 -0.0506 -0.4414
  181SOPE   O2220643   4.454   1.443   6.471 -0.0182 -0.3408  0.0421
  181SOPE   C2220644   4.217   1.519   6.470 -0.0352  0.8755  0.4480
  181SOPE   H2R20645   4.181   1.426   6.520 -0.0129  0.2738 -0.6365
  181SOPE   H2S20646   4.161   1.552   6.380  1.0551 -0.6502 -0.8205
  181SOPE    C320647   4.593   1.728   6.303 -0.6106 -0.0257  0.3285
  181SOPE    HX20648   4.523   1.810   6.277  1.0626  1.3502  0.0660
  181SOPE    HY20649   4.689   1.733   6.248  0.1439 -0.3267  1.5918
  181SOPE   O3120650   4.613   1.738   6.447  0.4098  0.0190  0.2732
  181SOPE   C3120651   4.729   1.680   6.484 -0.2446 -0.3472 -0.4082
  181SOPE   O3220652   4.822   1.646   6.410 -0.1849 -0.2049 -0.0773
  181SOPE   C3220653   4.716   1.666   6.633 -0.4288  0.7361  0.5832
  181SOPE   H2X20654   4.647   1.580   6.654 -0.8671  1.0575  0.4641
  181SOPE   H2Y20655   4.694   1.766   6.676  3.8710  2.1012 -0.1416
  181SOPE   C2320656   4.197   1.634   6.572  0.8469 -0.5157 -0.7347
  181SOPE   H3R20657   4.107   1.693   6.543  0.5629 -0.2248  0.6733
  181SOPE   H3S20658   4.276   1.709   6.550 -1.0590  1.4267 -1.2124
  181SOPE   C2420659   4.185   1.597   6.719  0.3416  0.0439 -0.0429
  181SOPE   H4R20660   4.153   1.682   6.783 -3.5200  0.7806 -2.7687
  181SOPE   H4S20661   4.105   1.520   6.725 -1.3599  1.5901 -1.9449
  181SOPE   C2520662   4.314   1.549   6.783  0.0248 -0.1519  0.6451
  181SOPE   H5R20663   4.354   1.460   6.730  0.8909  0.3373  0.4562
  181SOPE   H5S20664   4.385   1.634   6.770 -1.9115  1.4653  0.4008
  181SOPE   C2620665   4.294   1.512   6.926  0.2266 -0.1551 -0.5193
  181SOPE   H6R20666   4.268   1.600   6.988 -0.6963  0.1940 -1.3990
  181SOPE   H6S20667   4.206   1.445   6.933  1.4134 -1.8214 -1.2402
  181SOPE   C2720668   4.427   1.445   6.983  0.3959 -0.2104  0.4499
  181SOPE   H7R20669   4.447   1.359   6.916  1.9189  0.1408  0.4273
  181SOPE   H7S20670   4.506   1.521   6.968 -0.8423  0.8189 -0.9514
  181SOPE   C2820671   4.422   1.402   7.125  0.6976 -0.2475  0.0011
  181SOPE   H8R20672   4.398   1.486   7.193  1.6768  1.6947 -1.9846
  181SOPE   H8S20673   4.337   1.330   7.129  0.5472 -0.0945 -0.3713
  181SOPE   C2920674   4.542   1.327   7.179  0.2552 -0.1918  0.1180
  181SOPE   H9120675   4.579   1.239   7.124  0.8989 -0.9672  1.7183
  181SOPE  C21020676   4.600   1.341   7.301 -0.1761 -0.4093  0.0198
  181SOPE  H10120677   4.687   1.279   7.326 -0.3102  0.3401  2.4681
  181SOPE  C21120678   4.570   1.439   7.407 -0.2747 -0.1262 -0.0686
  181SOPE  H11R20679   4.578   1.543   7.370  2.9446  0.1875  1.3352
  181SOPE  H11S20680   4.640   1.408   7.487  1.5532 -0.8098 -1.8953
  181SOPE  C21220681   4.427   1.429   7.464 -0.4427 -0.3748  0.2463
  181SOPE  H12R20682   4.424   1.332   7.518  1.0674 -0.3086  0.4741
  181SOPE  H12S20683   4.337   1.438   7.399 -1.0732 -1.9363  0.8759
  181SOPE  C21320684   4.418   1.547   7.566 -0.1439 -0.9818 -0.0480
  181SOPE  H13R20685   4.396   1.641   7.511  0.1091  0.1355  1.7198
  181SOPE  H13S20686   4.517   1.545   7.617 -0.5765  0.3064  0.8389
  181SOPE  C21420687   4.313   1.511   7.672 -0.6605 -0.6643 -0.6264
  181SOPE  H14R20688   4.357   1.425   7.727  1.8697  0.9421 -0.0152
  181SOPE  H14S20689   4.222   1.482   7.616 -1.2032 -0.6188  0.2228
  181SOPE  C21520690   4.270   1.625   7.760 -0.2920  0.3918  0.5904
  181SOPE  H15R20691   4.235   1.703   7.688 -0.1957  0.4761  0.6352
  181SOPE  H15S20692   4.359   1.671   7.808 -1.0867 -0.1111  2.5741
  181SOPE  C21620693   4.160   1.587   7.860  0.0715 -0.3339  0.0377
  181SOPE  H16R20694   4.067   1.554   7.808 -0.2071  1.0302 -0.3331
  181SOPE  H16S20695   4.138   1.679   7.918  1.7975  1.4311 -2.0415
  181SOPE  C21720696   4.205   1.474   7.956 -0.1611 -0.3345 -0.6046
  181SOPE  H17R20697   4.282   1.513   8.026  0.8789  0.8912 -2.4006
  181SOPE  H17S20698   4.249   1.378   7.922  2.2736  0.4376  0.2914
  181SOPE  C21820699   4.089   1.460   8.060  0.3285 -0.4437  0.0222
  181SOPE  H18R20700   4.069   1.556   8.113 -0.6141  0.8000 -2.5004
  181SOPE  H18S20701   4.115   1.385   8.138 -0.3899 -0.7849 -0.0615
  181SOPE  H18T20702   3.997   1.442   8.000  0.6862  0.9527 -0.9694
  181SOPE   C3320703   4.851   1.639   6.698 -0.2606  0.0780 -0.2192
  181SOPE   H3X20704   4.927   1.711   6.659 -2.1884  2.9501  1.0959
  181SOPE   H3Y20705   4.876   1.534   6.672 -1.4914 -0.2411 -0.1439
  181SOPE   C3420706   4.833   1.628   6.849  0.9069 -0.3618 -0.2491
  181SOPE   H4X20707   4.758   1.556   6.887  1.2721 -0.5998  0.0228
  181SOPE   H4Y20708   4.808   1.731   6.882  1.4622 -0.3816  0.2441
  181SOPE   C3520709   4.961   1.588   6.929  0.3411  0.4463  1.0701
  181SOPE   H5X20710   5.053   1.645   6.902  0.6510 -0.8585 -0.7523
  181SOPE   H5Y20711   4.981   1.486   6.891 -0.7972  0.3890  0.6222
  181SOPE   C3620712   4.940   1.588   7.080  0.3168  0.1483 -0.3533
  181SOPE   H6X20713   4.851   1.524   7.098 -0.4602  0.9567 -1.2590
  181SOPE   H6Y20714   4.908   1.689   7.113  1.3131  0.5500 -0.6018
  181SOPE   C3720715   5.056   1.536   7.153  0.3226  0.0111 -0.1364
  181SOPE   H7X20716   5.143   1.604   7.139 -0.4559  0.9433 -0.4855
  181SOPE   H7Y20717   5.077   1.444   7.096 -1.1317 -0.6411  0.3540
  181SOPE   C3820718   5.034   1.508   7.300 -0.0284  0.5982  0.5979
  181SOPE   H8X20719   5.134   1.513   7.348 -0.4836 -1.3101  1.7752
  181SOPE   H8Y20720   4.996   1.404   7.299  0.6111  0.3634 -0.4324
  181SOPE   C3920721   4.943   1.604   7.374 -0.2162  0.4665  0.3070
  181SOPE   H9X20722   4.843   1.592   7.328 -0.3859 -0.1098  0.8197
  181SOPE   H9Y20723   4.972   1.711   7.367 -0.6757  0.6525  1.2359
  181SOPE  C31020724   4.929   1.571   7.521 -0.7618 -0.4028 -0.3295
  181SOPE  H10X20725   5.015   1.546   7.587 -1.8915 -1.4986  0.7544
  181SOPE  H10Y20726   4.872   1.476   7.523  0.4814 -1.1341  1.7396
  181SOPE  C31120727   4.836   1.666   7.594  0.4258  0.1657  0.4442
  181SOPE  H11X20728   4.745   1.697   7.537  0.8235  0.4351 -0.0461
  181SOPE  H11Y20729   4.886   1.764   7.611 -2.2330  1.4046  1.5288
  181SOPE  C31220730   4.796   1.600   7.733 -0.4570 -0.2546  0.3049
  181SOPE  H12X20731   4.890   1.562   7.779 -0.8645  0.1566  1.4935
  181SOPE  H12Y20732   4.728   1.516   7.711  0.5206 -0.8624 -0.4314
  181SOPE  C31320733   4.740   1.709   7.817  0.0842  0.2681  0.3736
  181SOPE  H13X20734   4.665   1.768   7.759  0.1973 -0.6856 -0.7730
  181SOPE  H13Y20735   4.822   1.781   7.840  1.9493 -1.2319 -1.3855
  181SOPE  C31420736   4.675   1.663   7.941  0.1026 -0.6153  0.5161
  181SOPE  H14X20737   4.747   1.595   7.992  2.0874 -0.8512 -2.5055
  181SOPE  H14Y20738   4.576   1.622   7.915  1.2130 -2.5816 -0.7075
  181SOPE  C31520739   4.650   1.786   8.041 -0.4131 -0.0275  0.5316
  181SOPE  H15X20740   4.608   1.751   8.138  0.7399  2.3344  1.9269
  181SOPE  H15Y20741   4.590   1.865   7.991  1.5610  0.6219 -0.8761
  181SOPE  C31620742   4.777   1.858   8.094 -0.0996 -1.1850  0.4426
  181SOPE  H16X20743   4.817   1.924   8.015 -1.3103 -0.2721  0.5709
  181SOPE  H16Y20744   4.855   1.782   8.115  0.2396 -0.1425  3.1891
  181SOPE  C31720745   4.756   1.955   8.213 -0.7906 -0.5733  0.1905
  181SOPE  H17X20746   4.854   2.007   8.224 -1.6479  0.8190  1.4356
  181SOPE  H17Y20747   4.727   1.893   8.300 -1.1602 -0.2350  0.3090
  181SOPE  C31820748   4.639   2.061   8.201  0.0387 -0.2430  0.6120
  181SOPE  H18X20749   4.542   2.008   8.210  0.9076 -1.6865  1.5125
  181SOPE  H18Y20750   4.655   2.118   8.107  2.9447 -1.2312  0.4689
  181SOPE  H18Z20751   4.644   2.143   8.276  1.9097 -0.2093  0.4650
  182SOPE     N20752   4.881   3.352   6.202 -0.8592  0.7664  0.8365
  182SOPE   HN120753   4.846   3.406   6.120 -4.4567 -1.5822  0.7223
  182SOPE   HN220754   4.852   3.252   6.204  1.2868 -0.0137 -2.3777
  182SOPE   HN320755   4.839   3.406   6.281 -0.9800 -0.4602  1.6199
  182SOPE   C1220756   5.028   3.373   6.210 -0.7585  0.3163  1.0316
  182SOPE  H12A20757   5.040   3.481   6.232 -2.5172  0.2964  2.2453
  182SOPE  H12B20758   5.075   3.338   6.115  2.7079  3.7721  1.3761
  182SOPE   C1120759   5.086   3.295   6.323  0.7159 -0.4879  0.4520
  182SOPE  H11A20760   5.034   3.331   6.414 -0.2092  1.3049 -0.7480
  182SOPE  H11B20761   5.192   3.321   6.341 -0.0227  0.9573  3.0106
  182SOPE     P20762   5.158   3.051   6.249  0.3235 -0.4335 -0.0567
  182SOPE   O1320763   5.247   3.118   6.150 -0.1610  0.9446 -0.0843
  182SOPE   O1420764   5.090   2.921   6.212  0.2286  0.2868  0.1327
  182SOPE   O1220765   5.048   3.157   6.308 -0.2953  0.0185  0.0886
  182SOPE   O1120766   5.238   3.030   6.382 -0.5719  0.4219 -0.0791
  182SOPE    C120767   5.189   2.945   6.481  0.9556  0.6009 -0.6923
  182SOPE    HA20768   5.183   2.840   6.444  0.7509  0.2067  0.4277
  182SOPE    HB20769   5.087   2.975   6.514  0.0387 -2.8576 -0.2120
  182SOPE    C220770   5.280   2.955   6.609  0.0763  0.0156 -0.0758
  182SOPE    HS20771   5.270   3.062   6.636  1.4940 -0.1485  1.1654
  182SOPE   O2120772   5.416   2.931   6.576 -0.4081  0.4675 -0.1068
  182SOPE   C2120773   5.505   3.000   6.643 -0.0622  0.6472 -0.3373
  182SOPE   O2220774   5.477   3.085   6.722  0.4801  0.1711  0.6345
  182SOPE   C2220775   5.642   2.961   6.585 -0.1598 -0.2159 -0.0385
  182SOPE   H2R20776   5.728   3.019   6.627 -0.4275  0.4913 -0.4464
  182SOPE   H2S20777   5.630   2.984   6.477 -2.5544  0.7474  0.3978
  182SOPE    C320778   5.233   2.863   6.719  0.2884  0.3255  0.5859
  182SOPE    HX20779   5.246   2.756   6.689  1.9788  0.7996 -0.4679
  182SOPE    HY20780   5.123   2.879   6.720  0.2466  0.3063 -1.4487
  182SOPE   O3120781   5.300   2.865   6.848  0.2258  0.0085 -0.1307
  182SOPE   C3120782   5.261   2.952   6.933 -0.2833  1.3436 -0.1025
  182SOPE   O3220783   5.174   3.036   6.914 -0.5078  0.4815 -0.2212
  182SOPE   C3220784   5.345   2.963   7.060  0.7656 -0.1734 -0.5102
  182SOPE   H2X20785   5.297   3.030   7.135 -1.0575 -0.5347 -1.3304
  182SOPE   H2Y20786   5.439   3.015   7.032 -0.0834  0.7862 -1.6168
  182SOPE   C2320787   5.673   2.810   6.600 -0.2217 -0.0210  0.3242
  182SOPE   H3R20788   5.755   2.787   6.528 -2.2159 -0.6193 -1.8474
  182SOPE   H3S20789   5.588   2.745   6.570  0.8283 -0.5687 -1.5649
  182SOPE   C2420790   5.711   2.783   6.742 -0.2619 -0.1616 -0.0416
  182SOPE   H4R20791   5.785   2.856   6.779  3.0824 -3.1124 -0.6047
  182SOPE   H4S20792   5.625   2.784   6.812  0.3264 -1.1946  0.7183
  182SOPE   C2520793   5.790   2.652   6.755 -0.4414  0.3611 -0.8708
  182SOPE   H5R20794   5.724   2.571   6.715  1.1325 -0.1714 -2.4539
  182SOPE   H5S20795   5.874   2.651   6.682  0.9537 -1.2302  0.7161
  182SOPE   C2620796   5.849   2.626   6.896 -0.6149 -0.6593  0.6394
  182SOPE   H6R20797   5.902   2.528   6.896 -2.0026 -1.4360  0.5988
  182SOPE   H6S20798   5.924   2.700   6.927 -1.7583  0.4793  0.7302
  182SOPE   C2720799   5.750   2.622   7.011  0.2249 -0.0203 -1.0162
  182SOPE   H7R20800   5.716   2.726   7.032 -1.0847 -0.8606  1.2861
  182SOPE   H7S20801   5.659   2.560   6.992  0.6699 -1.0794  0.2270
  182SOPE   C2820802   5.819   2.578   7.141  0.1524 -0.2281  1.1160
  182SOPE   H8R20803   5.878   2.485   7.122  2.7758  1.0305  2.8601
  182SOPE   H8S20804   5.887   2.657   7.180 -0.5759  0.8049  0.3158
  182SOPE   C2920805   5.711   2.543   7.245  0.2503  0.1246  0.0828
  182SOPE   H9120806   5.635   2.487   7.189  1.4666 -1.6308  0.1318
  182SOPE  C21020807   5.711   2.565   7.375  0.4401  0.0633 -0.1885
  182SOPE  H10120808   5.616   2.544   7.427  0.5628 -0.8603 -0.3165
  182SOPE  C21120809   5.821   2.629   7.456 -0.1701  0.7663  0.5528
  182SOPE  H11R20810   5.789   2.735   7.452  1.0814  1.1040 -0.7437
  182SOPE  H11S20811   5.925   2.619   7.419  0.0203  0.4921  1.1422
  182SOPE  C21220812   5.835   2.570   7.592 -0.5046  1.2956  0.3405
  182SOPE  H12R20813   5.839   2.460   7.583 -1.8657  1.3590 -1.3036
  182SOPE  H12S20814   5.749   2.597   7.658 -1.0922 -0.1529  0.1759
  182SOPE  C21320815   5.968   2.624   7.662 -0.3957  0.4086 -0.2808
  182SOPE  H13R20816   5.958   2.735   7.655  1.1481  0.5592 -0.2713
  182SOPE  H13S20817   6.056   2.586   7.606  1.0158  1.1187  1.4355
  182SOPE  C21420818   5.961   2.596   7.811 -0.4249  0.9606 -0.4122
  182SOPE  H14R20819   5.952   2.485   7.814 -0.9294  1.0240  0.6604
  182SOPE  H14S20820   5.881   2.641   7.873  0.2856  1.0348  0.4727
  182SOPE  C21520821   6.103   2.614   7.867 -0.4281  0.0004 -0.1749
  182SOPE  H15R20822   6.127   2.722   7.854 -0.8733  0.2521  1.1082
  182SOPE  H15S20823   6.171   2.580   7.786 -0.7477 -1.6294  0.2362
  182SOPE  C21620824   6.136   2.561   8.004 -0.4324  0.2584 -0.5119
  182SOPE  H16R20825   6.123   2.451   8.011  1.6886  0.0532  0.5539
  182SOPE  H16S20826   6.061   2.597   8.077 -1.3771 -4.1590  0.8227
  182SOPE  C21720827   6.266   2.615   8.063  0.1661  0.4114 -0.1559
  182SOPE  H17R20828   6.283   2.724   8.048 -1.4191  0.3921 -2.2454
  182SOPE  H17S20829   6.350   2.577   8.001  0.5053 -1.7604  1.6008
  182SOPE  C21820830   6.271   2.585   8.212 -0.3677  0.7707  0.2958
  182SOPE  H18R20831   6.188   2.627   8.272 -0.4851 -0.5207  1.0468
  182SOPE  H18S20832   6.373   2.611   8.248  1.0729 -2.3124 -1.3444
  182SOPE  H18T20833   6.258   2.476   8.231 -1.9190  1.0418  0.8263
  182SOPE   C3320834   5.366   2.823   7.130  0.2804  1.2710 -0.2005
  182SOPE   H3X20835   5.410   2.745   7.064  0.7621  0.1411  1.4441
  182SOPE   H3Y20836   5.261   2.795   7.150  1.3986 -2.4982  0.7204
  182SOPE   C3420837   5.440   2.832   7.263  0.1796  0.2980  0.1236
  182SOPE   H4X20838   5.509   2.919   7.251  0.3436  0.3089  1.0569
  182SOPE   H4Y20839   5.493   2.736   7.282  1.2649  0.3086 -2.6039
  182SOPE   C3520840   5.355   2.864   7.385 -0.1084 -0.5179  0.0445
  182SOPE   H5X20841   5.261   2.804   7.384  0.2307 -1.0317 -1.5810
  182SOPE   H5Y20842   5.326   2.970   7.399 -0.3854 -0.7419  1.2672
  182SOPE   C3620843   5.436   2.836   7.509 -0.7587 -0.4614 -0.1963
  182SOPE   H6X20844   5.522   2.906   7.516 -1.0821  0.1744 -2.2150
  182SOPE   H6Y20845   5.465   2.729   7.504 -3.3433 -1.3297  2.4976
  182SOPE   C3720846   5.350   2.867   7.637 -0.6926 -0.1199 -0.1266
  182SOPE   H7X20847   5.260   2.801   7.642 -0.4485 -0.6038 -1.7581
  182SOPE   H7Y20848   5.315   2.972   7.626  1.2647  0.8070  2.1965
  182SOPE   C3820849   5.432   2.841   7.768  0.1894 -0.2161 -0.1460
  182SOPE   H8X20850   5.526   2.898   7.751 -1.1524  2.2678  0.5444
  182SOPE   H8Y20851   5.472   2.738   7.780  1.8715  0.1994 -1.9800
  182SOPE   C3920852   5.367   2.907   7.894 -0.1137 -0.1011 -0.0969
  182SOPE   H9X20853   5.272   2.854   7.916  0.0027 -0.0212  0.6190
  182SOPE   H9Y20854   5.350   3.012   7.863  0.6738  1.1556  3.4338
  182SOPE  C31020855   5.463   2.899   8.015 -0.0169 -0.0486 -0.2766
  182SOPE  H10X20856   5.550   2.966   7.996  0.0497  0.5100  1.9140
  182SOPE  H10Y20857   5.493   2.796   8.045 -4.0378 -1.4555 -0.7592
  182SOPE  C31120858   5.389   2.956   8.142 -0.7325  0.6237  0.3567
  182SOPE  H11X20859   5.318   2.880   8.180 -0.3302  0.7186  1.3128
  182SOPE  H11Y20860   5.340   3.053   8.119 -0.2384  1.1973  1.6459
  182SOPE  C31220861   5.473   2.971   8.275 -0.1369  0.0639  0.1659
  182SOPE  H12X20862   5.548   3.053   8.265 -0.0015 -0.1671 -0.8042
  182SOPE  H12Y20863   5.541   2.885   8.289  0.1642  0.4154  0.8779
  182SOPE  C31320864   5.391   2.979   8.405  0.2082  0.1052  0.5067
  182SOPE  H13X20865   5.458   2.957   8.491  0.0734  1.1273  0.8822
  182SOPE  H13Y20866   5.317   2.896   8.410  0.8445 -0.7781 -3.3203
  182SOPE  C31420867   5.306   3.104   8.432  0.2058 -0.2614 -0.1863
  182SOPE  H14X20868   5.245   3.093   8.523  2.1770 -1.6501  1.0011
  182SOPE  H14Y20869   5.238   3.125   8.347  0.1850 -1.3686 -0.4400
  182SOPE  C31520870   5.387   3.237   8.420  0.4511 -0.2433  0.1351
  182SOPE  H15X20871   5.449   3.234   8.328  0.7208 -0.2746  0.3199
  182SOPE  H15Y20872   5.459   3.241   8.504  0.6881  0.2565 -0.0872
  182SOPE  C31620873   5.285   3.360   8.420  0.1747  0.1907  0.7325
  182SOPE  H16X20874   5.296   3.422   8.511 -2.4594  0.7021  0.7506
  182SOPE  H16Y20875   5.187   3.315   8.393  1.0912 -1.9842  0.8892
  182SOPE  C31720876   5.326   3.468   8.307 -0.1872 -0.5369 -0.3176
  182SOPE  H17X20877   5.291   3.432   8.208  1.9564 -0.9749 -0.9312
  182SOPE  H17Y20878   5.436   3.476   8.290  0.0039 -0.4440  0.9368
  182SOPE  C31820879   5.284   3.613   8.336  0.2490  0.0583  0.2201
  182SOPE  H18X20880   5.311   3.645   8.439  0.9411  1.0120 -0.2563
  182SOPE  H18Y20881   5.174   3.625   8.324  0.2342 -0.9068 -0.7090
  182SOPE  H18Z20882   5.332   3.685   8.266 -0.2232 -1.4069 -1.6590
  183SOPE     N20883   0.667   0.523   6.359  0.1619  0.4002  0.0754
  183SOPE   HN120884   0.694   0.470   6.444 -1.1293  1.2754  1.0467
  183SOPE   HN220885   0.627   0.451   6.295 -0.1940 -1.0188  1.8577
  183SOPE   HN320886   0.755   0.566   6.325 -0.2648  2.0719  1.0752
  183SOPE   C1220887   0.563   0.630   6.396  0.5027  0.0108 -0.0640
  183SOPE  H12A20888   0.497   0.595   6.479  1.1590  0.2779  0.5808
  183SOPE  H12B20889   0.506   0.652   6.304  0.2276 -2.0684 -0.4262
  183SOPE   C1120890   0.642   0.762   6.445 -0.3928  0.1178 -0.1123
  183SOPE  H11A20891   0.721   0.736   6.519 -0.8195 -0.8566  0.0159
  183SOPE  H11B20892   0.566   0.820   6.501 -1.2094  0.6914 -1.7792
  183SOPE     P20893   0.853   0.835   6.304 -0.2921  0.1203  0.3126
  183SOPE   O1320894   0.877   0.924   6.195 -0.0190 -0.9008 -0.0131
  183SOPE   O1420895   0.897   0.694   6.297 -0.0516 -0.1210  0.0308
  183SOPE   O1220896   0.701   0.846   6.341  0.3119 -0.0848  0.1729
  183SOPE   O1120897   0.919   0.896   6.428 -0.5183 -0.1775 -0.6404
  183SOPE    C120898   0.902   1.020   6.485  0.0287 -0.2143 -0.6443
  183SOPE    HA20899   0.794   1.046   6.497  0.3184  0.5559  0.3302
  183SOPE    HB20900   0.958   1.099   6.431  0.8931 -0.2047  0.2600
  183SOPE    C220901   0.947   1.019   6.630 -0.1554  0.2282  0.3299
  183SOPE    HS20902   0.914   1.115   6.673 -2.5306 -0.0362 -0.8494
  183SOPE   O2120903   1.095   1.009   6.633 -0.1631 -0.3378 -0.6777
  183SOPE   C2120904   1.159   1.114   6.678 -0.1312  0.5718 -0.1697
  183SOPE   O2220905   1.117   1.228   6.698 -0.0670 -0.5855 -0.1544
  183SOPE   C2220906   1.311   1.071   6.684 -0.4371 -0.3141  0.2482
  183SOPE   H2R20907   1.339   1.042   6.581  1.3711  1.1138  0.3088
  183SOPE   H2S20908   1.308   0.976   6.742  1.2741  0.3288  1.4591
  183SOPE    C320909   0.880   0.906   6.723 -0.8349  0.7738 -0.2381
  183SOPE    HX20910   0.918   0.805   6.697 -2.4882 -0.4441  1.8961
  183SOPE    HY20911   0.771   0.906   6.700 -0.9356 -1.1145  0.1433
  183SOPE   O3120912   0.913   0.940   6.859  0.5721 -0.3518  0.3679
  183SOPE   C3120913   0.989   0.855   6.936  0.1811 -0.2735  0.2584
  183SOPE   O3220914   1.052   0.763   6.890 -1.1830 -0.1594 -0.4032
  183SOPE   C3220915   0.996   0.903   7.084  0.4046 -0.2640  0.1461
  183SOPE   H2X20916   0.939   0.833   7.149  2.3466  0.1691  2.3527
  183SOPE   H2Y20917   0.953   1.005   7.093  0.5413 -0.3706  2.2627
  183SOPE   C2320918   1.405   1.165   6.757 -0.1457 -0.3483 -0.8049
  183SOPE   H3R20919   1.417   1.264   6.709  2.3367  0.8938  2.2349
  183SOPE   H3S20920   1.508   1.125   6.767 -0.6283 -1.1872  0.8851
  183SOPE   C2420921   1.371   1.183   6.904 -0.0776 -0.1225 -0.7452
  183SOPE   H4R20922   1.266   1.220   6.911 -0.3568 -0.6589 -2.0164
  183SOPE   H4S20923   1.364   1.083   6.951 -1.0072  0.4066  0.2761
  183SOPE   C2520924   1.464   1.284   6.981  0.2311  0.3430 -0.1787
  183SOPE   H5R20925   1.568   1.275   6.943  0.1021 -2.5069 -0.0269
  183SOPE   H5S20926   1.422   1.381   6.947  0.6455  0.5847 -0.0046
  183SOPE   C2620927   1.452   1.253   7.123  0.5793 -0.5271  0.1213
  183SOPE   H6R20928   1.345   1.249   7.153 -0.0164  3.4592 -1.1586
  183SOPE   H6S20929   1.485   1.150   7.146 -0.5943 -0.9277  0.0379
  183SOPE   C2720930   1.525   1.350   7.214  0.1219 -0.3364 -0.4096
  183SOPE   H7R20931   1.635   1.331   7.211  0.3365  0.3839  1.5508
  183SOPE   H7S20932   1.509   1.457   7.187  0.9154 -0.1414 -0.1285
  183SOPE   C2820933   1.485   1.320   7.365  0.1683  0.4286  0.3259
  183SOPE   H8R20934   1.455   1.214   7.374 -1.3960  0.8649  0.3897
  183SOPE   H8S20935   1.563   1.344   7.441 -1.5285  1.2936  1.8048
  183SOPE   C2920936   1.367   1.398   7.409 -1.2227  0.5889 -0.1950
  183SOPE   H9120937   1.311   1.444   7.326  0.1734  3.0580  0.1908
  183SOPE  C21020938   1.337   1.410   7.534 -0.4522 -0.4971 -0.5838
  183SOPE  H10120939   1.242   1.461   7.556 -1.0062 -0.4240 -2.9471
  183SOPE  C21120940   1.409   1.352   7.658 -0.0366 -1.0560  0.5619
  183SOPE  H11R20941   1.473   1.434   7.698 -1.6795  0.0479  1.0002
  183SOPE  H11S20942   1.474   1.268   7.627  0.6266  0.1271 -1.2935
  183SOPE  C21220943   1.311   1.301   7.766  0.0435  0.3869  0.0656
  183SOPE  H12R20944   1.245   1.222   7.724 -0.8698  1.3646 -0.3689
  183SOPE  H12S20945   1.241   1.384   7.788  1.6056  1.1930  2.0521
  183SOPE  C21320946   1.383   1.263   7.897 -0.5468 -0.6173  0.1503
  183SOPE  H13R20947   1.452   1.347   7.922  2.1523 -1.8853 -2.7612
  183SOPE  H13S20948   1.444   1.171   7.887 -2.4541 -1.8755 -0.0316
  183SOPE  C21420949   1.283   1.241   8.016 -0.6383  0.1200  0.3467
  183SOPE  H14R20950   1.343   1.188   8.094  1.1447 -0.0065 -1.0733
  183SOPE  H14S20951   1.199   1.183   7.974  1.0290 -0.8278 -1.7595
  183SOPE  C21520952   1.230   1.369   8.075 -0.2681 -0.4713  0.8039
  183SOPE  H15R20953   1.169   1.418   7.995  0.4244 -2.1683 -0.8041
  183SOPE  H15S20954   1.317   1.430   8.105 -0.6902 -0.7227  2.6046
  183SOPE  C21620955   1.158   1.332   8.210 -0.3225  0.0217  0.4811
  183SOPE  H16R20956   1.239   1.276   8.261  0.6707  0.1334 -0.9465
  183SOPE  H16S20957   1.080   1.254   8.201 -0.3720 -0.1136  1.9864
  183SOPE  C21720958   1.116   1.455   8.295  0.3035 -0.5832  0.3357
  183SOPE  H17R20959   1.069   1.533   8.231 -0.5405 -1.1790  0.2113
  183SOPE  H17S20960   1.213   1.500   8.323 -1.4054  1.8025  2.6762
  183SOPE  C21820961   1.032   1.424   8.410 -0.0245 -0.7762 -0.0279
  183SOPE  H18R20962   1.067   1.338   8.471  0.2236 -0.1874  0.6658
  183SOPE  H18S20963   0.933   1.384   8.381  0.1509 -0.3140 -1.3302
  183SOPE  H18T20964   1.010   1.517   8.467  1.5276  1.0005 -2.2130
  183SOPE   C3320965   1.147   0.900   7.121  0.3425 -0.3956 -0.4256
  183SOPE   H3X20966   1.205   0.961   7.049  1.5107  0.1687  0.9612
  183SOPE   H3Y20967   1.179   0.793   7.117  0.3841 -0.4801  1.4092
  183SOPE   C3420968   1.185   0.966   7.260 -0.0359  0.5656 -0.0930
  183SOPE   H4X20969   1.187   1.077   7.254 -1.9358  0.5092 -2.7441
  183SOPE   H4Y20970   1.288   0.928   7.273 -0.6545 -1.1175 -0.0764
  183SOPE   C3520971   1.093   0.917   7.368 -0.2476 -0.3233 -0.0229
  183SOPE   H5X20972   1.091   0.806   7.366  0.5667 -0.3116 -2.0284
  183SOPE   H5Y20973   0.989   0.955   7.360  0.1190  0.7234  0.1175
  183SOPE   C3620974   1.141   0.953   7.508 -0.4339  0.3848 -0.3732
  183SOPE   H6X20975   1.103   1.057   7.517 -0.9381 -0.0257  2.5121
  183SOPE   H6Y20976   1.252   0.955   7.504 -0.4786  0.6679 -2.2328
  183SOPE   C3720977   1.093   0.880   7.634  0.5297 -0.0071 -0.3857
  183SOPE   H7X20978   1.117   0.772   7.645  0.8181  0.0432 -0.5117
  183SOPE   H7Y20979   0.983   0.867   7.641  0.7629 -1.6029  0.6570
  183SOPE   C3820980   1.132   0.937   7.767  0.4090 -0.0982  0.0458
  183SOPE   H8X20981   1.127   1.048   7.764  2.7616  0.0551  0.9648
  183SOPE   H8Y20982   1.237   0.903   7.773  0.9679  1.4696 -0.6307
  183SOPE   C3920983   1.053   0.880   7.880 -0.4629 -0.2525 -0.2501
  183SOPE   H9X20984   1.069   0.772   7.861 -1.3031 -0.4939  0.3929
  183SOPE   H9Y20985   0.946   0.905   7.866  0.2037  2.1533 -1.3536
  183SOPE  C31020986   1.090   0.908   8.030  0.4149 -0.7046  0.1935
  183SOPE  H10X20987   1.060   1.012   8.054 -0.0381 -0.2843 -2.1159
  183SOPE  H10Y20988   1.200   0.894   8.036  0.6413 -1.2760 -3.7835
  183SOPE  C31120989   1.013   0.811   8.127 -0.7347 -0.2132  0.0884
  183SOPE  H11X20990   1.004   0.707   8.089  3.4381 -2.0080  3.5272
  183SOPE  H11Y20991   0.910   0.849   8.141  0.0110  2.5206 -1.4288
  183SOPE  C31220992   1.090   0.805   8.264  0.2065  0.0922 -0.3939
  183SOPE  H12X20993   1.191   0.759   8.260  0.3853  0.3534  0.9075
  183SOPE  H12Y20994   1.021   0.739   8.319  1.1209  0.6393  1.4488
  183SOPE  C31320995   1.084   0.941   8.340  0.0991 -0.5865  0.3825
  183SOPE  H13X20996   1.101   1.026   8.271 -2.1328 -0.4809 -0.0556
  183SOPE  H13Y20997   1.166   0.959   8.413  0.1259 -0.4517  0.3167
  183SOPE  C31420998   0.953   0.936   8.420 -0.6460  0.0510  0.0908
  183SOPE  H14X20999   0.961   0.876   8.513 -1.0011  0.0994  0.1541
  183SOPE  H14Y21000   0.868   0.896   8.361 -0.5951 -0.3491  0.2890
  183SOPE  C31521001   0.931   1.084   8.463 -0.1208 -0.1013 -0.3848
  183SOPE  H15X21002   0.939   1.152   8.375 -3.0095  2.0490  0.9648
  183SOPE  H15Y21003   1.008   1.119   8.534 -0.2952  2.0997 -1.2515
  183SOPE  C31621004   0.791   1.103   8.536 -0.0773 -0.4284  0.8129
  183SOPE  H16X21005   0.719   1.056   8.466 -0.5401 -0.2828  1.1979
  183SOPE  H16Y21006   0.768   1.211   8.540  0.8999  0.0051 -2.9393
  183SOPE  C31721007   0.772   1.043   8.677  0.7117 -0.7500 -0.5100
  183SOPE  H17X21008   0.853   1.081   8.743 -0.9473  0.6430  0.7934
  183SOPE  H17Y21009   0.780   0.932   8.671 -1.7629 -1.0064  0.2554
  183SOPE  C31821010   0.636   1.087   8.730 -0.2499  0.0966  0.1541
  183SOPE  H18X21011   0.624   1.196   8.714 -0.0675  0.4436  2.1884
  183SOPE  H18Y21012   0.625   1.079   8.840 -1.7207  0.9862  0.0836
  183SOPE  H18Z21013   0.546   1.039   8.687 -0.0642 -1.8706  1.8928
  184SOPE     N21014   1.882   1.490   6.442 -0.4785  0.1814  0.1311
  184SOPE   HN121015   1.978   1.452   6.454 -0.0228  0.7157 -1.5886
  184SOPE   HN221016   1.833   1.498   6.533  1.0587  1.2689  0.8764
  184SOPE   HN321017   1.823   1.424   6.387  1.3415  0.0457 -1.7199
  184SOPE   C1221018   1.895   1.631   6.382 -0.1863  0.0014  0.2071
  184SOPE  H12A21019   1.942   1.609   6.283 -0.9980 -1.7004  0.1937
  184SOPE  H12B21020   1.947   1.704   6.447  0.8424  0.8167 -1.4960
  184SOPE   C1121021   1.750   1.672   6.350  0.4382 -0.0720  0.4115
  184SOPE  H11A21022   1.774   1.767   6.298 -1.9907  0.5067  0.2929
  184SOPE  H11B21023   1.705   1.691   6.449  3.3624 -1.4042  2.0698
  184SOPE     P21024   1.556   1.663   6.189 -0.3839 -0.0506  0.3586
  184SOPE   O1321025   1.461   1.567   6.129 -0.8621 -0.2384  0.5898
  184SOPE   O1421026   1.617   1.742   6.076 -0.2916 -0.9626  0.0650
  184SOPE   O1221027   1.674   1.587   6.268 -0.1260 -0.2972 -0.2894
  184SOPE   O1121028   1.472   1.757   6.293  0.5797  0.0539 -0.0793
  184SOPE    C121029   1.411   1.703   6.403 -0.4909  0.0607  0.5684
  184SOPE    HA21030   1.475   1.638   6.467  0.0078  0.9682  1.0175
  184SOPE    HB21031   1.324   1.641   6.375  0.3989 -0.7245 -0.4636
  184SOPE    C221032   1.372   1.823   6.490  0.2677  0.6985  0.6285
  184SOPE    HS21033   1.460   1.860   6.548  2.7394 -0.3278 -2.3199
  184SOPE   O2121034   1.263   1.775   6.573  0.2851 -0.6758  0.2011
  184SOPE   C2121035   1.293   1.689   6.677  0.1581 -0.6303  0.4291
  184SOPE   O2221036   1.410   1.672   6.712 -0.0638 -0.0256  0.3974
  184SOPE   C2221037   1.175   1.621   6.742 -0.6768  0.1472 -0.1277
  184SOPE   H2R21038   1.113   1.551   6.681 -1.4181  2.4484 -2.0955
  184SOPE   H2S21039   1.099   1.698   6.767 -1.3409 -1.0409  1.6099
  184SOPE    C321040   1.332   1.938   6.408 -0.2048 -0.0548  0.0630
  184SOPE    HX21041   1.278   1.907   6.316 -1.8229  0.2429  0.8886
  184SOPE    HY21042   1.419   1.994   6.369 -0.2139  0.2066  0.4179
  184SOPE   O3121043   1.242   2.028   6.472  0.5255 -0.5244  0.0239
  184SOPE   C3121044   1.293   2.101   6.570 -0.4267 -0.0986  0.5520
  184SOPE   O3221045   1.408   2.087   6.615  0.1347 -0.0994  0.1013
  184SOPE   C3221046   1.179   2.205   6.617  0.5868 -0.4097 -0.2362
  184SOPE   H2X21047   1.089   2.193   6.553  1.6856 -0.2578 -1.8402
  184SOPE   H2Y21048   1.226   2.302   6.591  1.3581 -0.4768  0.8645
  184SOPE   C2321049   1.205   1.529   6.857 -0.1131  0.8750 -0.5568
  184SOPE   H3R21050   1.270   1.589   6.925 -0.1227  0.3083 -0.0425
  184SOPE   H3S21051   1.247   1.428   6.841 -0.5817  0.5205  0.3898
  184SOPE   C2421052   1.075   1.502   6.941 -0.0068 -0.4198  0.6212
  184SOPE   H4R21053   1.013   1.594   6.948  0.3367 -0.1336 -0.0337
  184SOPE   H4S21054   1.003   1.434   6.890  0.1795  0.5175 -0.9367
  184SOPE   C2521055   1.107   1.444   7.082  0.4094 -0.4183  0.6373
  184SOPE   H5R21056   1.136   1.337   7.073 -0.6033 -0.9555  3.2623
  184SOPE   H5S21057   1.198   1.499   7.115  0.1125  0.4183  0.0834
  184SOPE   C2621058   0.983   1.462   7.179  0.0162 -0.4988 -0.3600
  184SOPE   H6R21059   0.946   1.564   7.158 -0.3046 -0.4477  0.4181
  184SOPE   H6S21060   0.905   1.387   7.154 -0.4744  0.3467 -1.3521
  184SOPE   C2721061   1.026   1.450   7.333 -0.1087 -0.0173 -0.0153
  184SOPE   H7R21062   1.062   1.347   7.349  1.5206  0.2265 -1.8259
  184SOPE   H7S21063   1.120   1.510   7.337 -0.1239 -0.1338  3.3917
  184SOPE   C2821064   0.923   1.503   7.430 -0.1297  0.2255 -0.0539
  184SOPE   H8R21065   0.973   1.511   7.529 -0.9756 -3.0382  0.6952
  184SOPE   H8S21066   0.895   1.608   7.406 -0.2787  0.6464  1.8375
  184SOPE   C2921067   0.792   1.426   7.429  0.5481  0.6712 -0.0372
  184SOPE   H9121068   0.733   1.459   7.342 -0.8548  1.9784  1.3829
  184SOPE  C21021069   0.762   1.326   7.510 -0.6759  0.0091  0.5123
  184SOPE  H10121070   0.669   1.275   7.482  0.3423 -0.7126 -1.6780
  184SOPE  C21121071   0.843   1.263   7.623 -0.7860 -0.0749  0.0040
  184SOPE  H11R21072   0.944   1.232   7.591  0.3930  2.4610  1.1297
  184SOPE  H11S21073   0.802   1.170   7.667 -0.8004 -0.8724 -1.6754
  184SOPE  C21221074   0.856   1.367   7.744  0.4161  0.2338  0.1318
  184SOPE  H12R21075   0.755   1.411   7.750 -1.5724 -3.8122 -2.0382
  184SOPE  H12S21076   0.923   1.452   7.719 -2.3218  2.8652  1.4478
  184SOPE  C21321077   0.903   1.286   7.871  0.6191 -0.3433 -0.3302
  184SOPE  H13R21078   0.942   1.358   7.946 -1.4310  0.8739 -0.3874
  184SOPE  H13S21079   0.996   1.237   7.835 -0.6193 -0.7736 -3.0325
  184SOPE  C21421080   0.814   1.179   7.937 -0.1295 -0.2420 -0.5631
  184SOPE  H14R21081   0.876   1.103   7.989  1.5342  1.4157 -0.0720
  184SOPE  H14S21082   0.750   1.127   7.862 -1.3757 -1.0175  1.0096
  184SOPE  C21521083   0.716   1.232   8.046 -0.3567 -0.4024 -1.1088
  184SOPE  H15R21084   0.648   1.306   7.999 -0.5345  0.9178  1.1967
  184SOPE  H15S21085   0.782   1.289   8.115 -0.6453 -0.5772 -0.6876
  184SOPE  C21621086   0.635   1.122   8.113  0.2707  0.7401 -0.1462
  184SOPE  H16R21087   0.698   1.048   8.167  2.7685  1.8947 -1.3963
  184SOPE  H16S21088   0.589   1.069   8.027  1.6924 -1.4534  0.3891
  184SOPE  C21721089   0.518   1.167   8.207 -0.0202  0.0218 -0.3683
  184SOPE  H17R21090   0.467   1.254   8.159 -1.4165 -0.8022 -0.3870
  184SOPE  H17S21091   0.567   1.198   8.301  0.8623 -2.0466 -0.1301
  184SOPE  C21821092   0.413   1.057   8.247 -0.5367  0.5251  0.1329
  184SOPE  H18R21093   0.465   0.971   8.294 -1.3666  1.2349  2.4237
  184SOPE  H18S21094   0.358   1.027   8.155  1.5621  1.0044 -1.3091
  184SOPE  H18T21095   0.340   1.103   8.316 -1.8642  0.7122 -1.3580
  184SOPE   C3321096   1.147   2.202   6.763 -0.2071 -0.1217  0.6597
  184SOPE   H3X21097   1.090   2.295   6.781  0.5501  0.3524  0.6144
  184SOPE   H3Y21098   1.242   2.223   6.817 -0.7098  0.2733  1.4093
  184SOPE   C3421099   1.079   2.080   6.812 -0.8296  0.0145  0.6721
  184SOPE   H4X21100   1.148   1.997   6.783 -1.2776  0.2959 -1.2729
  184SOPE   H4Y21101   0.986   2.061   6.755  0.4127 -1.6681 -0.8594
  184SOPE   C3521102   1.050   2.077   6.966  0.1352 -0.2043 -0.3348
  184SOPE   H5X21103   0.972   2.155   6.978 -0.6075 -0.9972  0.0771
  184SOPE   H5Y21104   1.145   2.096   7.020 -2.1537  1.5180  3.3087
  184SOPE   C3621105   0.996   1.947   7.018  0.3434  0.3995 -0.5014
  184SOPE   H6X21106   1.068   1.870   6.983  2.5432  2.5203 -0.8225
  184SOPE   H6Y21107   0.898   1.912   6.981  0.6086  1.3715 -2.1856
  184SOPE   C3721108   1.002   1.928   7.178  0.4036 -0.0515  0.3780
  184SOPE   H7X21109   1.100   1.963   7.215 -0.6414  2.9513  0.4642
  184SOPE   H7Y21110   1.005   1.818   7.192  2.0770  0.2479  2.5926
  184SOPE   C3821111   0.889   1.982   7.254  0.0815  0.3463 -0.6511
  184SOPE   H8X21112   0.791   1.931   7.243 -0.3138  1.4515 -2.3831
  184SOPE   H8Y21113   0.872   2.086   7.220 -2.3357 -0.0891 -0.8703
  184SOPE   C3921114   0.934   1.994   7.401  0.0552 -0.2209 -1.0975
  184SOPE   H9X21115   1.028   2.052   7.412 -0.3294  0.2260  0.0378
  184SOPE   H9Y21116   0.950   1.896   7.450  2.2073 -0.3345 -1.9632
  184SOPE  C31021117   0.827   2.069   7.487  0.1739  0.0285  0.1838
  184SOPE  H10X21118   0.725   2.028   7.472  0.0179  1.1525 -2.1293
  184SOPE  H10Y21119   0.824   2.173   7.448  1.8149  0.0424  0.0970
  184SOPE  C31121120   0.860   2.064   7.632 -0.5569  0.0588  0.0678
  184SOPE  H11X21121   0.934   2.146   7.642  2.4979 -2.8511  3.1981
  184SOPE  H11Y21122   0.914   1.969   7.656 -0.5084 -0.6149 -2.5369
  184SOPE  C31221123   0.741   2.096   7.727 -0.0820 -0.6401 -0.9225
  184SOPE  H12X21124   0.658   2.024   7.719 -0.0051 -0.7965 -0.3525
  184SOPE  H12Y21125   0.705   2.198   7.702  1.3819  0.2950  0.5947
  184SOPE  C31321126   0.776   2.109   7.872 -0.8519  0.1532 -0.6802
  184SOPE  H13X21127   0.852   2.187   7.891 -0.2167 -0.7751  0.7303
  184SOPE  H13Y21128   0.812   2.011   7.911 -1.9939 -0.5398 -1.3494
  184SOPE  C31421129   0.654   2.143   7.961  0.3028 -0.4079 -0.3789
  184SOPE  H14X21130   0.577   2.063   7.967  0.1661 -0.2873 -0.5146
  184SOPE  H14Y21131   0.607   2.235   7.919  2.5073  0.7350 -0.4484
  184SOPE  C31521132   0.707   2.187   8.103 -0.7733 -0.2957  0.2509
  184SOPE  H15X21133   0.800   2.245   8.086 -0.8142  0.4453  2.4682
  184SOPE  H15Y21134   0.736   2.100   8.166 -1.5639 -0.8080 -0.0830
  184SOPE  C31621135   0.605   2.267   8.187 -0.2694 -0.4792  0.0168
  184SOPE  H16X21136   0.516   2.200   8.195 -1.4548  0.8564 -1.7188
  184SOPE  H16Y21137   0.577   2.361   8.136  1.9468  0.8814  1.2428
  184SOPE  C31721138   0.660   2.297   8.326 -0.0801  0.4158  0.0137
  184SOPE  H17X21139   0.759   2.346   8.314  0.3269 -0.4976 -0.4117
  184SOPE  H17Y21140   0.688   2.202   8.377  0.6608 -0.3314 -1.7562
  184SOPE  C31821141   0.568   2.375   8.410  0.2295 -0.0642  0.1225
  184SOPE  H18X21142   0.476   2.319   8.434 -0.2738  1.3566  1.6208
  184SOPE  H18Y21143   0.526   2.455   8.346 -0.4669 -1.2345 -0.8923
  184SOPE  H18Z21144   0.613   2.413   8.504  0.2458  1.3745 -0.4530
  185SAPI   C1221145   4.067   5.120  11.150  0.0434 -0.0194  0.6851
  185SAPI    H221146   3.996   5.173  11.083  0.2491 -1.9082 -1.0506
  185SAPI    O221147   4.125   5.209  11.243  0.5478 -0.1681  0.5403
  185SAPI   HO221148   4.102   5.299  11.220  0.9677  0.3119  1.9632
  185SAPI   C1321149   3.968   5.024  11.219 -0.4915 -1.6359 -0.2030
  185SAPI    H321150   3.919   4.964  11.139  0.1777 -2.0883 -0.2737
  185SAPI    O321151   3.871   5.093  11.293  0.0759  0.3844 -0.1099
  185SAPI   HO321152   3.896   5.185  11.284  1.7862 -0.0901 -0.2837
  185SAPI   C1421153   4.048   4.929  11.311 -0.0931  0.0054  0.5533
  185SAPI    H421154   4.099   4.985  11.392  0.5509 -1.3124  1.0757
  185SAPI    O421155   3.962   4.842  11.384  0.2041 -0.3009 -0.3431
  185SAPI   HO421156   3.902   4.803  11.320 -1.0576 -0.2720  0.7875
  185SAPI   C1521157   4.138   4.846  11.221 -0.1892  0.8108  0.0690
  185SAPI    H521158   4.073   4.788  11.152  1.3989 -0.9174 -0.0139
  185SAPI    O521159   4.216   4.755  11.296 -0.2312 -0.4122  0.2489
  185SAPI   HO521160   4.251   4.686  11.238  1.5319 -0.6885  1.5855
  185SAPI   C1621161   4.228   4.937  11.141 -0.2380  1.1548  0.7379
  185SAPI    H621162   4.295   4.993  11.210  1.1735  0.5214 -0.0785
  185SAPI    O621163   4.315   4.857  11.055  0.4707 -0.2482 -0.1284
  185SAPI   HO621164   4.246   4.821  10.999 -1.9724  2.3814  1.0852
  185SAPI   C1121165   4.156   5.043  11.069 -0.7859 -0.2615  0.4784
  185SAPI    H121166   4.094   4.984  10.998  1.8696 -0.4016 -1.8014
  185SAPI     P21167   4.271   5.164  10.843  0.0791  0.0441  0.6077
  185SAPI   O1321168   4.256   5.037  10.772  0.8366 -0.5043 -0.2598
  185SAPI   O1421169   4.397   5.236  10.821  0.0184 -0.6296  0.4685
  185SAPI   O1221170   4.245   5.135  11.004 -0.1504 -0.1872 -0.2691
  185SAPI   O1121171   4.155   5.270  10.816  0.4576  0.2243  0.0841
  185SAPI    C121172   4.020   5.235  10.804  0.5880 -0.5212 -0.4765
  185SAPI    HA21173   4.008   5.125  10.811 -1.6448 -0.3293 -1.0923
  185SAPI    HB21174   3.957   5.286  10.880  2.8326 -0.0056  1.1104
  185SAPI    C221175   3.963   5.291  10.669  0.3656  0.2906 -0.0312
  185SAPI    HS21176   3.852   5.287  10.671  0.4505 -1.7952  1.1189
  185SAPI   O2121177   4.010   5.220  10.551 -0.0010 -0.3013 -0.0848
  185SAPI   C2121178   3.980   5.088  10.541 -0.4605  0.0384 -0.3875
  185SAPI   O2221179   3.914   5.025  10.625  0.1916  0.7451  0.3684
  185SAPI   C2221180   4.028   5.041  10.406  0.1533  0.3439  0.7947
  185SAPI   H2R21181   3.961   5.088  10.331  0.0175 -1.5869 -0.3141
  185SAPI   H2S21182   4.135   5.073  10.397  0.0037  0.3788 -1.1366
  185SAPI    C321183   3.998   5.446  10.662  0.4855 -0.0466 -0.0537
  185SAPI    HX21184   4.105   5.447  10.634  0.8842  0.3652  1.4185
  185SAPI    HY21185   3.995   5.490  10.764 -0.1239 -0.4974  0.1271
  185SAPI   O3121186   3.919   5.525  10.565  0.5085 -0.3533  0.0537
  185SAPI   C3121187   3.809   5.563  10.611  0.3166 -0.4168  0.0274
  185SAPI   O3221188   3.770   5.552  10.727  0.4512 -0.0617 -0.1006
  185SAPI   C3221189   3.723   5.617  10.497 -0.1618 -0.4961  0.9670
  185SAPI   H2X21190   3.776   5.617  10.399 -2.4329 -0.4133 -0.2967
  185SAPI   H2Y21191   3.713   5.723  10.530  0.7087  0.2027 -0.9343
  185SAPI   C2321192   4.015   4.890  10.386  0.6475 -0.5238  0.0504
  185SAPI   H3R21193   4.040   4.863  10.281  0.6092 -0.3533 -0.0035
  185SAPI   H3S21194   3.915   4.846  10.405  0.4968 -1.0777 -1.9289
  185SAPI   C2421195   4.122   4.803  10.468 -0.1055 -0.0914  0.7580
  185SAPI   H4R21196   4.120   4.825  10.577  0.4489 -1.1214  0.9819
  185SAPI   H4S21197   4.221   4.841  10.437 -0.4857 -0.1675 -0.6007
  185SAPI   C2521198   4.112   4.660  10.449 -0.3283  0.1049  0.4013
  185SAPI   H5R21199   4.071   4.602  10.532 -1.3007 -0.8512 -0.7433
  185SAPI   C2621200   4.143   4.587  10.340  0.3828  0.4133 -0.6321
  185SAPI   H6R21201   4.113   4.481  10.337  2.1445 -0.2017  2.2139
  185SAPI   C2721202   4.194   4.628  10.205  0.7323  0.6048 -0.3622
  185SAPI   H7R21203   4.289   4.685  10.211 -0.0221  1.6989  1.4679
  185SAPI   H7S21204   4.122   4.695  10.154  1.9244  2.8933  0.8925
  185SAPI   C2821205   4.208   4.508  10.109  0.1257 -0.2201  0.4065
  185SAPI   H8R21206   4.230   4.409  10.153 -0.9236 -0.5552  0.1786
  185SAPI   C2921207   4.183   4.517   9.978  0.2475 -0.1957 -0.1529
  185SAPI   H9R21208   4.191   4.421   9.925  1.4311 -0.2160  0.0431
  185SAPI  C21021209   4.142   4.634   9.897 -0.2185 -0.2495  0.2013
  185SAPI  H10R21210   4.154   4.734   9.945 -2.5472 -0.3777  1.1391
  185SAPI  H10S21211   4.032   4.631   9.880 -0.0312 -1.6946 -0.7929
  185SAPI  C21121212   4.209   4.639   9.760 -0.0341 -0.3195  0.2745
  185SAPI  H11R21213   4.319   4.648   9.769  0.1401 -0.2964 -1.7162
  185SAPI  C21221214   4.145   4.631   9.644 -0.8031 -0.4541  0.0650
  185SAPI  H12R21215   4.205   4.628   9.552 -1.7067 -1.3625 -0.5007
  185SAPI  C21321216   3.999   4.609   9.617  0.1583 -0.1284  0.0491
  185SAPI  H13R21217   3.944   4.705   9.629 -1.0609 -0.8720  0.5038
  185SAPI  H13S21218   3.945   4.543   9.688 -2.0610  0.5473 -0.9487
  185SAPI  C21421219   3.983   4.567   9.470 -0.6164 -0.3669  0.3873
  185SAPI  H14R21220   4.005   4.459   9.463 -1.3763 -0.6847  2.5080
  185SAPI  C21521221   3.968   4.644   9.359  0.2534  0.1276  0.3423
  185SAPI  H15R21222   3.954   4.595   9.262 -1.1732 -0.5971  0.9087
  185SAPI  C21621223   3.970   4.795   9.363 -0.8621 -0.0059 -0.6819
  185SAPI  H16R21224   4.066   4.833   9.322  0.9642 -0.6232  2.8388
  185SAPI  H16S21225   3.971   4.835   9.467 -0.1327 -1.8356  0.0422
  185SAPI  C21721226   3.854   4.854   9.282 -0.6513 -0.1007  0.2053
  185SAPI  H17R21227   3.850   4.960   9.315 -1.8547 -0.5609  1.5863
  185SAPI  H17S21228   3.764   4.792   9.302 -0.5143 -0.3829 -0.0524
  185SAPI  C21821229   3.885   4.860   9.130 -0.6778 -0.2030  0.7279
  185SAPI  H18R21230   3.912   4.759   9.094  2.2251  0.8970 -0.3176
  185SAPI  H18S21231   3.962   4.939   9.117 -0.0580 -0.5678  2.0978
  185SAPI  C21921232   3.767   4.916   9.060  0.1776  0.7061 -0.0904
  185SAPI  H19R21233   3.742   5.010   9.115  1.8238 -0.2026  2.2596
  185SAPI  H19S21234   3.675   4.855   9.071  0.5140  0.3875  0.9204
  185SAPI  C22021235   3.788   4.944   8.913 -0.4866 -0.1481 -0.2084
  185SAPI  H20R21236   3.703   4.995   8.863  0.6638  1.0892 -0.9498
  185SAPI  H20S21237   3.800   4.853   8.851 -3.6756 -0.8868  0.1758
  185SAPI  H20T21238   3.872   5.015   8.895 -2.4551  2.2688 -0.1394
  185SAPI   C3321239   3.595   5.541  10.465  1.0214  0.0535  0.0666
  185SAPI   H3X21240   3.535   5.608  10.399 -0.5570 -0.5111  0.8936
  185SAPI   H3Y21241   3.524   5.521  10.548 -0.6951 -0.7281 -1.5452
  185SAPI   C3421242   3.621   5.412  10.394 -0.5421  0.4219  0.1217
  185SAPI   H4X21243   3.673   5.351  10.470  0.7551  0.0777 -1.0136
  185SAPI   H4Y21244   3.698   5.437  10.318  1.5806  0.5958  2.2656
  185SAPI   C3521245   3.497   5.358  10.324 -0.0152 -0.1664  0.3098
  185SAPI   H5X21246   3.454   5.445  10.268 -1.8043  0.6020  2.8127
  185SAPI   H5Y21247   3.402   5.337  10.377 -0.9715 -1.7658 -1.9478
  185SAPI   C3621248   3.535   5.240  10.237  0.2706  0.6300 -0.1670
  185SAPI   H6X21249   3.501   5.150  10.294  0.8901 -0.1392 -0.9858
  185SAPI   H6Y21250   3.645   5.235  10.220  0.3712  1.1834  0.3121
  185SAPI   C3721251   3.452   5.246  10.103  0.2996 -0.4178  0.0993
  185SAPI   H7X21252   3.473   5.156  10.041 -0.3203  2.3086 -4.3255
  185SAPI   H7Y21253   3.467   5.336  10.039  0.8027  0.3011  1.2128
  185SAPI   C3821254   3.300   5.257  10.132 -0.4058  0.0619 -0.0843
  185SAPI   H8X21255   3.277   5.357  10.173  0.2039 -0.3084  1.1848
  185SAPI   H8Y21256   3.273   5.191  10.217 -1.1784  0.3381 -0.1097
  185SAPI   C3921257   3.217   5.238  10.008 -0.1114 -0.5154  0.2698
  185SAPI   H9X21258   3.108   5.234  10.027  0.0287 -2.7144  0.7543
  185SAPI   H9Y21259   3.234   5.137   9.963  1.5856 -0.6398  1.1429
  185SAPI  C31021260   3.231   5.346   9.900  0.3509 -0.0062  0.3001
  185SAPI  H10X21261   3.321   5.320   9.841  0.4333 -1.3001  0.9852
  185SAPI  H10Y21262   3.247   5.441   9.956  0.1933  0.0681  0.2213
  185SAPI  C31121263   3.102   5.343   9.817 -0.6495 -0.7339  0.1075
  185SAPI  H11X21264   3.110   5.433   9.752  1.6217 -0.2823  0.9875
  185SAPI  H11Y21265   3.006   5.350   9.873 -1.2521  0.5944 -1.0549
  185SAPI  C31221266   3.101   5.226   9.718  0.9102  0.0613  0.2403
  185SAPI  H12X21267   3.103   5.132   9.776  1.4793 -0.4442 -0.5861
  185SAPI  H12Y21268   3.203   5.223   9.674  0.1952 -0.5992 -1.4171
  185SAPI  C31321269   2.988   5.226   9.600  0.1830  0.8702  0.0213
  185SAPI  H13X21270   2.989   5.323   9.544  1.4272 -0.7983 -2.9714
  185SAPI  H13Y21271   2.888   5.221   9.648 -0.1014 -3.0061 -0.8368
  185SAPI  C31421272   3.010   5.107   9.493 -0.2341 -0.3535 -0.2590
  185SAPI  H14X21273   3.024   5.016   9.556 -1.0548 -0.1198  0.2633
  185SAPI  H14Y21274   3.102   5.122   9.433  0.2102 -0.0247  0.4936
  185SAPI  C31521275   2.890   5.090   9.404 -0.0105 -0.8158 -0.9219
  185SAPI  H15X21276   2.808   5.070   9.476 -0.3342 -0.5874 -1.2228
  185SAPI  H15Y21277   2.890   4.992   9.351 -2.5734 -1.7711  0.7130
  185SAPI  C31621278   2.860   5.207   9.301 -0.9556 -0.6325  0.0497
  185SAPI  H16X21279   2.936   5.196   9.220 -0.9941 -1.0210  0.0644
  185SAPI  H16Y21280   2.875   5.303   9.355 -0.2985 -0.0235 -1.1857
  185SAPI  C31721281   2.727   5.200   9.229  0.2953  0.4912 -0.0495
  185SAPI  H17X21282   2.705   5.288   9.165 -0.1854 -0.6744 -1.4992
  185SAPI  H17Y21283   2.648   5.181   9.306 -0.5422  2.5883 -0.3442
  185SAPI  C31821284   2.706   5.074   9.136  0.4310 -0.2712  0.1859
  185SAPI  H18X21285   2.600   5.073   9.102 -0.5111 -0.1632  2.9460
  185SAPI  H18Y21286   2.729   4.979   9.188 -0.1669 -0.3345  0.3379
  185SAPI  H18Z21287   2.777   5.081   9.051 -0.3165 -0.4039 -0.4638
  186SAPI   C1221288   4.730   2.768  10.956  0.7310 -0.2218  0.0570
  186SAPI    H221289   4.667   2.679  10.935  0.8679 -0.6111  1.2405
  186SAPI    O221290   4.711   2.871  10.861 -0.1065  0.5328 -0.5783
  186SAPI   HO221291   4.733   2.831  10.776 -1.5805 -0.7389 -0.3997
  186SAPI   C1321292   4.706   2.816  11.099 -0.8669  0.5262 -0.0266
  186SAPI    H321293   4.701   2.731  11.170 -4.4165  0.0761 -0.7207
  186SAPI    O321294   4.578   2.880  11.114  0.0623  0.0934 -0.2428
  186SAPI   HO321295   4.570   2.926  11.030  1.6246 -1.8878 -1.5338
  186SAPI   C1421296   4.820   2.912  11.126 -0.3250  0.5258  0.2868
  186SAPI    H421297   4.825   2.996  11.054 -0.6871  0.9132  0.7107
  186SAPI    O421298   4.790   2.966  11.253  0.1482 -0.0674  0.2083
  186SAPI   HO421299   4.800   3.060  11.237 -0.2139  0.7433  4.1236
  186SAPI   C1521300   4.965   2.852  11.122 -0.3603  0.1696  0.6487
  186SAPI    H521301   4.965   2.763  11.189 -4.0108 -0.7687 -0.4457
  186SAPI    O521302   5.075   2.935  11.173  0.3100  0.3252 -0.1700
  186SAPI   HO521303   5.095   3.006  11.112 -2.2456  1.2025 -0.0344
  186SAPI   C1621304   4.996   2.801  10.985 -0.0030 -0.5010 -0.0297
  186SAPI    H621305   5.000   2.888  10.916 -0.2942 -0.8681 -0.5102
  186SAPI    O621306   5.114   2.724  10.983  0.7046 -0.3694 -0.0035
  186SAPI   HO621307   5.101   2.663  10.910 -1.5061  1.2717 -1.0728
  186SAPI   C1121308   4.876   2.716  10.944  0.8481  0.1185 -0.3395
  186SAPI    H121309   4.878   2.630  11.015 -1.4403  0.4005  0.0890
  186SAPI     P21310   4.950   2.512  10.772 -0.3353  0.3710 -0.1512
  186SAPI   O1321311   4.903   2.459  10.640  0.0326 -0.2442  0.5370
  186SAPI   O1421312   4.935   2.415  10.885  0.1059 -0.3902 -0.4191
  186SAPI   O1221313   4.883   2.661  10.810  0.2955  0.0545  0.5969
  186SAPI   O1121314   5.103   2.544  10.775  0.5379  0.5593  0.4969
  186SAPI    C121315   5.179   2.595  10.669  0.1043  0.3901  0.0477
  186SAPI    HA21316   5.288   2.589  10.690 -0.2235  1.2606  2.1153
  186SAPI    HB21317   5.172   2.528  10.581 -0.7032  2.4192 -1.4823
  186SAPI    C221318   5.146   2.748  10.637  0.5749  0.0004 -0.2210
  186SAPI    HS21319   5.121   2.782  10.740 -1.1673  2.7492 -1.4995
  186SAPI   O2121320   5.036   2.746  10.551 -0.0168 -0.1587 -0.3076
  186SAPI   C2121321   4.952   2.850  10.564 -0.6105 -0.2497  0.3102
  186SAPI   O2221322   4.975   2.944  10.643 -0.1825 -0.0356  0.7410
  186SAPI   C2221323   4.818   2.811  10.500  0.3475 -0.0227 -0.0789
  186SAPI   H2R21324   4.830   2.798  10.390 -2.3821  0.1569 -0.4521
  186SAPI   H2S21325   4.776   2.721  10.550 -0.9662  0.4142 -0.3801
  186SAPI    C321326   5.266   2.828  10.580  0.3074  0.0552  0.4705
  186SAPI    HX21327   5.343   2.834  10.660 -0.2033  2.6102  0.8108
  186SAPI    HY21328   5.231   2.933  10.568  1.7296  0.5024  0.0874
  186SAPI   O3121329   5.321   2.774  10.460 -0.4367 -0.0436  0.1953
  186SAPI   C3121330   5.272   2.821  10.346  0.3341  0.7253 -0.2086
  186SAPI   O3221331   5.200   2.916  10.333 -0.2966 -0.9147  0.0177
  186SAPI   C3221332   5.320   2.737  10.228  0.3895 -0.4875  0.8850
  186SAPI   H2X21333   5.300   2.629  10.246 -1.8942 -0.2903 -0.2280
  186SAPI   H2Y21334   5.426   2.756  10.201 -0.0126 -0.7866 -1.0354
  186SAPI   C2321335   4.712   2.928  10.502  0.3855 -0.0928 -0.2987
  186SAPI   H3R21336   4.755   3.026  10.474  3.6167 -1.2926  0.2738
  186SAPI   H3S21337   4.658   2.928  10.599 -0.0943 -1.3849 -0.5477
  186SAPI   C2421338   4.600   2.915  10.399  0.5390  0.0728  0.4030
  186SAPI   H4R21339   4.535   2.833  10.437  1.2480 -0.6437  0.0884
  186SAPI   H4S21340   4.644   2.881  10.303 -0.8214  0.6631 -0.4503
  186SAPI   C2521341   4.524   3.044  10.382 -0.2942 -0.6463 -0.0040
  186SAPI   H5R21342   4.442   3.086  10.443  0.6158  1.9373 -0.5319
  186SAPI   C2621343   4.529   3.115  10.265  0.2919  0.8974 -0.1583
  186SAPI   H6R21344   4.467   3.203  10.243  1.4615  1.6612 -0.3824
  186SAPI   C2721345   4.617   3.100  10.140 -0.6972  0.0676 -0.0913
  186SAPI   H7R21346   4.549   3.056  10.064  2.2752 -1.0165 -2.2352
  186SAPI   H7S21347   4.701   3.028  10.150 -0.2104  0.4335 -1.3653
  186SAPI   C2821348   4.684   3.225  10.089  0.1635  0.1651 -0.1955
  186SAPI   H8R21349   4.725   3.293  10.165  0.4892 -0.8597  0.5604
  186SAPI   C2921350   4.697   3.257   9.961 -0.5266 -0.2650  1.0154
  186SAPI   H9R21351   4.740   3.355   9.934  0.4352 -0.6405  1.1642
  186SAPI  C21021352   4.644   3.168   9.846  0.3431  0.4272  0.7162
  186SAPI  H10R21353   4.563   3.220   9.790 -0.8167 -0.0899  1.8919
  186SAPI  H10S21354   4.603   3.070   9.880 -0.9050  0.5332 -0.4301
  186SAPI  C21121355   4.760   3.124   9.759  0.2660 -0.1280 -0.5594
  186SAPI  H11R21356   4.824   3.058   9.820 -0.7996 -2.2431 -1.6461
  186SAPI  C21221357   4.788   3.143   9.627  0.3110 -1.2870 -0.7555
  186SAPI  H12R21358   4.886   3.116   9.584  2.9937  2.7679  2.3806
  186SAPI  C21321359   4.703   3.224   9.536  0.9039 -0.4771  0.1487
  186SAPI  H13R21360   4.706   3.335   9.544 -3.2378 -0.3625  1.1722
  186SAPI  H13S21361   4.598   3.212   9.569  0.1603  1.2154 -1.5277
  186SAPI  C21421362   4.729   3.190   9.389 -0.8296  0.1661 -0.3603
  186SAPI  H14R21363   4.675   3.103   9.347 -1.7906  1.0636 -1.0178
  186SAPI  C21521364   4.795   3.265   9.306 -0.1773  0.5264  0.7294
  186SAPI  H15R21365   4.826   3.222   9.210  1.7558  1.1895  1.0320
  186SAPI  C21621366   4.860   3.400   9.335 -0.6100 -0.3965  0.3625
  186SAPI  H16R21367   4.939   3.418   9.258  0.2699  0.6669  1.5040
  186SAPI  H16S21368   4.921   3.407   9.428 -0.9036  1.4845  0.4199
  186SAPI  C21721369   4.766   3.521   9.330  0.4154 -0.2577  1.1281
  186SAPI  H17R21370   4.822   3.605   9.375  1.6154 -0.1658 -0.4710
  186SAPI  H17S21371   4.675   3.520   9.393  0.2768  0.0757  0.9364
  186SAPI  C21821372   4.732   3.556   9.182 -1.0354  0.2998 -0.0093
  186SAPI  H18R21373   4.663   3.477   9.147 -0.2446 -0.5321  0.3120
  186SAPI  H18S21374   4.832   3.558   9.134 -0.2948  0.7324  1.5187
  186SAPI  C21921375   4.666   3.697   9.162  0.3631  0.1240  0.6998
  186SAPI  H19R21376   4.718   3.781   9.214  0.3040 -0.2287  1.3310
  186SAPI  H19S21377   4.560   3.695   9.195 -0.1833  0.0744 -1.0252
  186SAPI  C22021378   4.656   3.737   9.022  0.5194 -0.0860 -0.3996
  186SAPI  H20R21379   4.609   3.667   8.950  2.0435 -1.8145  0.2426
  186SAPI  H20S21380   4.755   3.779   8.992  0.2546  0.5952 -0.3293
  186SAPI  H20T21381   4.590   3.826   9.018 -1.2219 -1.1965  2.4892
  186SAPI   C3321382   5.265   2.762  10.083 -0.0213  0.4358  0.2422
  186SAPI   H3X21383   5.283   2.868  10.054  0.6876  0.1652 -0.3237
  186SAPI   H3Y21384   5.157   2.741  10.071  0.1229  1.4479 -3.4917
  186SAPI   C3421385   5.335   2.674   9.979  0.1630 -0.2739 -0.5356
  186SAPI   H4X21386   5.300   2.569   9.988 -0.5308 -0.2671 -2.7585
  186SAPI   H4Y21387   5.443   2.668  10.002  0.0493  4.1995  1.7951
  186SAPI   C3521388   5.304   2.719   9.836 -0.4866  1.1239  0.2308
  186SAPI   H5X21389   5.341   2.822   9.820  2.1691 -0.0662 -1.7450
  186SAPI   H5Y21390   5.194   2.711   9.825 -0.5915  1.7071  0.8104
  186SAPI   C3621391   5.361   2.616   9.732  0.6869  0.4621 -0.1097
  186SAPI   H6X21392   5.327   2.512   9.750  2.9290 -0.7724 -2.6037
  186SAPI   H6Y21393   5.471   2.626   9.743  0.5146  2.0393  0.4075
  186SAPI   C3721394   5.319   2.667   9.593  0.0967  0.6332  0.7493
  186SAPI   H7X21395   5.344   2.775   9.593 -0.5024  0.7828  1.9402
  186SAPI   H7Y21396   5.208   2.668   9.581  0.0796 -2.6071 -0.0342
  186SAPI   C3821397   5.381   2.592   9.481  0.6296 -0.2200  0.3956
  186SAPI   H8X21398   5.341   2.488   9.485  1.1875 -0.5658 -1.9781
  186SAPI   H8Y21399   5.491   2.594   9.496  0.8510  0.2024 -1.2121
  186SAPI   C3921400   5.345   2.659   9.343 -0.1228  0.6301 -0.0112
  186SAPI   H9X21401   5.371   2.767   9.340 -0.4244  0.6538 -2.1133
  186SAPI   H9Y21402   5.234   2.659   9.340 -0.0769  0.4132 -2.2496
  186SAPI  C31021403   5.405   2.607   9.210  0.1425  0.2657  0.4138
  186SAPI  H10X21404   5.345   2.517   9.185  2.0029 -0.6856 -0.7046
  186SAPI  H10Y21405   5.510   2.573   9.226 -0.2884 -1.8737 -1.1139
  186SAPI  C31121406   5.416   2.719   9.101  0.8960  0.5843  0.7604
  186SAPI  H11X21407   5.488   2.677   9.026  0.4685 -1.6385  1.5538
  186SAPI  H11Y21408   5.465   2.814   9.131 -3.1110  2.2570  2.2306
  186SAPI  C31221409   5.282   2.745   9.029 -0.3029  0.2745  0.2019
  186SAPI  H12X21410   5.292   2.831   8.959 -2.1499 -1.3217 -2.1275
  186SAPI  H12Y21411   5.197   2.766   9.097 -1.8405  0.6673 -1.7850
  186SAPI  C31321412   5.243   2.629   8.939 -0.7422  0.2863  0.2738
  186SAPI  H13X21413   5.218   2.548   9.010  1.5112 -0.2784  0.4419
  186SAPI  H13Y21414   5.336   2.600   8.884 -0.9670 -1.1075  0.6088
  186SAPI  C31421415   5.131   2.655   8.842  0.2481  0.1966 -0.0558
  186SAPI  H14X21416   5.139   2.755   8.794  0.4494  1.4379  2.4365
  186SAPI  H14Y21417   5.036   2.652   8.901  0.6811 -1.4035  0.5886
  186SAPI  C31521418   5.124   2.553   8.724  0.1212  0.0685  0.0344
  186SAPI  H15X21419   5.074   2.467   8.773  1.5401 -0.1700  1.0936
  186SAPI  H15Y21420   5.224   2.509   8.705  0.6153  0.8440  0.7803
  186SAPI  C31621421   5.047   2.597   8.597 -0.0375  0.0412  0.1207
  186SAPI  H16X21422   5.044   2.514   8.524  0.2569  1.8017 -1.9475
  186SAPI  H16Y21423   5.108   2.679   8.553  0.6321 -1.5318 -1.9770
  186SAPI  C31721424   4.904   2.637   8.626  0.5792 -0.6080  0.5222
  186SAPI  H17X21425   4.901   2.700   8.717 -0.0409 -0.6042  0.4940
  186SAPI  H17Y21426   4.840   2.550   8.650 -0.6009  0.1457  0.1264
  186SAPI  C31821427   4.841   2.710   8.505  0.8325  0.6022  0.1537
  186SAPI  H18X21428   4.735   2.732   8.528  0.2087 -0.9592 -1.1971
  186SAPI  H18Y21429   4.849   2.648   8.413 -1.3176  0.0184  0.3405
  186SAPI  H18Z21430   4.895   2.807   8.497  1.8947  0.2050  2.0717
  187SAPI   C1221431   1.674   3.955   6.093 -0.1964  0.4284  0.3217
  187SAPI    H221432   1.741   3.959   6.181  2.6726  0.2557 -1.7509
  187SAPI    O221433   1.731   4.045   5.997 -0.2823 -0.0864 -0.1414
  187SAPI   HO221434   1.728   4.124   6.051 -0.9731 -1.2869  1.6605
  187SAPI   C1321435   1.690   3.809   6.048 -0.1419 -0.1678 -0.3960
  187SAPI    H321436   1.667   3.751   6.140  0.2834  1.0432  0.4816
  187SAPI    O321437   1.822   3.782   5.991  0.3042  0.0151  0.6360
  187SAPI   HO321438   1.853   3.857   5.939  1.3105 -0.3459  0.7042
  187SAPI   C1421439   1.590   3.774   5.936  0.0630  0.2719 -0.4484
  187SAPI    H421440   1.612   3.830   5.842  0.5911  0.1081 -0.4255
  187SAPI    O421441   1.605   3.636   5.910 -0.0068 -0.1467 -0.0150
  187SAPI   HO421442   1.580   3.593   5.992 -0.6483 -2.0172 -1.1572
  187SAPI   C1521443   1.453   3.817   5.986  0.2042 -0.2517  0.3344
  187SAPI    H521444   1.432   3.763   6.081  0.9012 -0.7893  0.1861
  187SAPI    O521445   1.345   3.778   5.899 -0.5081 -0.1741 -0.3018
  187SAPI   HO521446   1.340   3.835   5.822  2.3717  0.6075  0.0046
  187SAPI   C1621447   1.437   3.959   6.025  0.1072 -0.9794  0.5019
  187SAPI    H621448   1.465   4.032   5.945  1.0038  0.9111  2.5032
  187SAPI    O621449   1.310   3.987   6.075  0.1599  0.1348  0.9584
  187SAPI   HO621450   1.316   4.039   6.155 -2.3753  2.5436 -0.3402
  187SAPI   C1121451   1.539   3.983   6.135  0.0466 -0.4955  0.2168
  187SAPI    H121452   1.515   3.912   6.218 -2.0981 -2.1147 -1.7012
  187SAPI     P21453   1.466   4.170   6.321  0.5315 -0.1963 -0.1437
  187SAPI   O1321454   1.333   4.108   6.314 -0.3910 -0.3743 -0.4224
  187SAPI   O1421455   1.488   4.311   6.333 -0.0805  0.1713 -0.2194
  187SAPI   O1221456   1.536   4.119   6.183 -0.2484  0.5643 -0.2791
  187SAPI   O1121457   1.553   4.099   6.427 -0.1537 -0.0147 -0.0853
  187SAPI    C121458   1.551   4.155   6.561 -0.2455 -0.1889  0.4745
  187SAPI    HA21459   1.656   4.175   6.591 -0.7330  0.0984  2.0044
  187SAPI    HB21460   1.506   4.255   6.576 -0.7093 -1.0116  5.2281
  187SAPI    C221461   1.489   4.055   6.666  0.4481  0.0342  0.3358
  187SAPI    HS21462   1.535   3.958   6.640 -1.6501 -0.2431 -2.4966
  187SAPI   O2121463   1.346   4.063   6.658 -0.0365  0.2552 -0.5861
  187SAPI   C2121464   1.260   3.978   6.720 -0.0608 -0.3432 -0.5002
  187SAPI   O2221465   1.294   3.878   6.782 -0.5257 -0.0340  0.2902
  187SAPI   C2221466   1.115   4.004   6.686  0.7953 -0.5397  0.2730
  187SAPI   H2R21467   1.091   3.937   6.601  0.7167  0.3095 -0.3881
  187SAPI   H2S21468   1.052   3.969   6.771 -2.1366  0.0763 -1.5904
  187SAPI    C321469   1.533   4.098   6.806 -0.2934 -0.0989  0.8417
  187SAPI    HX21470   1.503   4.204   6.820 -0.0168 -0.1043  1.4647
  187SAPI    HY21471   1.644   4.100   6.806 -0.2577 -1.2841  0.4456
  187SAPI   O3121472   1.491   4.017   6.917 -0.0704 -0.3459  0.3551
  187SAPI   C3121473   1.536   3.896   6.927  0.7255  0.9352 -0.3053
  187SAPI   O3221474   1.618   3.852   6.849  0.4882  0.3345 -0.0235
  187SAPI   C3221475   1.466   3.812   7.037 -0.2136  0.1692  0.2037
  187SAPI   H2X21476   1.461   3.709   6.997  2.4968 -0.9480  2.6395
  187SAPI   H2Y21477   1.360   3.847   7.037  0.1578  1.3472 -1.0527
  187SAPI   C2321478   1.078   4.156   6.652 -0.3000 -0.4218  0.4587
  187SAPI   H3R21479   0.998   4.157   6.576  1.7815 -0.7405 -1.8030
  187SAPI   H3S21480   1.169   4.200   6.605 -1.1549  1.1119  0.2056
  187SAPI   C2421481   1.040   4.246   6.771  0.0446  0.1741  0.4522
  187SAPI   H4R21482   1.045   4.349   6.729 -1.0402  0.0564  0.0224
  187SAPI   H4S21483   1.120   4.236   6.847 -0.3814  0.0109  0.8843
  187SAPI   C2521484   0.905   4.211   6.832  0.8084  0.8337 -0.3106
  187SAPI   H5R21485   0.846   4.155   6.758  1.4363  0.0733 -0.2440
  187SAPI   C2621486   0.857   4.245   6.949 -0.3022 -0.0892 -0.4131
  187SAPI   H6R21487   0.769   4.190   6.988  1.1522 -1.9837  0.2874
  187SAPI   C2721488   0.941   4.321   7.045 -0.6674 -0.4554  0.3734
  187SAPI   H7R21489   1.049   4.322   7.020 -0.7408  0.2150  0.0744
  187SAPI   H7S21490   0.927   4.276   7.146 -1.1937  0.0527  0.5282
  187SAPI   C2821491   0.882   4.459   7.048  0.4704  0.8526 -0.2302
  187SAPI   H8R21492   0.869   4.504   6.948  0.5297  2.4949  0.4793
  187SAPI   C2921493   0.864   4.538   7.160  0.2091  0.6868 -0.1868
  187SAPI   H9R21494   0.793   4.622   7.170  1.0437  1.1323  2.4160
  187SAPI  C21021495   0.889   4.483   7.302  0.4219 -0.2772  0.1084
  187SAPI  H10R21496   0.965   4.402   7.301  0.9640  0.2270 -0.5460
  187SAPI  H10S21497   0.805   4.423   7.341  0.3354 -2.1755 -2.8467
  187SAPI  C21121498   0.930   4.583   7.407  0.0739 -0.3994 -0.5027
  187SAPI  H11R21499   0.938   4.685   7.367  1.7178 -0.2650  0.1634
  187SAPI  C21221500   0.957   4.556   7.535  0.0281 -0.3072 -0.2834
  187SAPI  H12R21501   0.972   4.648   7.593 -0.3664  0.8124 -1.8904
  187SAPI  C21321502   0.954   4.422   7.599  0.1857 -0.3839  0.1148
  187SAPI  H13R21503   0.958   4.345   7.519 -1.0875 -1.9828  1.5264
  187SAPI  H13S21504   0.858   4.406   7.652 -1.8309  4.4491 -1.8340
  187SAPI  C21421505   1.077   4.408   7.690  0.3483  0.1811  0.1501
  187SAPI  H14R21506   1.151   4.359   7.626  1.8562  1.6891  0.6915
  187SAPI  C21521507   1.103   4.461   7.807  0.0071 -0.2174  0.0253
  187SAPI  H15R21508   1.188   4.426   7.867 -1.8779 -0.8759  2.4077
  187SAPI  C21621509   0.997   4.543   7.879  0.1637  0.4319 -0.0067
  187SAPI  H16R21510   0.895   4.534   7.835 -0.0636 -2.9175  1.0249
  187SAPI  H16S21511   1.032   4.647   7.867  1.6107 -0.1273 -0.8448
  187SAPI  C21721512   0.983   4.501   8.026 -0.2606  0.4608 -0.2622
  187SAPI  H17R21513   0.959   4.393   8.033 -1.4073  0.5770 -2.1897
  187SAPI  H17S21514   0.889   4.550   8.059 -0.1520  1.1586 -0.9844
  187SAPI  C21821515   1.103   4.542   8.113  0.0026  0.1948  0.4260
  187SAPI  H18R21516   1.138   4.645   8.092 -0.7502  0.5666  0.9289
  187SAPI  H18S21517   1.191   4.482   8.082  2.2062  2.3824  2.3006
  187SAPI  C21921518   1.062   4.532   8.265  0.0974  0.1169 -0.1071
  187SAPI  H19R21519   1.049   4.425   8.292 -1.9104  0.7121  1.4714
  187SAPI  H19S21520   0.967   4.588   8.284  0.9764  1.3851  0.6118
  187SAPI  C22021521   1.177   4.589   8.346  1.1100 -0.7358 -0.0789
  187SAPI  H20R21522   1.260   4.516   8.337 -0.3580 -2.5465  0.6889
  187SAPI  H20S21523   1.163   4.603   8.456 -0.5555  0.5856 -0.4316
  187SAPI  H20T21524   1.231   4.676   8.304  0.8512 -1.0993 -1.1732
  187SAPI   C3321525   1.519   3.815   7.179  0.5616  0.1652  0.1119
  187SAPI   H3X21526   1.627   3.791   7.181  0.4168 -0.7268 -1.4283
  187SAPI   H3Y21527   1.466   3.740   7.242 -1.5350  2.2231  0.8780
  187SAPI   C3421528   1.477   3.939   7.257 -0.1970 -0.4800  0.8012
  187SAPI   H4X21529   1.367   3.950   7.263 -0.0465  1.4906  0.3301
  187SAPI   H4Y21530   1.510   4.024   7.193 -0.7635 -1.7585 -1.1977
  187SAPI   C3521531   1.550   3.939   7.392 -0.1083 -0.1153  0.7948
  187SAPI   H5X21532   1.658   3.948   7.369 -1.0255 -0.1440 -3.9013
  187SAPI   H5Y21533   1.532   3.842   7.445  0.6078  0.1642  1.5676
  187SAPI   C3621534   1.488   4.046   7.477  0.1148  0.0782  0.2245
  187SAPI   H6X21535   1.378   4.033   7.473 -0.1804  2.5188 -0.6119
  187SAPI   H6Y21536   1.515   4.141   7.426 -1.0360  1.3409  1.9106
  187SAPI   C3721537   1.526   4.035   7.625 -0.7558  0.0881 -0.7172
  187SAPI   H7X21538   1.634   4.011   7.635 -0.5406  1.4399  0.4891
  187SAPI   H7Y21539   1.480   3.944   7.668  0.1970 -0.3489 -0.5980
  187SAPI   C3821540   1.498   4.164   7.705  0.1330  0.0899 -0.1866
  187SAPI   H8X21541   1.400   4.204   7.672  0.9431  3.4673  1.3248
  187SAPI   H8Y21542   1.563   4.243   7.663 -0.1452  1.0452  1.1450
  187SAPI   C3921543   1.510   4.153   7.858 -0.0460 -0.2258  0.1572
  187SAPI   H9X21544   1.554   4.247   7.899 -3.7988  2.2330 -1.1287
  187SAPI   H9Y21545   1.572   4.067   7.892 -0.0395 -0.3920 -0.2836
  187SAPI  C31021546   1.370   4.134   7.925  0.0989 -0.1512 -0.7622
  187SAPI  H10X21547   1.320   4.045   7.881 -1.7610  0.5786 -0.1640
  187SAPI  H10Y21548   1.307   4.217   7.888 -2.6892 -3.0091 -2.6625
  187SAPI  C31121549   1.375   4.124   8.082 -0.1672 -0.4420  0.4767
  187SAPI  H11X21550   1.428   4.031   8.112  0.3022 -0.7739 -1.3420
  187SAPI  H11Y21551   1.269   4.123   8.117 -0.3832  0.6791 -0.1273
  187SAPI  C31221552   1.447   4.239   8.139  0.1777  0.0522 -0.3217
  187SAPI  H12X21553   1.393   4.333   8.112  0.4176  1.1078  2.6547
  187SAPI  H12Y21554   1.556   4.244   8.121  0.0557  0.5438 -0.9537
  187SAPI  C31321555   1.428   4.234   8.298  0.1462  0.6551 -0.7407
  187SAPI  H13X21556   1.482   4.150   8.346 -1.0576  1.5300  2.2675
  187SAPI  H13Y21557   1.319   4.246   8.316  0.0528  1.0090 -1.5191
  187SAPI  C31421558   1.493   4.350   8.367 -0.7112 -0.2447 -0.3066
  187SAPI  H14X21559   1.463   4.447   8.322  1.9579 -0.0059 -1.6686
  187SAPI  H14Y21560   1.601   4.345   8.339 -0.7886  1.8027 -1.1073
  187SAPI  C31521561   1.475   4.355   8.521  0.9408 -0.2807  0.2610
  187SAPI  H15X21562   1.536   4.270   8.558 -1.8848 -1.6180  2.1172
  187SAPI  H15Y21563   1.368   4.354   8.552  0.3346  1.4751 -1.6452
  187SAPI  C31621564   1.543   4.493   8.562 -0.7758 -0.3489  0.3074
  187SAPI  H16X21565   1.489   4.577   8.512 -0.4570 -1.5193 -2.0402
  187SAPI  H16Y21566   1.644   4.481   8.517  0.4738  1.0549  2.6605
  187SAPI  C31721567   1.552   4.513   8.709  0.1458  0.3254  0.3338
  187SAPI  H17X21568   1.447   4.524   8.742  0.5276 -0.6778  1.9594
  187SAPI  H17Y21569   1.601   4.610   8.730  1.0250 -0.4190  1.7409
  187SAPI  C31821570   1.601   4.391   8.791 -0.0765  0.7884 -0.1933
  187SAPI  H18X21571   1.694   4.348   8.749 -0.7488 -1.5603  0.6377
  187SAPI  H18Y21572   1.519   4.316   8.787  1.0557 -0.4250 -0.9304
  187SAPI  H18Z21573   1.605   4.428   8.896 -0.3346  0.4867 -0.0790
  188SAPI   C1221574   2.175   1.285   6.520  0.3857  0.2288 -0.2408
  188SAPI    H221575   2.128   1.256   6.616 -1.6033  1.0867 -0.9349
  188SAPI    O221576   2.083   1.291   6.406  0.1416 -0.1849 -0.0561
  188SAPI   HO221577   2.051   1.204   6.382  1.7141 -1.0095  0.7200
  188SAPI   C1321578   2.228   1.427   6.544  0.0383 -0.3088 -0.0750
  188SAPI    H321579   2.304   1.432   6.625 -1.0309  1.7177  0.8655
  188SAPI    O321580   2.125   1.518   6.578 -0.0963  0.2202  0.6216
  188SAPI   HO321581   2.159   1.604   6.601 -2.4389  1.6964 -1.1463
  188SAPI   C1421582   2.304   1.480   6.422  0.2370 -0.1896 -0.2189
  188SAPI    H421583   2.241   1.461   6.333 -2.2748 -2.3320  1.9264
  188SAPI    O421584   2.346   1.614   6.423  0.2540 -0.2568  0.3250
  188SAPI   HO421585   2.278   1.664   6.378  0.1068 -1.2890 -0.6416
  188SAPI   C1521586   2.432   1.388   6.394 -0.2512 -0.2419  0.3219
  188SAPI    H521587   2.490   1.383   6.488 -1.6772 -0.7862  1.1871
  188SAPI    O521588   2.507   1.442   6.283 -0.0115 -0.4055 -0.1287
  188SAPI   HO521589   2.518   1.536   6.299 -2.7039  0.2268 -1.6840
  188SAPI   C1621590   2.371   1.250   6.365 -0.0253  0.0776  0.8862
  188SAPI    H621591   2.306   1.245   6.276  2.6558 -1.3355 -1.0786
  188SAPI    O621592   2.481   1.158   6.347 -0.5246 -0.1559  0.6041
  188SAPI   HO621593   2.476   1.088   6.412 -0.9461 -1.4196 -0.7674
  188SAPI   C1121594   2.290   1.198   6.486 -0.5807 -0.5490 -0.2724
  188SAPI    H121595   2.352   1.202   6.578  0.1864  1.6451 -0.8548
  188SAPI     P21596   2.302   0.922   6.521 -0.0879  0.2758 -0.0948
  188SAPI   O1321597   2.447   0.942   6.504 -0.8038 -0.4370  0.4851
  188SAPI   O1421598   2.232   0.817   6.441 -0.2910  0.0216 -0.0003
  188SAPI   O1221599   2.238   1.064   6.477 -0.0366 -0.5519 -0.8171
  188SAPI   O1121600   2.263   0.907   6.671  0.4554  0.1428  0.0680
  188SAPI    C121601   2.131   0.879   6.712 -0.6635  0.6097 -0.6414
  188SAPI    HA21602   2.086   0.971   6.756 -0.6199  0.5603 -0.4952
  188SAPI    HB21603   2.060   0.886   6.627  0.2715 -1.1904 -1.5872
  188SAPI    C221604   2.112   0.756   6.802 -0.1456 -0.3391 -0.3173
  188SAPI    HS21605   2.004   0.744   6.822 -0.6023  3.0353 -0.4499
  188SAPI   O2121606   2.189   0.765   6.926  0.4485  0.1329 -0.7437
  188SAPI   C2121607   2.133   0.856   7.014 -0.3459  0.4043  0.3363
  188SAPI   O2221608   2.027   0.907   6.995 -0.7183 -0.0735 -0.2319
  188SAPI   C2221609   2.215   0.855   7.140  0.1791 -0.6357  0.6958
  188SAPI   H2R21610   2.210   0.758   7.193 -0.8460 -0.9512  0.0249
  188SAPI   H2S21611   2.321   0.868   7.109  0.5058 -0.7482  1.7372
  188SAPI    C321612   2.162   0.632   6.724  0.4145  1.3731  0.2928
  188SAPI    HX21613   2.271   0.644   6.705  0.5631 -1.6708 -0.8963
  188SAPI    HY21614   2.113   0.630   6.625  2.0966  1.9262 -0.5634
  188SAPI   O3121615   2.123   0.520   6.808 -0.2699 -0.3037  0.4327
  188SAPI   C3121616   2.217   0.420   6.803 -0.5292 -0.1334 -0.2140
  188SAPI   O3221617   2.331   0.440   6.763  0.5541  0.3044  0.0721
  188SAPI   C3221618   2.157   0.285   6.853 -0.3137 -0.2596  0.6883
  188SAPI   H2X21619   2.171   0.205   6.777  3.1070  0.0531  0.8773
  188SAPI   H2Y21620   2.048   0.296   6.870 -0.5025  1.6783 -1.4357
  188SAPI   C2321621   2.157   0.960   7.240  0.0446  0.0640 -0.1651
  188SAPI   H3R21622   2.053   0.937   7.272 -0.2287 -0.8790 -1.6722
  188SAPI   H3S21623   2.157   1.058   7.188  2.1297  0.2549  0.1482
  188SAPI   C2421624   2.245   0.977   7.367  1.0449 -0.2120  0.3548
  188SAPI   H4R21625   2.345   0.994   7.323  0.5885 -0.1166 -0.6573
  188SAPI   H4S21626   2.240   0.881   7.424  1.1337 -1.5958 -1.9016
  188SAPI   C2521627   2.217   1.103   7.450 -0.0232  0.2411 -0.0628
  188SAPI   H5R21628   2.212   1.200   7.398  0.3779 -0.4683 -1.4408
  188SAPI   C2621629   2.192   1.102   7.582 -0.7921  0.2009 -0.4440
  188SAPI   H6R21630   2.171   1.203   7.620 -0.1787  0.0698  0.2565
  188SAPI   C2721631   2.175   0.989   7.678  0.5792  0.5490  0.4020
  188SAPI   H7R21632   2.180   0.887   7.634 -0.2914  0.4556  0.5238
  188SAPI   H7S21633   2.080   0.985   7.736  1.6389 -0.1949  2.1336
  188SAPI   C2821634   2.286   0.992   7.778 -0.8015  0.4661  0.2235
  188SAPI   H8R21635   2.367   0.924   7.749 -1.6662 -0.5411  0.1148
  188SAPI   C2921636   2.278   1.031   7.908  0.0625 -0.3485  1.0419
  188SAPI   H9R21637   2.373   1.029   7.963 -0.6987 -2.3163  2.3468
  188SAPI  C21021638   2.170   1.103   7.985  0.0779  0.2606  0.5900
  188SAPI  H10R21639   2.092   1.141   7.916 -1.0999 -0.5291  1.4619
  188SAPI  H10S21640   2.221   1.198   8.012 -1.0930  1.1131 -0.1220
  188SAPI  C21121641   2.110   1.034   8.106 -0.7637 -0.0851 -0.4868
  188SAPI  H11R21642   2.110   0.924   8.110  2.2025 -0.0874  0.7115
  188SAPI  C21221643   2.054   1.101   8.209  0.1640 -0.5697 -0.0769
  188SAPI  H12R21644   1.988   1.054   8.282  1.1297 -1.3270  0.3266
  188SAPI  C21321645   2.056   1.256   8.206  0.3049  0.9563 -0.5317
  188SAPI  H13R21646   1.961   1.297   8.245 -0.4603 -0.7315 -0.5445
  188SAPI  H13S21647   2.068   1.298   8.104  1.0130  1.6441 -0.1730
  188SAPI  C21421648   2.170   1.322   8.285  0.7132 -0.1117  0.0308
  188SAPI  H14R21649   2.255   1.252   8.292  0.6600 -0.1722  0.0765
  188SAPI  C21521650   2.185   1.447   8.325 -0.1731 -0.0351 -0.0277
  188SAPI  H15R21651   2.275   1.489   8.372 -0.6105  1.0322 -0.1368
  188SAPI  C21621652   2.077   1.556   8.301 -0.1584 -0.5797  0.2943
  188SAPI  H16R21653   1.987   1.523   8.244  0.5247 -2.7201  0.4198
  188SAPI  H16S21654   2.115   1.638   8.236  0.7747 -1.0183  0.2717
  188SAPI  C21721655   2.034   1.629   8.425  0.6253  0.0523 -0.2476
  188SAPI  H17R21656   1.950   1.571   8.470  0.3653  1.8929  1.7157
  188SAPI  H17S21657   1.989   1.728   8.404  0.5227  0.1814  0.5426
  188SAPI  C21821658   2.147   1.677   8.535  0.2715  0.1455  0.3429
  188SAPI  H18R21659   2.205   1.590   8.573 -0.9866  0.6784  3.5812
  188SAPI  H18S21660   2.090   1.707   8.625  2.4703  1.1895  1.4426
  188SAPI  C21921661   2.246   1.795   8.498  0.1601 -0.5313  0.6041
  188SAPI  H19R21662   2.338   1.767   8.442  0.1393  0.4932  0.0389
  188SAPI  H19S21663   2.298   1.813   8.594  0.2437  3.2069 -0.0573
  188SAPI  C22021664   2.174   1.916   8.439  0.2756 -0.5931 -0.5456
  188SAPI  H20R21665   2.130   1.892   8.339 -0.4676  0.7220 -0.5453
  188SAPI  H20S21666   2.245   1.999   8.420  1.0284 -1.4522 -1.5939
  188SAPI  H20T21667   2.081   1.953   8.487 -1.1882  0.5417 -4.0407
  188SAPI   C3321668   2.236   0.231   6.979  0.2345  0.1663  0.1774
  188SAPI   H3X21669   2.338   0.273   6.975  0.1824  0.1593 -1.5270
  188SAPI   H3Y21670   2.250   0.121   6.982  3.8416  0.6319  2.3553
  188SAPI   C3421671   2.163   0.256   7.101 -0.3393 -0.1196 -0.0578
  188SAPI   H4X21672   2.067   0.200   7.094 -0.4421  0.4683 -4.1699
  188SAPI   H4Y21673   2.135   0.363   7.113 -1.2680 -0.3371 -0.2764
  188SAPI   C3521674   2.228   0.221   7.231  0.0305 -0.2689 -0.4943
  188SAPI   H5X21675   2.265   0.117   7.245  0.5718  0.2653  2.1910
  188SAPI   H5Y21676   2.146   0.227   7.306 -2.0149 -0.9576 -2.5951
  188SAPI   C3621677   2.347   0.313   7.270  0.4651 -0.1746 -0.1362
  188SAPI   H6X21678   2.306   0.415   7.256 -1.2434 -0.6049  1.5011
  188SAPI   H6Y21679   2.436   0.300   7.205  1.3550  1.8507  0.6387
  188SAPI   C3721680   2.395   0.298   7.417  0.2010  0.1252  0.2825
  188SAPI   H7X21681   2.423   0.191   7.432  3.0537  1.0555  1.8975
  188SAPI   H7Y21682   2.314   0.320   7.491  1.9615  2.5840  1.5323
  188SAPI   C3821683   2.503   0.403   7.456 -1.1021  0.7229 -0.2076
  188SAPI   H8X21684   2.458   0.503   7.476 -0.3412  1.0986 -0.3652
  188SAPI   H8Y21685   2.578   0.397   7.375 -0.9404 -0.2674  0.0115
  188SAPI   C3921686   2.574   0.344   7.577  0.5552 -0.3259  0.6501
  188SAPI   H9X21687   2.684   0.358   7.565  0.5650 -1.0796 -0.1973
  188SAPI   H9Y21688   2.575   0.234   7.593 -0.0522 -0.1871  1.6612
  188SAPI  C31021689   2.523   0.403   7.713  0.2149  0.1304  0.1081
  188SAPI  H10X21690   2.415   0.381   7.711  0.1887  0.2205  0.5428
  188SAPI  H10Y21691   2.533   0.514   7.711  0.1906  0.1904  2.3141
  188SAPI  C31121692   2.590   0.354   7.836  0.0922  0.7269 -0.3718
  188SAPI  H11X21693   2.701   0.352   7.824 -0.2072 -2.1711 -3.4621
  188SAPI  H11Y21694   2.551   0.251   7.852  3.4871 -0.9959 -2.3991
  188SAPI  C31221695   2.565   0.435   7.965  0.3810 -0.6726  0.0043
  188SAPI  H12X21696   2.593   0.374   8.053  0.4963 -0.5470  0.0551
  188SAPI  H12Y21697   2.458   0.464   7.973  0.4997 -0.0640 -0.5288
  188SAPI  C31321698   2.659   0.559   7.973  0.4119  0.2421  0.4162
  188SAPI  H13X21699   2.662   0.610   7.874 -1.3521 -2.6199 -1.1685
  188SAPI  H13Y21700   2.762   0.521   7.994  0.6556 -0.0411 -1.2319
  188SAPI  C31421701   2.621   0.658   8.081 -0.1400 -0.7423 -0.5350
  188SAPI  H14X21702   2.618   0.613   8.182  0.5578  1.0798  0.3225
  188SAPI  H14Y21703   2.520   0.699   8.059  0.2992  0.0219 -1.2054
  188SAPI  C31521704   2.712   0.775   8.089  0.3093  0.3291  0.6952
  188SAPI  H15X21705   2.712   0.842   8.001  0.4204 -2.3021 -1.3551
  188SAPI  H15Y21706   2.816   0.743   8.112  0.1549 -0.3068  0.5150
  188SAPI  C31621707   2.683   0.865   8.218 -0.0238  0.5186  0.0355
  188SAPI  H16X21708   2.692   0.801   8.308 -1.7459 -1.0481 -0.8747
  188SAPI  H16Y21709   2.579   0.905   8.216  0.0761  1.0642  3.0453
  188SAPI  C31721710   2.777   0.985   8.236  0.3631 -0.9453  0.1014
  188SAPI  H17X21711   2.781   1.048   8.145  0.9300 -2.1051 -0.6833
  188SAPI  H17Y21712   2.878   0.947   8.262  1.3270 -0.5282 -2.8972
  188SAPI  C31821713   2.729   1.086   8.345  0.1816 -0.3646  0.1388
  188SAPI  H18X21714   2.743   1.053   8.450  1.1861  0.2784  0.2140
  188SAPI  H18Y21715   2.622   1.108   8.322  0.2634 -1.3583 -1.2362
  188SAPI  H18Z21716   2.793   1.177   8.336  0.7072 -0.6533  0.8961
  189POPC     N21717   2.807   1.796  11.201 -0.0641  0.9054  0.0565
  189POPC   C1221718   2.812   1.805  11.054  0.1668 -0.0514  0.2816
  189POPC  H12A21719   2.791   1.710  11.008  2.6960  0.0691 -1.2524
  189POPC  H12B21720   2.915   1.817  11.025  0.3522  0.4005  1.1228
  189POPC   C1321721   2.664   1.785  11.248  0.1839 -0.2346  0.6517
  189POPC  H13A21722   2.668   1.780  11.356  0.5352  1.6045  0.7411
  189POPC  H13B21723   2.608   1.874  11.224  1.5126  0.3836 -0.2201
  189POPC  H13C21724   2.620   1.688  11.227  2.1908 -1.3038  1.2569
  189POPC   C1421725   2.896   1.679  11.251  0.1151 -0.0322  0.2480
  189POPC  H14A21726   2.996   1.682  11.211 -0.7062  0.2102 -1.8163
  189POPC  H14B21727   2.912   1.675  11.358  1.2516  3.3330  0.2453
  189POPC  H14C21728   2.851   1.585  11.221 -1.0801  0.6151 -0.0268
  189POPC   C1521729   2.867   1.922  11.255  0.5740 -0.1964  0.6300
  189POPC  H15A21730   2.972   1.936  11.233  0.3457  2.4639  1.0560
  189POPC  H15B21731   2.865   1.934  11.362  2.7159  0.5057  0.6239
  189POPC  H15C21732   2.812   2.005  11.213  0.6138  0.8164  2.5280
  189POPC   C1121733   2.734   1.910  10.969  0.6643 -0.6698 -0.0548
  189POPC  H11A21734   2.627   1.878  10.964  0.3916  0.2003  0.0998
  189POPC  H11B21735   2.770   1.917  10.865  2.4908 -1.6650  0.4949
  189POPC     P21736   2.597   2.114  11.073  0.2720 -0.0511  0.3615
  189POPC   O1321737   2.616   2.257  11.040  0.4435  0.0231 -0.5938
  189POPC   O1421738   2.567   2.083  11.212 -0.3956  0.2953  0.1123
  189POPC   O1221739   2.729   2.046  11.024  0.4150  0.4378  0.5937
  189POPC   O1121740   2.483   2.048  10.978  0.9411 -0.1931 -0.7171
  189POPC    C121741   2.416   2.132  10.883 -0.3535  0.1000  0.1654
  189POPC    HA21742   2.418   2.240  10.908  1.2496 -0.0713  0.8720
  189POPC    HB21743   2.307   2.107  10.886 -0.8383  2.1106 -0.3483
  189POPC    C221744   2.476   2.108  10.741  0.2108  0.1853 -0.4774
  189POPC    HS21745   2.405   2.136  10.660  1.9640  1.7235 -1.5231
  189POPC   O2121746   2.515   1.972  10.726  0.1196  0.0873  0.1818
  189POPC   C2121747   2.417   1.889  10.693 -0.0218 -0.1064  0.0566
  189POPC   O2221748   2.297   1.908  10.678 -0.6767 -0.2258  0.0891
  189POPC   C2221749   2.483   1.758  10.676 -0.3630 -0.0910 -0.0054
  189POPC   H2R21750   2.517   1.733  10.779  0.3300 -1.2195 -0.4962
  189POPC   H2S21751   2.578   1.759  10.619 -0.2739  1.1466  0.1627
  189POPC    C321752   2.606   2.188  10.702 -0.2657  0.5870  0.5140
  189POPC    HX21753   2.673   2.169  10.789 -0.6856 -0.9173  0.5170
  189POPC    HY21754   2.570   2.293  10.692 -1.1384  0.1999 -0.4850
  189POPC   O3121755   2.670   2.136  10.591 -0.4397  0.0470  0.2247
  189POPC   C3121756   2.628   2.172  10.471  0.1892  0.4146  0.1589
  189POPC   O3221757   2.532   2.242  10.453 -0.6482  0.0679 -0.6293
  189POPC   C3221758   2.717   2.116  10.370 -0.2474 -0.4081 -0.1779
  189POPC   H2X21759   2.741   2.010  10.393  0.7114 -0.4870 -1.4524
  189POPC   H2Y21760   2.809   2.177  10.368 -1.1647  0.9804 -1.6459
  189POPC   C2321761   2.388   1.651  10.614  0.0338 -0.0365  0.3923
  189POPC   H3R21762   2.297   1.650  10.678  1.7904 -0.2384  2.9298
  189POPC   H3S21763   2.425   1.549  10.636  0.1666  0.6546  3.5902
  189POPC   C2421764   2.351   1.673  10.469  0.4097 -0.5019  0.3017
  189POPC   H4R21765   2.285   1.762  10.460 -0.4174 -1.1873 -0.5469
  189POPC   H4S21766   2.286   1.588  10.437 -2.1078  0.5888  2.3571
  189POPC   C2521767   2.469   1.696  10.378  0.6944  0.4655 -0.4031
  189POPC   H5R21768   2.556   1.637  10.414 -0.2795 -0.6676  0.1292
  189POPC   H5S21769   2.508   1.800  10.381  0.7926  0.4025  0.6121
  189POPC   C2621770   2.461   1.661  10.227  0.4157 -0.1905 -0.5811
  189POPC   H6R21771   2.380   1.721  10.180 -0.3720 -1.7550 -1.2293
  189POPC   H6S21772   2.423   1.557  10.216 -1.7269  0.4129  0.8084
  189POPC   C2721773   2.591   1.704  10.147  0.2798  0.5361 -0.5786
  189POPC   H7R21774   2.669   1.630  10.174  0.1713  0.9074  0.7910
  189POPC   H7S21775   2.622   1.807  10.176  0.4670 -0.1032  1.5725
  189POPC   C2821776   2.564   1.700   9.993  0.6442  0.6375  0.1378
  189POPC   H8R21777   2.648   1.746   9.938  0.9285 -1.7044 -1.4857
  189POPC   H8S21778   2.476   1.764   9.970  0.0683  0.1363  0.8967
  189POPC   C2921779   2.544   1.562   9.948 -0.4653  0.2585 -0.7813
  189POPC   H9121780   2.505   1.496  10.027 -0.2840  1.5151  0.3755
  189POPC  C21021781   2.570   1.500   9.835  0.3227 -0.6591  0.2417
  189POPC  H10121782   2.542   1.394   9.838 -1.2687 -0.2153  3.7357
  189POPC  C21121783   2.624   1.559   9.701  0.1660  0.5866 -0.0814
  189POPC  H11R21784   2.732   1.533   9.710  1.0355  3.5054 -1.4835
  189POPC  H11S21785   2.612   1.669   9.695  0.9058  0.6016 -1.3046
  189POPC  C21221786   2.588   1.484   9.573  0.3130  0.5773  0.5142
  189POPC  H12R21787   2.595   1.540   9.478 -3.8820 -1.5933 -1.1966
  189POPC  H12S21788   2.479   1.464   9.574 -0.0367  2.3815  2.6022
  189POPC  C21321789   2.665   1.350   9.548 -0.0951  0.2160 -0.5279
  189POPC  H13R21790   2.651   1.273   9.627 -0.3609  0.9362  0.1378
  189POPC  H13S21791   2.775   1.369   9.556 -0.1594 -0.0830  1.3110
  189POPC  C21421792   2.623   1.294   9.414  0.0095 -0.2179 -0.0629
  189POPC  H14R21793   2.514   1.283   9.397 -0.6252  2.3587  2.0516
  189POPC  H14S21794   2.671   1.194   9.403  1.0729  0.2916 -0.1162
  189POPC  C21521795   2.668   1.378   9.293  0.2500 -0.0075  0.1203
  189POPC  H15R21796   2.770   1.415   9.317 -0.7300  2.5113  0.5209
  189POPC  H15S21797   2.604   1.467   9.273  1.2497  0.8134  0.5478
  189POPC  C21621798   2.670   1.294   9.160  0.4107  1.0079 -0.8584
  189POPC  H16R21799   2.565   1.267   9.140  0.8412  0.3986 -2.3208
  189POPC  H16S21800   2.736   1.205   9.169  0.1124  0.9703  1.2742
  189POPC  C21721801   2.733   1.374   9.032  0.2210  0.4345 -0.4524
  189POPC  H17R21802   2.842   1.379   9.053 -0.1045  0.2147  1.3514
  189POPC  H17S21803   2.685   1.474   9.024 -0.8296  0.2314  2.7143
  189POPC  C21821804   2.713   1.303   8.894  0.1580 -0.1458 -0.1474
  189POPC  H18R21805   2.776   1.211   8.891  1.1854  0.5855 -1.1246
  189POPC  H18S21806   2.752   1.360   8.808  1.4188 -1.3088 -0.3602
  189POPC  H18T21807   2.605   1.279   8.883  0.6530 -2.7936  0.2165
  189POPC   C3321808   2.662   2.122  10.229 -0.6364  0.5781  0.6868
  189POPC   H3X21809   2.640   2.224  10.189 -0.9531 -0.1608 -1.0956
  189POPC   H3Y21810   2.564   2.070  10.219  0.5827 -1.2662 -2.3093
  189POPC   C3421811   2.759   2.057  10.129  0.5105 -0.9948  0.3888
  189POPC   H4X21812   2.794   1.955  10.155  1.9610 -0.5439  0.2542
  189POPC   H4Y21813   2.851   2.119  10.129  2.5149 -3.8332  1.1923
  189POPC   C3521814   2.697   2.040   9.989  0.3497 -1.1565 -0.2387
  189POPC   H5X21815   2.659   2.142   9.969  3.3913  0.1584  0.3520
  189POPC   H5Y21816   2.610   1.971   9.989  0.0590 -0.7934 -0.6062
  189POPC   C3621817   2.794   1.983   9.878 -0.2819  0.1305 -0.3971
  189POPC   H6X21818   2.810   1.873   9.870 -0.5242  0.0646  0.0256
  189POPC   H6Y21819   2.900   2.015   9.887 -0.4463  2.0043 -4.1030
  189POPC   C3721820   2.771   2.030   9.733  0.6449  1.0516  0.0744
  189POPC   H7X21821   2.790   2.139   9.726 -0.8001  1.3148  0.0794
  189POPC   H7Y21822   2.670   2.010   9.690  0.9219 -0.6114  0.1732
  189POPC   C3821823   2.854   1.963   9.634  0.7791  0.1830  0.1045
  189POPC   H8X21824   2.838   1.854   9.643 -0.3578  0.2423 -1.0084
  189POPC   H8Y21825   2.962   1.987   9.644  0.2388  2.4303  0.9358
  189POPC   C3921826   2.825   2.006   9.489 -0.0791 -0.4668 -0.2172
  189POPC   H9X21827   2.846   2.115   9.477 -0.2088 -0.5299 -1.0491
  189POPC   H9Y21828   2.715   1.995   9.482 -0.1788  0.5058 -0.3451
  189POPC  C31021829   2.916   1.923   9.383 -0.4058 -0.2432  0.1610
  189POPC  H10X21830   3.022   1.951   9.400  0.1896 -2.6054  0.5781
  189POPC  H10Y21831   2.885   1.962   9.284 -0.5728  1.0228  0.6948
  189POPC  C31121832   2.895   1.768   9.387  0.0983  0.0918 -0.0282
  189POPC  H11X21833   2.789   1.737   9.373 -0.0101 -0.4322  1.8602
  189POPC  H11Y21834   2.925   1.728   9.486  2.0755 -0.2086 -0.7184
  189POPC  C31221835   3.001   1.700   9.289  0.1664 -0.2450 -0.4237
  189POPC  H12X21836   3.039   1.610   9.341 -0.4539 -0.5348 -0.4667
  189POPC  H12Y21837   3.088   1.768   9.278 -0.5102  0.7370  0.2049
  189POPC  C31321838   2.949   1.665   9.152  0.0277 -0.0748 -0.0499
  189POPC  H13X21839   2.851   1.712   9.131 -0.9799 -0.3335  3.8311
  189POPC  H13Y21840   2.920   1.558   9.155  2.4844 -0.8614 -2.3176
  189POPC  C31421841   3.053   1.680   9.038 -0.1297  0.3348 -0.2274
  189POPC  H14X21842   3.150   1.641   9.075 -1.3049 -1.4731  0.9797
  189POPC  H14Y21843   3.061   1.791   9.026  0.0824  0.3245 -0.1778
  189POPC  C31521844   3.011   1.609   8.912 -0.5579 -1.0383  0.4419
  189POPC  H15X21845   2.903   1.626   8.892 -0.2111 -0.9449 -1.5497
  189POPC  H15Y21846   3.013   1.500   8.933 -0.8364 -1.3920 -1.2515
  189POPC  C31621847   3.097   1.629   8.793  0.0200 -0.0726  0.0996
  189POPC  H16X21848   3.079   1.545   8.723 -1.6567  0.1364  0.2563
  189POPC  H16Y21849   3.205   1.618   8.815 -0.9832 -2.1498  4.7168
  189POPC  H16Z21850   3.082   1.714   8.723  2.3470 -0.0545 -0.3983
  190POPC     N21851   4.006   4.340  11.312 -0.3294  0.6444 -0.5357
  190POPC   C1221852   4.107   4.341  11.200  0.2723  0.2469 -0.1906
  190POPC  H12A21853   4.117   4.443  11.165 -2.6174  0.6770  0.1539
  190POPC  H12B21854   4.073   4.280  11.118  0.6806 -0.9958  0.5474
  190POPC   C1321855   4.022   4.199  11.366 -0.7025 -0.8636 -0.3034
  190POPC  H13A21856   3.948   4.165  11.438  0.4513  0.6433  1.6568
  190POPC  H13B21857   4.026   4.130  11.284  0.2321 -0.6377 -0.4512
  190POPC  H13C21858   4.117   4.190  11.416 -1.0121 -2.3194  0.0321
  190POPC   C1421859   4.029   4.431  11.426  0.2532  0.2412 -0.4044
  190POPC  H14A21860   3.956   4.418  11.505 -0.4533 -1.4830 -1.3181
  190POPC  H14B21861   4.118   4.418  11.485 -0.6823  0.6539  1.1298
  190POPC  H14C21862   4.032   4.534  11.392  0.3702  0.3513 -0.0704
  190POPC   C1521863   3.868   4.357  11.270 -0.1597 -0.0333 -0.1001
  190POPC  H15A21864   3.841   4.301  11.182  0.9889  0.2669 -0.6587
  190POPC  H15B21865   3.843   4.460  11.251  0.9512 -0.1086 -2.0691
  190POPC  H15C21866   3.794   4.341  11.346  0.6759 -0.0516  0.7209
  190POPC   C1121867   4.252   4.307  11.259  0.4605  0.2883 -0.4116
  190POPC  H11A21868   4.260   4.199  11.285 -0.1617  0.2708 -0.2885
  190POPC  H11B21869   4.266   4.382  11.341 -0.0366 -2.3458  2.1632
  190POPC     P21870   4.388   4.461  11.087  0.2984  0.0435 -0.1743
  190POPC   O1321871   4.521   4.505  11.136  0.2555  0.5378 -0.0993
  190POPC   O1421872   4.276   4.553  11.115 -0.1556 -0.0360 -1.0216
  190POPC   O1221873   4.354   4.323  11.160 -0.2584 -0.0110  0.1590
  190POPC   O1121874   4.377   4.427  10.928 -0.2061 -0.1883 -0.6625
  190POPC    C121875   4.471   4.341  10.871  0.3136 -0.7141  0.2797
  190POPC    HA21876   4.421   4.274  10.799  1.6076  0.6225 -1.9152
  190POPC    HB21877   4.536   4.278  10.936  1.8736 -0.8118 -1.3464
  190POPC    C221878   4.579   4.417  10.788 -0.6478 -0.5379  0.0224
  190POPC    HS21879   4.636   4.486  10.853  0.0133 -2.6647  1.7318
  190POPC   O2121880   4.520   4.496  10.683  0.5931  0.3696 -0.3778
  190POPC   C2121881   4.584   4.599  10.628  0.1729 -0.1147 -0.8686
  190POPC   O2221882   4.689   4.647  10.672 -0.0406 -0.1454  0.2811
  190POPC   C2221883   4.497   4.649  10.511  0.0825 -0.8563 -0.0981
  190POPC   H2R21884   4.400   4.665  10.563 -1.5035 -1.6118 -2.7088
  190POPC   H2S21885   4.488   4.559  10.446  3.3602 -1.3084  0.0114
  190POPC    C321886   4.677   4.313  10.730  0.6557  0.3985  0.2611
  190POPC    HX21887   4.618   4.232  10.682  0.9919 -0.8426  1.8948
  190POPC    HY21888   4.730   4.259  10.811 -2.1756 -0.7409  1.4549
  190POPC   O3121889   4.753   4.371  10.626  0.5611 -0.1863  0.6687
  190POPC   C3121890   4.878   4.393  10.655  0.1557 -0.0275  0.9292
  190POPC   O3221891   4.948   4.349  10.745  0.6217  0.1571  0.3475
  190POPC   C3221892   4.943   4.472  10.541 -0.3999 -0.1621  0.0112
  190POPC   H2X21893   5.053   4.463  10.552 -0.6055 -0.8787  1.5274
  190POPC   H2Y21894   4.926   4.581  10.555  0.5093  0.3709 -2.5780
  190POPC   C2321895   4.555   4.771  10.440 -0.2378 -0.5726  1.0046
  190POPC   H3R21896   4.594   4.843  10.515 -0.0546 -0.3021  0.6558
  190POPC   H3S21897   4.472   4.819  10.384 -0.6971 -1.6983  0.7082
  190POPC   C2421898   4.674   4.737  10.346  0.4004  1.0665  0.2396
  190POPC   H4R21899   4.658   4.642  10.291 -1.5172  1.0899  0.7329
  190POPC   H4S21900   4.761   4.715  10.411 -0.9556 -2.3840  1.0163
  190POPC   C2521901   4.701   4.850  10.256  0.2738  0.1275  0.1908
  190POPC   H5R21902   4.808   4.853  10.226  1.5773 -3.1526  4.0932
  190POPC   H5S21903   4.682   4.940  10.319  1.8744  0.3329  0.4110
  190POPC   C2621904   4.613   4.844  10.132 -0.1638  0.0011 -0.3608
  190POPC   H6R21905   4.635   4.942  10.083  1.2814 -0.9683 -1.7070
  190POPC   H6S21906   4.506   4.847  10.162 -0.1113  1.4734 -0.2879
  190POPC   C2721907   4.629   4.722  10.044 -0.0617 -1.0766  0.1172
  190POPC   H7R21908   4.576   4.634  10.087  0.4489 -1.8019 -0.7160
  190POPC   H7S21909   4.739   4.711  10.036  0.1711 -0.4516  2.1484
  190POPC   C2821910   4.564   4.729   9.906  0.0292 -0.7665 -0.4304
  190POPC   H8R21911   4.454   4.736   9.918  0.1219  1.4660 -0.7338
  190POPC   H8S21912   4.580   4.631   9.855 -0.9080 -2.2486  2.0416
  190POPC   C2921913   4.594   4.851   9.825  0.2222 -0.1558  0.2216
  190POPC   H9121914   4.543   4.942   9.858  1.9375  0.6828  0.6167
  190POPC  C21021915   4.673   4.850   9.715 -0.1681 -1.0867  0.2358
  190POPC  H10121916   4.687   4.943   9.659 -1.7414  1.4354  3.8035
  190POPC  C21121917   4.751   4.732   9.664  0.4472  0.5596 -0.3081
  190POPC  H11R21918   4.742   4.639   9.724 -1.5222  0.1448 -1.1882
  190POPC  H11S21919   4.858   4.762   9.664 -0.0973  2.9643  4.1005
  190POPC  C21221920   4.719   4.698   9.517  0.4915  0.6900 -0.3724
  190POPC  H12R21921   4.800   4.625   9.494 -1.2304 -1.3720 -0.0868
  190POPC  H12S21922   4.745   4.784   9.452  1.8876 -0.5379 -1.4838
  190POPC  C21321923   4.579   4.645   9.472 -0.0369  0.0964 -0.1325
  190POPC  H13R21924   4.512   4.729   9.501 -0.6739  0.2457 -1.9628
  190POPC  H13S21925   4.532   4.553   9.514  1.6170 -1.4718 -1.6266
  190POPC  C21421926   4.573   4.638   9.318  0.0968  0.3419  0.0774
  190POPC  H14R21927   4.630   4.551   9.279 -0.9493 -0.0262 -0.6492
  190POPC  H14S21928   4.625   4.728   9.278  0.4312 -0.1705 -0.6436
  190POPC  C21521929   4.426   4.624   9.262 -0.1060  0.0256  0.3836
  190POPC  H15R21930   4.370   4.707   9.310 -2.8429 -1.7116  0.3218
  190POPC  H15S21931   4.397   4.520   9.290  1.3215 -0.5396 -0.2009
  190POPC  C21621932   4.417   4.633   9.108  0.0883 -0.9165 -0.7241
  190POPC  H16R21933   4.425   4.528   9.072  0.9932  0.1497 -3.8021
  190POPC  H16S21934   4.501   4.695   9.070 -1.1734  0.3682 -1.4729
  190POPC  C21721935   4.272   4.672   9.077  0.0531 -0.1625 -0.5230
  190POPC  H17R21936   4.231   4.730   9.162  2.0533 -2.4519  2.0794
  190POPC  H17S21937   4.208   4.582   9.064  0.0355 -0.0161 -1.4976
  190POPC  C21821938   4.265   4.740   8.940 -0.1199 -0.1313  0.5654
  190POPC  H18R21939   4.160   4.772   8.923 -0.2609 -1.7904 -1.9576
  190POPC  H18S21940   4.293   4.671   8.857 -3.0032 -0.9120  0.1841
  190POPC  H18T21941   4.332   4.829   8.945 -0.6540  0.2173  1.7655
  190POPC   C3321942   4.911   4.408  10.401  0.1052 -0.6678  0.6225
  190POPC   H3X21943   4.807   4.439  10.375  0.4864  0.4488  0.3722
  190POPC   H3Y21944   4.918   4.297  10.401 -1.8896 -0.8253 -0.2682
  190POPC   C3421945   5.000   4.458  10.288  0.2149 -0.4907  0.5786
  190POPC   H4X21946   5.098   4.412  10.313  2.2358  3.1584 -0.3493
  190POPC   H4Y21947   5.013   4.568  10.296 -1.1133 -0.1831 -1.2513
  190POPC   C3521948   4.953   4.420  10.150  0.6538 -0.0399  1.2163
  190POPC   H5X21949   4.844   4.437  10.136  0.8202 -0.5496 -0.8881
  190POPC   H5Y21950   4.971   4.311  10.139  0.8266  0.1085  0.0001
  190POPC   C3621951   5.032   4.466  10.033 -0.0173 -0.1163  0.0819
  190POPC   H6X21952   5.140   4.445  10.050  0.1057 -0.5469 -1.1258
  190POPC   H6Y21953   5.018   4.576  10.026  0.1571 -0.0358  0.9680
  190POPC   C3721954   4.981   4.410   9.901  0.3017  0.2028 -0.1661
  190POPC   H7X21955   4.871   4.425   9.890  0.3185  0.6131  0.2296
  190POPC   H7Y21956   4.994   4.300   9.901  0.0683  0.1744  0.1089
  190POPC   C3821957   5.052   4.475   9.782 -0.2605  0.4866 -0.1716
  190POPC   H8X21958   5.160   4.466   9.804 -0.4010  1.6610  1.0883
  190POPC   H8Y21959   5.017   4.580   9.765 -0.2865  0.8271  1.8290
  190POPC   C3921960   5.025   4.398   9.649  0.2408  1.0534 -0.3050
  190POPC   H9X21961   4.917   4.417   9.629 -0.0084  0.0912  0.0979
  190POPC   H9Y21962   5.055   4.292   9.660 -0.8569  0.5854 -1.6342
  190POPC  C31021963   5.093   4.465   9.533  0.4962  0.4363 -0.3135
  190POPC  H10X21964   5.203   4.478   9.544  0.8722 -1.9335 -1.1285
  190POPC  H10Y21965   5.054   4.569   9.527 -2.4732 -0.6530 -0.4127
  190POPC  C31121966   5.063   4.402   9.398 -0.1188  0.2731 -0.3531
  190POPC  H11X21967   4.954   4.384   9.394 -0.0302 -0.2822 -0.3575
  190POPC  H11Y21968   5.117   4.305   9.401 -0.7161 -0.0349  0.3752
  190POPC  C31221969   5.117   4.479   9.274 -0.5844 -0.8204 -0.5792
  190POPC  H12X21970   5.226   4.492   9.294 -0.3066  1.7693 -3.2873
  190POPC  H12Y21971   5.079   4.583   9.278 -2.1522 -1.4328  0.8108
  190POPC  C31321972   5.101   4.417   9.139 -0.3059 -0.0828 -0.1753
  190POPC  H13X21973   5.094   4.493   9.058 -1.1168  0.5850  0.5157
  190POPC  H13Y21974   5.012   4.352   9.132  0.3707 -0.8068 -2.5730
  190POPC  C31421975   5.225   4.321   9.111  0.2004  0.5285  0.1990
  190POPC  H14X21976   5.229   4.241   9.188  1.2299  0.2497 -0.1302
  190POPC  H14Y21977   5.315   4.383   9.131  1.7422 -1.4295 -0.4901
  190POPC  C31521978   5.244   4.267   8.974  0.2748  0.7758 -0.2649
  190POPC  H15X21979   5.148   4.234   8.929  1.6921 -0.0945 -2.7464
  190POPC  H15Y21980   5.313   4.181   8.986 -0.2370  0.4341  0.3103
  190POPC  C31621981   5.307   4.370   8.878  0.2996  0.3420 -0.2598
  190POPC  H16X21982   5.285   4.352   8.770 -0.4594  1.6951 -0.3412
  190POPC  H16Y21983   5.418   4.366   8.884  0.2993 -1.4207 -1.0657
  190POPC  H16Z21984   5.263   4.468   8.906 -1.4217 -0.8861  1.4688
  191POPC     N21985   5.018   5.722   6.130  0.6915  0.1365  0.4176
  191POPC   C1221986   4.993   5.724   6.276  0.0304  0.3883 -1.0971
  191POPC  H12A21987   5.091   5.706   6.319 -0.3782 -1.5158 -0.9016
  191POPC  H12B21988   4.934   5.637   6.301 -0.3330  1.4283  1.9077
  191POPC   C1321989   4.887   5.711   6.056  0.0287  0.4325 -0.4069
  191POPC  H13A21990   4.908   5.744   5.955  1.8346 -0.6577 -0.4105
  191POPC  H13B21991   4.841   5.614   6.065 -0.9850  0.9157 -0.2925
  191POPC  H13C21992   4.815   5.784   6.091 -1.6045 -0.0603 -2.6784
  191POPC   C1421993   5.100   5.826   6.075  0.4561 -0.1041 -0.4748
  191POPC  H14A21994   5.203   5.825   6.108  0.7054 -0.2471 -1.2479
  191POPC  H14B21995   5.106   5.815   5.968  0.7799 -0.4170 -0.4252
  191POPC  H14C21996   5.063   5.925   6.099 -2.5393 -0.6267 -2.6332
  191POPC   C1521997   5.101   5.602   6.103 -0.3533  0.1543  0.4843
  191POPC  H15A21998   5.106   5.573   6.000  1.9330  2.7087 -0.1902
  191POPC  H15B21999   5.062   5.522   6.164 -1.5215 -0.4644 -1.0476
  191POPC  H15C22000   5.200   5.628   6.139 -0.3602  2.9415 -1.3148
  191POPC   C1122001   4.928   5.843   6.340 -0.9197 -0.0091  0.5042
  191POPC  H11A22002   4.992   5.930   6.313  0.1611 -0.8362  0.3660
  191POPC  H11B22003   4.948   5.841   6.450 -2.1587  0.4296  0.7455
  191POPC     P22004   4.679   5.777   6.369  0.0676 -0.5032 -0.4287
  191POPC   O1322005   4.708   5.639   6.326  0.2827  0.8994  0.6137
  191POPC   O1422006   4.541   5.827   6.328  0.1984  0.3514  0.5145
  191POPC   O1222007   4.792   5.868   6.317 -0.4349  0.0370  0.0352
  191POPC   O1122008   4.702   5.785   6.528  0.3500  0.4568 -0.1241
  191POPC    C122009   4.686   5.917   6.586 -0.3931  0.1861 -0.5428
  191POPC    HA22010   4.579   5.945   6.597 -0.2515  0.1979  0.9283
  191POPC    HB22011   4.714   6.006   6.527 -0.4045  3.2078  3.7273
  191POPC    C222012   4.759   5.929   6.719 -1.0896 -0.0627  0.4568
  191POPC    HS22013   4.741   6.030   6.761 -1.5554  0.0608 -0.0235
  191POPC   O2122014   4.900   5.903   6.704  0.2735 -0.0415  0.5618
  191POPC   C2122015   4.971   5.999   6.644  0.3225  0.3116  0.5250
  191POPC   O2222016   4.934   6.092   6.580  0.4630  0.1735  0.1275
  191POPC   C2222017   5.119   5.961   6.656  0.1267  0.0322  0.1776
  191POPC   H2R22018   5.151   5.957   6.550  0.6319 -0.7797  0.3558
  191POPC   H2S22019   5.139   5.856   6.686  1.0617  0.0409 -0.3876
  191POPC    C322020   4.699   5.822   6.824  0.8720 -0.2505 -0.6370
  191POPC    HX22021   4.719   5.729   6.767 -1.7363  0.0282 -2.1108
  191POPC    HY22022   4.591   5.849   6.829  1.0497  0.5632 -1.0550
  191POPC   O3122023   4.765   5.823   6.955  0.5227 -0.5405 -0.0655
  191POPC   C3122024   4.704   5.749   7.036 -0.5257 -0.0917 -0.2803
  191POPC   O3222025   4.608   5.685   7.012  0.1307  0.0089  0.2302
  191POPC   C3222026   4.776   5.742   7.172 -0.0771  0.4335  0.0538
  191POPC   H2X22027   4.882   5.773   7.160 -0.0120 -0.6776 -2.4333
  191POPC   H2Y22028   4.770   5.634   7.198  0.6965  1.0023  2.7656
  191POPC   C2322029   5.207   6.059   6.731  0.2046  0.0021 -0.0053
  191POPC   H3R22030   5.201   6.162   6.691  1.4652 -0.3961 -1.2485
  191POPC   H3S22031   5.308   6.022   6.702  0.0114 -1.1359  0.7329
  191POPC   C2422032   5.183   6.070   6.880  0.2793  0.1502 -0.9913
  191POPC   H4R22033   5.274   6.078   6.943 -0.1502  1.1896 -0.4904
  191POPC   H4S22034   5.121   5.982   6.907 -0.9443  0.9714 -1.0673
  191POPC   C2522035   5.103   6.193   6.912 -0.2007  0.1271  0.2109
  191POPC   H5R22036   5.011   6.189   6.850 -0.5257  1.2061  0.6272
  191POPC   H5S22037   5.157   6.286   6.886 -1.3731  0.8128  0.2143
  191POPC   C2622038   5.043   6.209   7.059  0.8212  0.1873  0.2074
  191POPC   H6R22039   4.934   6.203   7.040  0.6296 -2.0398  1.8646
  191POPC   H6S22040   5.072   6.312   7.089 -1.5818  0.6408  1.0754
  191POPC   C2722041   5.086   6.090   7.148 -0.2740 -0.4016 -0.4078
  191POPC   H7R22042   5.196   6.094   7.161 -0.2314  2.7214 -1.4526
  191POPC   H7S22043   5.063   5.988   7.111  0.3869 -1.1960  1.3064
  191POPC   C2822044   5.036   6.103   7.289  0.6373 -0.1451  0.0512
  191POPC   H8R22045   4.925   6.107   7.296  0.7715  3.3472  0.7271
  191POPC   H8S22046   5.075   6.201   7.322 -1.0278  0.3447  0.5925
  191POPC   C2922047   5.093   5.984   7.368 -0.2974  0.3715  0.1214
  191POPC   H9122048   5.135   5.899   7.312 -0.6819  0.5925 -0.5145
  191POPC  C21022049   5.112   5.982   7.499 -0.5542  1.0697 -0.7227
  191POPC  H10122050   5.162   5.898   7.550  0.3835  1.1482 -1.5036
  191POPC  C21122051   5.067   6.088   7.595 -0.8841  0.1982  0.3411
  191POPC  H11R22052   4.959   6.092   7.569 -0.5048 -2.5370 -1.8465
  191POPC  H11S22053   5.122   6.182   7.573 -0.7824  0.3106  1.0915
  191POPC  C21222054   5.092   6.051   7.746 -0.0540 -0.2882  1.0263
  191POPC  H12R22055   5.202   6.055   7.762 -0.3477  2.0478  2.7235
  191POPC  H12S22056   5.050   5.952   7.775 -2.2148  0.2527 -0.1067
  191POPC  C21322057   5.030   6.165   7.825  0.5375 -0.3124 -0.7938
  191POPC  H13R22058   4.920   6.164   7.812  0.2736 -0.6298  1.2441
  191POPC  H13S22059   5.061   6.264   7.787 -0.8225  0.3928 -0.1029
  191POPC  C21422060   5.061   6.159   7.976 -0.0081 -0.7475  0.6098
  191POPC  H14R22061   5.170   6.140   7.988  0.7893  2.8554 -0.1576
  191POPC  H14S22062   5.001   6.079   8.024  1.4226 -1.1601  1.7369
  191POPC  C21522063   5.018   6.273   8.070 -0.0560  0.3364  0.9181
  191POPC  H15R22064   5.025   6.236   8.175  3.5070  3.0995  1.7861
  191POPC  H15S22065   4.913   6.300   8.048 -0.4063  0.0637  2.2079
  191POPC  C21622066   5.105   6.399   8.052 -0.3450 -0.5528 -0.8818
  191POPC  H16R22067   5.073   6.425   7.949  1.1511 -1.1270 -1.5013
  191POPC  H16S22068   5.212   6.369   8.051 -0.3582 -0.6488 -0.0981
  191POPC  C21722069   5.068   6.507   8.153  0.1983  1.3168  0.1383
  191POPC  H17R22070   5.029   6.464   8.247 -0.3167  0.2465 -0.5487
  191POPC  H17S22071   4.987   6.574   8.117 -0.4485 -0.4097 -1.7795
  191POPC  C21822072   5.187   6.595   8.191  0.2972 -0.1138  1.3630
  191POPC  H18R22073   5.154   6.648   8.282 -1.2608 -0.5698  1.0891
  191POPC  H18S22074   5.192   6.665   8.104 -0.1383  0.0261  1.4509
  191POPC  H18T22075   5.282   6.543   8.213 -0.6561 -1.3090  2.7341
  191POPC   C3322076   4.706   5.825   7.285 -0.7174  0.3864 -0.5696
  191POPC   H3X22077   4.596   5.807   7.279 -0.4550 -1.2369 -0.9366
  191POPC   H3Y22078   4.730   5.933   7.274 -2.6135  0.9210  0.2080
  191POPC   C3422079   4.756   5.776   7.415 -0.5539  0.4377  0.2819
  191POPC   H4X22080   4.867   5.773   7.407 -0.5776  1.5813 -0.5782
  191POPC   H4Y22081   4.724   5.672   7.437 -0.6625  0.7662  1.7124
  191POPC   C3522082   4.714   5.862   7.532 -0.2267 -0.1512  0.4902
  191POPC   H5X22083   4.606   5.878   7.551  0.2028  2.2787  0.9554
  191POPC   H5Y22084   4.738   5.968   7.513  1.6592 -0.7415 -0.5710
  191POPC   C3622085   4.770   5.813   7.668  0.1042 -0.2904  0.2947
  191POPC   H6X22086   4.880   5.810   7.661  0.1199  0.5678  0.1522
  191POPC   H6Y22087   4.730   5.711   7.688  1.4001 -1.4717 -2.7880
  191POPC   C3722088   4.729   5.907   7.783 -0.6404  0.5770  0.5015
  191POPC   H7X22089   4.619   5.918   7.787 -0.9402  0.0033 -3.4636
  191POPC   H7Y22090   4.772   6.008   7.763 -4.2189  2.2250  0.7953
  191POPC   C3822091   4.775   5.842   7.914 -0.1381  0.1578 -0.2606
  191POPC   H8X22092   4.885   5.833   7.912 -0.2865 -1.4725 -1.2308
  191POPC   H8Y22093   4.739   5.737   7.922 -0.5180  0.1054 -2.3522
  191POPC   C3922094   4.715   5.921   8.042 -0.0345  0.6340  0.6005
  191POPC   H9X22095   4.604   5.925   8.028  0.2536  1.4140 -1.7567
  191POPC   H9Y22096   4.756   6.024   8.035  2.2880 -0.3049  0.0218
  191POPC  C31022097   4.760   5.857   8.177  0.2029  0.0254 -0.7548
  191POPC  H10X22098   4.870   5.844   8.171  0.7821  3.3160  1.1163
  191POPC  H10Y22099   4.713   5.757   8.190  2.6049 -0.9135  1.0921
  191POPC  C31122100   4.744   5.944   8.299  0.2624 -0.3211 -0.0555
  191POPC  H11X22101   4.791   5.887   8.382  0.7919 -0.3520 -0.3789
  191POPC  H11Y22102   4.640   5.976   8.319  0.0650 -2.0750  1.8301
  191POPC  C31222103   4.826   6.073   8.292 -0.9378  0.5701 -0.3431
  191POPC  H12X22104   4.781   6.145   8.220  1.7828  0.6644 -1.9908
  191POPC  H12Y22105   4.931   6.062   8.258 -0.0233  0.5882  2.3763
  191POPC  C31322106   4.825   6.149   8.427 -0.1222  1.0839  0.1819
  191POPC  H13X22107   4.882   6.244   8.413 -1.5036  1.8120 -0.7299
  191POPC  H13Y22108   4.879   6.087   8.501 -0.2961  2.1031  1.1693
  191POPC  C31422109   4.689   6.191   8.480 -0.3146 -0.0866  0.5146
  191POPC  H14X22110   4.632   6.105   8.521 -0.3017 -0.8132 -0.9841
  191POPC  H14Y22111   4.633   6.242   8.399 -0.4342  1.7409  1.7114
  191POPC  C31522112   4.700   6.288   8.594 -0.0084  0.3376 -0.0783
  191POPC  H15X22113   4.768   6.372   8.566  0.2882  0.1281  0.0152
  191POPC  H15Y22114   4.752   6.233   8.675 -1.8283 -0.6375  0.4634
  191POPC  C31622115   4.571   6.346   8.646  0.2549 -0.2484 -1.4419
  191POPC  H16X22116   4.533   6.421   8.573  2.4055  1.0267 -1.3092
  191POPC  H16Y22117   4.578   6.403   8.741  0.0140 -0.1479 -1.4855
  191POPC  H16Z22118   4.498   6.264   8.662  0.6293 -0.2208  0.4459
  192POPC     N22119   3.665   1.826   6.119  0.9423 -0.1682 -0.0016
  192POPC   C1222120   3.683   1.967   6.076 -0.1257 -0.3865  0.1070
  192POPC  H12A22121   3.607   1.986   6.002  0.7810  1.9209 -0.2854
  192POPC  H12B22122   3.777   1.978   6.024  0.0368 -2.0409  0.0405
  192POPC   C1322123   3.673   1.728   6.008 -0.3307 -0.2476  1.0912
  192POPC  H13A22124   3.757   1.735   5.940 -0.8536 -1.4727  0.2967
  192POPC  H13B22125   3.660   1.634   6.058 -0.9786 -0.3571  0.7245
  192POPC  H13C22126   3.590   1.750   5.942  1.3084 -1.4628 -1.4578
  192POPC   C1422127   3.771   1.778   6.207 -0.2271 -0.0866  0.1135
  192POPC  H14A22128   3.780   1.850   6.286  1.3018 -0.0408 -0.0915
  192POPC  H14B22129   3.745   1.685   6.256  1.6070  0.1820  1.6403
  192POPC  H14C22130   3.861   1.784   6.148 -1.2005  0.3690 -1.3527
  192POPC   C1522131   3.537   1.809   6.197 -0.0637 -0.2079  0.8039
  192POPC  H15A22132   3.536   1.861   6.292  2.1554 -3.0254  2.4506
  192POPC  H15B22133   3.510   1.707   6.217 -0.0086 -0.6673 -1.4318
  192POPC  H15C22134   3.452   1.852   6.146  0.6418  0.8065  0.4500
  192POPC   C1122135   3.676   2.073   6.193  0.0694 -0.8747  0.4828
  192POPC  H11A22136   3.576   2.079   6.240 -0.5739 -2.6349 -0.6134
  192POPC  H11B22137   3.698   2.172   6.149 -0.1815 -0.5942  0.9853
  192POPC     P22138   3.920   2.107   6.268 -0.0771  0.2119  0.0015
  192POPC   O1322139   3.919   2.216   6.168  0.3525 -1.0430  0.0496
  192POPC   O1422140   4.000   1.989   6.225  0.3052 -0.5656 -0.1508
  192POPC   O1222141   3.771   2.065   6.295 -0.0557 -0.3744  0.0028
  192POPC   O1122142   3.973   2.161   6.411  0.2681 -0.2777  0.2432
  192POPC    C122143   4.031   2.076   6.510 -0.2211 -0.5724  0.0751
  192POPC    HA22144   4.137   2.104   6.525 -0.0612 -2.0099  1.7791
  192POPC    HB22145   4.026   1.968   6.485 -0.0118 -0.6164  0.2290
  192POPC    C222146   3.937   2.079   6.640 -0.2909 -0.7677  0.7774
  192POPC    HS22147   3.835   2.094   6.599 -0.1605 -3.3398 -0.5722
  192POPC   O2122148   3.989   2.184   6.728  0.7696 -0.3364 -0.3533
  192POPC   C2122149   3.947   2.307   6.704  0.7543  0.4280  0.2298
  192POPC   O2222150   3.854   2.337   6.627  0.5463  0.3132  0.1695
  192POPC   C2222151   4.020   2.404   6.799 -0.3017 -0.3232  0.5077
  192POPC   H2R22152   3.987   2.508   6.777  1.0629 -0.5417 -2.9801
  192POPC   H2S22153   4.130   2.395   6.786 -0.4056 -1.7480  0.5496
  192POPC    C322154   3.939   1.943   6.718  0.0052 -0.5715  0.6583
  192POPC    HX22155   4.046   1.918   6.736  0.2926  0.4224  0.3874
  192POPC    HY22156   3.887   1.867   6.657  2.3607 -0.2737 -1.8433
  192POPC   O3122157   3.890   1.957   6.854  0.6008 -0.0718  0.6705
  192POPC   C3122158   3.761   1.939   6.869  0.1237  0.2882  0.0216
  192POPC   O3222159   3.682   1.912   6.780  0.3529  1.1275  0.0724
  192POPC   C3222160   3.727   1.962   7.017 -0.2812 -0.0858 -1.1438
  192POPC   H2X22161   3.685   2.065   7.027  1.7240  0.6583 -0.1805
  192POPC   H2Y22162   3.819   1.945   7.077 -0.8712 -2.2377 -0.7834
  192POPC   C2322163   3.973   2.375   6.942  0.0089  0.2157 -0.2487
  192POPC   H3R22164   3.863   2.362   6.948  0.1313 -1.9785 -2.0755
  192POPC   H3S22165   3.988   2.463   7.007 -2.5436 -0.7510  1.7806
  192POPC   C2422166   4.036   2.252   7.013 -0.5201 -0.0955 -0.4700
  192POPC   H4R22167   4.145   2.264   6.998 -0.6392  1.2614 -0.3121
  192POPC   H4S22168   4.015   2.155   6.965 -0.9152 -1.4930  2.4348
  192POPC   C2522169   3.996   2.250   7.159  0.7551  0.2816  0.5067
  192POPC   H5R22170   3.892   2.211   7.153  0.4058  1.4756 -1.2150
  192POPC   H5S22171   3.993   2.353   7.200 -0.1203 -0.0080  1.2104
  192POPC   C2622172   4.082   2.157   7.243  0.3923 -0.3603 -0.1690
  192POPC   H6R22173   4.184   2.199   7.241  0.1808  0.1278 -0.9121
  192POPC   H6S22174   4.085   2.062   7.184 -1.4816 -0.5419  0.0104
  192POPC   C2722175   4.027   2.141   7.382  0.1271 -0.4627 -0.5927
  192POPC   H7R22176   4.079   2.060   7.437  2.0230  0.1887 -1.3591
  192POPC   H7S22177   3.917   2.126   7.381  0.3533 -2.0732 -2.7246
  192POPC   C2822178   4.054   2.269   7.456 -0.3356  0.4208 -0.1985
  192POPC   H8R22179   4.001   2.360   7.420  1.2854  1.7689  0.7564
  192POPC   H8S22180   4.157   2.309   7.455  0.2635 -1.0990 -1.3548
  192POPC   C2922181   4.025   2.252   7.605 -0.3449  0.3942  0.4294
  192POPC   H9122182   4.020   2.146   7.636 -1.0250  1.2600  3.4238
  192POPC  C21022183   4.018   2.341   7.705 -0.4547  0.1376  0.6066
  192POPC  H10122184   3.993   2.308   7.807  0.2358 -0.9110  0.4450
  192POPC  C21122185   4.041   2.491   7.687 -0.4406  0.2790 -0.0209
  192POPC  H11R22186   4.001   2.522   7.589  0.6393 -1.1255 -0.9409
  192POPC  H11S22187   4.151   2.506   7.684 -0.5627  0.8308 -2.2724
  192POPC  C21222188   3.981   2.592   7.786  0.2737  0.5530  0.6830
  192POPC  H12R22189   3.870   2.585   7.794  0.2766 -1.1885 -0.4396
  192POPC  H12S22190   3.995   2.685   7.728  2.6316  0.0724  0.4263
  192POPC  C21322191   4.047   2.579   7.929 -0.4021 -0.3036  0.2438
  192POPC  H13R22192   4.156   2.600   7.920 -0.7783  1.3280 -0.6107
  192POPC  H13S22193   4.036   2.472   7.959  1.2112 -1.2799 -2.4895
  192POPC  C21422194   3.980   2.662   8.034 -0.4262  0.1851 -0.1444
  192POPC  H14R22195   3.874   2.641   8.006 -0.2014  1.0509 -1.7500
  192POPC  H14S22196   4.007   2.767   8.008  2.4405 -1.1693 -3.0237
  192POPC  C21522197   4.031   2.623   8.174  0.2235  0.0825 -0.4248
  192POPC  H15R22198   4.136   2.650   8.199  0.3539  0.5833 -1.5005
  192POPC  H15S22199   4.027   2.514   8.197 -0.5848  0.4451  1.2116
  192POPC  C21622200   3.938   2.693   8.281  0.5028  0.5638 -0.1704
  192POPC  H16R22201   3.837   2.665   8.246  1.4014 -3.2643  0.0891
  192POPC  H16S22202   3.958   2.802   8.284 -1.5728  0.9214  2.6822
  192POPC  C21722203   3.951   2.627   8.419  0.6657 -0.7044 -0.1661
  192POPC  H17R22204   4.057   2.632   8.453  0.2843 -0.1511  0.9670
  192POPC  H17S22205   3.915   2.524   8.400 -1.0307  0.0144 -0.9448
  192POPC  C21822206   3.870   2.687   8.532  0.0293 -0.3308  0.0395
  192POPC  H18R22207   3.909   2.784   8.567  0.0050 -0.2003 -0.2911
  192POPC  H18S22208   3.883   2.623   8.622 -0.7015  0.4326  0.6960
  192POPC  H18T22209   3.759   2.681   8.523 -0.1427  3.0553 -0.7250
  192POPC   C3322210   3.616   1.872   7.072 -0.3023  0.1887 -0.0397
  192POPC   H3X22211   3.632   1.766   7.043 -0.2297  0.2479 -0.2192
  192POPC   H3Y22212   3.522   1.899   7.019 -0.0979  3.4141  1.1002
  192POPC   C3422213   3.595   1.902   7.220 -0.6190 -0.0816 -0.3262
  192POPC   H4X22214   3.552   2.002   7.238 -0.2872  0.2135 -1.1352
  192POPC   H4Y22215   3.701   1.893   7.251 -0.6787  0.4420  0.0173
  192POPC   C3522216   3.500   1.798   7.297 -0.2980  0.1349 -1.0721
  192POPC   H5X22217   3.556   1.704   7.318  1.2731  0.9448 -1.6255
  192POPC   H5Y22218   3.405   1.777   7.244 -0.3087  0.8612 -1.3455
  192POPC   C3622219   3.467   1.852   7.441 -0.4325 -0.0171  0.0773
  192POPC   H6X22220   3.391   1.933   7.433  0.7545  1.1191  0.2644
  192POPC   H6Y22221   3.554   1.903   7.485 -0.2149 -0.7243  0.4827
  192POPC   C3722222   3.405   1.748   7.536  0.0806 -0.4478  0.1900
  192POPC   H7X22223   3.477   1.666   7.557  1.0820 -0.3993 -2.8940
  192POPC   H7Y22224   3.320   1.703   7.480  0.6416 -1.2103 -0.0488
  192POPC   C3822225   3.360   1.812   7.674 -0.3735 -0.1621 -0.0419
  192POPC   H8X22226   3.341   1.921   7.670 -2.3836 -0.4820  0.1707
  192POPC   H8Y22227   3.439   1.786   7.748 -1.3729  0.2271  1.1709
  192POPC   C3922228   3.233   1.739   7.728 -0.2204  0.2405 -0.3623
  192POPC   H9X22229   3.255   1.630   7.719 -3.4116 -0.3705 -1.0759
  192POPC   H9Y22230   3.146   1.752   7.662 -0.9372 -2.0887  0.0567
  192POPC  C31022231   3.180   1.789   7.863  0.1280 -0.3459 -0.1623
  192POPC  H10X22232   3.159   1.897   7.852 -0.3472 -0.2192  1.7877
  192POPC  H10Y22233   3.259   1.766   7.939 -0.2380  0.2753  0.4087
  192POPC  C31122234   3.042   1.739   7.909  0.2484  0.9886  0.1148
  192POPC  H11X22235   3.062   1.630   7.910 -1.4989  0.6628  2.4145
  192POPC  H11Y22236   2.970   1.774   7.833  3.6547  2.4764 -2.5500
  192POPC  C31222237   3.003   1.781   8.051  0.0280 -0.5776 -0.0351
  192POPC  H12X22238   2.898   1.748   8.071 -0.9906  3.1332  1.1263
  192POPC  H12Y22239   2.986   1.890   8.063  2.0436 -0.1391 -1.0143
  192POPC  C31322240   3.074   1.732   8.175 -0.8302  0.2949 -0.1571
  192POPC  H13X22241   3.019   1.770   8.264  1.1308 -1.5082  1.9050
  192POPC  H13Y22242   3.176   1.775   8.181 -1.1840  1.2108 -0.6396
  192POPC  C31422243   3.093   1.578   8.185 -0.2364  0.0707 -0.3284
  192POPC  H14X22244   3.177   1.547   8.119 -1.7963 -0.0187 -2.3170
  192POPC  H14Y22245   2.998   1.527   8.158 -0.3505  0.2974 -0.3599
  192POPC  C31522246   3.129   1.541   8.334  0.7802 -0.1321 -0.3047
  192POPC  H15X22247   3.068   1.598   8.408  0.7069 -0.8327  0.1753
  192POPC  H15Y22248   3.234   1.568   8.355  0.7867  1.0500 -1.7380
  192POPC  C31622249   3.113   1.390   8.348  0.2030  0.7564  0.3089
  192POPC  H16X22250   3.165   1.340   8.263 -0.1127 -0.8335  1.0213
  192POPC  H16Y22251   3.012   1.347   8.364 -0.3726  0.7128 -2.9877
  192POPC  H16Z22252   3.172   1.356   8.435  1.4082  0.3592 -0.6401
  193SOD    SOD22253   3.397   4.622   5.018 -0.0782  0.4249  0.1159
  194SOD    SOD22254   5.314   0.991   0.303  0.2729 -0.1578 -0.2340
  195SOD    SOD22255   3.470   0.802  16.514  0.0608 -0.2873 -0.3853
  196SOD    SOD22256   1.709   5.826  11.766 -0.1962  0.3958 -0.0352
  197SOD    SOD22257   5.057   2.874  16.334  0.0122 -0.0181 -0.1562
  198SOD    SOD22258   4.905   3.904  15.646 -0.7973 -0.1826 -0.1950
  199SOD    SOD22259   0.910   4.700   1.950 -0.2046 -0.2387  0.1145
  200SOD    SOD22260   2.924   5.402   5.850  0.3881  0.2375  0.2404
  201SOD    SOD22261   1.733   0.755  14.781 -0.7247  0.0255 -0.3491
  202SOD    SOD22262   5.234   1.195   5.847 -0.5930  0.2094 -0.0638
  203SOD    SOD22263   2.565   4.187  14.572  0.0565 -0.4429 -0.0837
  204SOD    SOD22264   2.897   3.348   4.820  0.2379 -0.0747  0.3598
  205SOD    SOD22265   2.117   4.574  12.546  0.4102 -0.3110  0.1253
  206SOD    SOD22266   3.176   6.320   6.405 -0.1617  0.3174 -0.2601
  207SOD    SOD22267   1.539   4.458  13.772  0.1291  0.1648  0.2122
  208SOD    SOD22268   5.658   4.274  15.135 -0.4745 -0.0537 -0.2210
  209SOD    SOD22269   2.392   2.901   6.075  0.4084  0.3144  0.3010
  210SOD    SOD22270   1.785   2.839  10.726 -0.3136 -0.0675 -0.0082
  211SOD    SOD22271   0.537   5.052   0.934 -0.1054 -0.8701  0.3333
  212SOD    SOD22272   5.570   5.535  11.154  0.1566 -0.0514  0.2808
  213SOD    SOD22273   5.142   3.240  12.229  0.6024  0.3215 -0.1990
  214SOD    SOD22274   0.937   1.318  13.176 -0.0188 -0.1315 -0.2210
  215SOD    SOD22275   4.005   4.815   6.507 -0.1474  0.0013 -0.0404
  216SOD    SOD22276   2.506   6.112   2.114  0.3091 -0.1381  0.1335
  217SOD    SOD22277   1.721   0.493   6.412 -0.3170  0.5786 -0.2817
  218SOD    SOD22278   2.404   5.761   0.558  0.0354  0.4105 -0.1824
  219SOD    SOD22279   1.904   4.967  13.109  0.3896 -0.1982  0.0367
  220SOD    SOD22280   4.646   1.502  14.094  0.0862 -0.2007  0.2727
  221SOD    SOD22281   6.667   2.827   0.783  0.2771 -0.0630  0.4828
  222SOD    SOD22282   4.631   6.581  16.690  0.1856 -0.0549 -0.0653
  223SOD    SOD22283   3.152   5.220   3.309 -0.1567  0.3109  0.3552
  224SOD    SOD22284   6.516   3.626   2.572 -0.1772 -0.2031  0.4631
  225SOD    SOD22285   0.980   2.931  15.316  0.1839  0.2522 -0.0613
  226SOD    SOD22286   3.825   5.438   4.745 -0.3416 -0.2370  0.2685
  227SOD    SOD22287   5.876   5.234   5.515  0.0123 -0.2152 -0.3320
  228SOD    SOD22288   1.959   4.560  11.825 -0.2498 -0.0540  0.4260
  229SOD    SOD22289   3.765   5.273   1.844 -0.5102  0.0897  0.0663
  230SOD    SOD22290   1.834   4.824   3.788  0.0137 -0.2292 -0.0869
  231SOD    SOD22291   4.389   3.280   5.671  0.4345 -0.1443 -0.1370
  232SOD    SOD22292   5.408   0.688  15.524 -0.3162  0.3289  0.1172
  233SOD    SOD22293   4.058   0.444  17.137 -0.4104 -0.0856  0.1138
  234SOD    SOD22294   5.695   2.831  12.541  0.2280  0.2704 -0.4706
  235SOD    SOD22295   5.841   3.815  15.287  0.0704 -0.0745 -0.1353
  236SOD    SOD22296   0.303   5.384  17.117 -0.0217 -0.7355 -0.4359
  237SOD    SOD22297   0.142   1.344   6.255  0.0258 -0.4221  0.1482
  238SOD    SOD22298   6.600   0.091  16.228 -0.4114 -0.6056 -0.5080
  239SOD    SOD22299   4.292   5.779  13.447 -0.0658  0.2040  0.0452
  240SOD    SOD22300   6.369   4.387  16.399  0.1240 -0.1632 -0.0709
  241SOD    SOD22301   0.955   1.756   6.250 -0.4218 -0.1655 -0.4420
  242SOD    SOD22302   4.239   0.248  15.850 -0.3163 -0.2397  0.6168
  243SOD    SOD22303   1.280   0.034  15.520 -0.4325  0.0037  0.6842
  244SOD    SOD22304   1.997   2.392   0.446  0.3371  0.0973 -0.1114
  245SOD    SOD22305   3.438   2.683   1.440 -0.2306  0.3306 -0.4577
  246SOD    SOD22306   0.920   1.264  11.213 -0.1277  0.0306 -0.0767
  247SOD    SOD22307   3.581   2.975  11.389 -0.8226 -0.3629 -0.0858
  248SOD    SOD22308   0.966   5.845   5.458  0.4325 -0.3516 -0.0588
  249SOD    SOD22309   4.561   6.763   2.672  0.0150  0.1254  0.7129
  250SOD    SOD22310   1.305   5.802   0.303  0.2224 -0.2592  0.3082
  251SOD    SOD22311   0.328   3.697   5.804  0.1217  0.4753  0.6357
  252SOD    SOD22312   1.866   5.552   0.553 -0.0856  0.6435  0.5679
  253SOD    SOD22313   2.596   4.541  10.934 -0.0581 -0.6651  0.7354
  254SOD    SOD22314   6.771   5.141   5.424 -0.3441  0.2625 -0.1028
  255SOD    SOD22315   3.113   2.187  11.866  0.1263  0.0176  0.0821
  256SOD    SOD22316   3.398   3.868  16.128 -0.1371  0.1406 -0.2710
  257SOD    SOD22317   4.625   4.196  16.711 -0.0772 -0.0094  0.1521
  258SOD    SOD22318   1.899   0.101  13.804  0.5551 -0.0867  0.1914
  259SOD    SOD22319   4.300   1.574  12.102 -0.2924 -0.0272 -0.1538
  260SOD    SOD22320   6.289   3.613  11.674  0.5641  0.2449  0.6012
  261SOD    SOD22321   4.401   4.197   6.492 -0.4232  0.0303 -0.6870
  262SOD    SOD22322   1.357   6.534   5.585  0.1706 -0.0772  0.5000
  263SOD    SOD22323   4.724   1.650  13.548  0.0306  0.2262 -1.1436
  264SOD    SOD22324   5.677   1.031   2.327  0.5407 -0.2527 -0.5270
  265SOD    SOD22325   0.497   4.620   5.837  0.0106 -0.4958 -0.0605
  266SOD    SOD22326   6.109   0.709  11.825 -0.6301 -0.1798 -0.4328
  267SOD    SOD22327   0.712   0.392  11.325 -0.4808 -0.3690 -0.3939
  268SOD    SOD22328   3.021   2.327  11.283 -0.4839 -0.3622 -0.4138
  269SOD    SOD22329   1.074   0.695   2.403  0.2764 -0.0864  0.0929
  270CLA    CLA22330   3.300   3.652  12.011  0.3300 -0.0839 -0.4405
  271CLA    CLA22331   1.365   6.214   0.273  0.5945 -0.5217  0.1443
  272CLA    CLA22332   6.594   3.617  14.902 -0.2106  0.2963 -0.0295
  273CLA    CLA22333   6.160   0.091  12.252  0.1332 -0.0830 -0.2058
  274CLA    CLA22334   3.067   3.608   1.284  0.1075 -0.2303 -0.1620
  275CLA    CLA22335   4.348   1.978   2.255  0.1786 -0.2137  0.1404
  276CLA    CLA22336   2.544   6.183  12.589 -0.3332 -0.1538 -0.3677
  277CLA    CLA22337   6.549   5.622   4.922  0.6263  0.1586 -0.4019
  278CLA    CLA22338   4.206   5.354  13.155  0.4452 -0.0269  0.2744
  279CLA    CLA22339   2.477   3.964   1.119  0.0194  0.1868 -0.5132
  280CLA    CLA22340   5.783   0.971   2.087 -0.2685  0.3606 -0.3767
  281CLA    CLA22341   4.605   1.984  13.901 -0.0942 -0.6874  0.0015
  282CLA    CLA22342   1.858   6.413  15.409  0.2488  0.2601 -0.3273
  283CLA    CLA22343   1.703   5.921  12.251  0.2020  0.0661 -0.1195
  284CLA    CLA22344   3.993   3.667  15.239 -0.0964 -0.1841 -0.2458
  285CLA    CLA22345   6.590   6.026   2.347  0.1492  0.1783  0.1526
  286CLA    CLA22346   5.867   4.206   3.171 -0.2812  0.5763  0.3329
  287CLA    CLA22347   1.795   1.129  13.323  0.1120  0.3859 -0.0259
  288CLA    CLA22348   1.637   5.025  14.429 -0.0965  0.4249  0.0960
  289CLA    CLA22349   4.043   1.098  14.067  0.1660 -0.3070 -0.2488
  290CLA    CLA22350   2.764   3.248  14.946 -0.0075  0.0778  0.4262
  291CLA    CLA22351   3.358   1.864   5.441 -0.0911  0.2803 -0.3307
  292CLA    CLA22352   5.565   4.691  15.549 -0.1507 -0.1341  0.2148
  293CLA    CLA22353   3.259   6.129   0.119 -0.1725 -0.3137  0.2363
  294CLA    CLA22354   5.993   0.938  13.222 -0.3746 -0.5482  0.0912
  295CLA    CLA22355   4.079   5.197   3.489  0.1485 -0.4794  0.1627
  296CLA    CLA22356   5.307   4.686   1.423 -0.2279 -0.6953 -0.0014
  297CLA    CLA22357   2.966   2.847   0.365 -0.0074  0.0108  0.2516
  298CLA    CLA22358   0.996   1.766  14.350  0.0732 -0.0006 -0.3114
  299CLA    CLA22359   3.195   0.338  16.659 -0.2602  0.0176 -0.1092
  300CLA    CLA22360   2.516   2.398   5.331  0.2072 -0.0657 -0.1429
  301CLA    CLA22361   6.029   0.297   0.155 -0.0360 -0.6693  0.2451
  302CLA    CLA22362   4.530   1.027  16.733 -0.2476  0.5188 -0.2772
  303CLA    CLA22363   4.084   3.049  14.415  0.0301 -0.0902  0.0800
  304CLA    CLA22364   3.044   4.211  14.308 -0.2650 -0.1861 -0.1916
  305CLA    CLA22365   1.129   5.806   0.852 -0.0476 -0.3572  0.2674
  306CLA    CLA22366   1.954   3.519   2.375 -0.0881 -0.0606  0.0883
  307CLA    CLA22367   4.145   1.021   0.493 -0.0725  0.6566  0.1855
  308CLA    CLA22368   3.351   0.331   2.340 -0.1512 -0.1972  0.4405
  309CLA    CLA22369   5.346   0.351   0.614 -0.3761 -0.0863  0.4443
  310CLA    CLA22370   3.702   2.560   1.808  0.3216 -0.0527 -0.0435
  311CLA    CLA22371   1.854   6.029   5.136  0.2655 -0.2102 -0.0449
  312CLA    CLA22372   3.232   1.600  11.678  0.0565 -0.2125  0.3727
  313CLA    CLA22373   4.173   4.181   4.799  0.2553  0.5149  0.0373
  314CLA    CLA22374   4.070   6.028   5.159 -0.0924 -0.1097  0.0177
  315CLA    CLA22375   4.762   1.560  15.430 -0.2560  0.1436 -0.4410
  316CLA    CLA22376   6.072   3.132  11.645 -0.5245  0.3050 -0.0396
  317CLA    CLA22377   3.311   6.015   3.239  0.0191 -0.2423 -0.0621
  318CLA    CLA22378   4.668   2.152   4.279 -0.2194 -0.4566 -0.1365
  319CLA    CLA22379   5.283   1.934   3.895  0.2174  0.2183  0.0693
  320CLA    CLA22380   6.242   2.582  14.888  0.0996 -0.4790  0.2959
  321CLA    CLA22381   4.571   6.580   1.615  0.3549 -0.0368  0.1017
  322CLA    CLA22382   6.387   3.064  15.920 -0.2644 -0.1474  0.1895
  323TIP3   OH222383   3.025   4.180   3.853  0.1050 -0.4462 -0.7200
  323TIP3    H122384   3.027   4.085   3.840 -0.2802 -0.4556 -0.7282
  323TIP3    H222385   3.014   4.216   3.765 -0.9431 -0.4463 -0.5953
  324TIP3   OH222386   3.815   0.158   5.421 -0.2752  0.6136  0.5263
  324TIP3    H122387   3.894   0.104   5.422 -2.6017 -2.9336  0.3708
  324TIP3    H222388   3.792   0.164   5.329 -0.5021  1.1957  0.6189
  325TIP3   OH222389   1.955   3.984   6.249 -0.3506 -0.5301 -0.0075
  325TIP3    H122390   1.932   3.934   6.326 -2.5859 -0.5702 -0.6701
  325TIP3    H222391   2.050   3.975   6.242  0.0312  0.3227  3.2837
  326TIP3   OH222392   6.520   0.854  16.562  0.0588  0.1224 -0.3623
  326TIP3    H122393   6.492   0.810  16.642 -0.4246  0.7380 -0.1893
  326TIP3    H222394   6.471   0.936  16.561  1.7363  1.1743 -0.1064
  327TIP3   OH222395   5.508   3.697  13.514  0.0810 -0.1496 -0.2045
  327TIP3    H122396   5.464   3.781  13.523 -2.0298 -1.3159  0.9312
  327TIP3    H222397   5.586   3.716  13.463 -0.1230  2.5677  0.3941
  328TIP3   OH222398   2.176   2.603  13.198  0.4024  0.1983 -0.5227
  328TIP3    H122399   2.271   2.601  13.203  0.3059  0.0187  2.3452
  328TIP3    H222400   2.152   2.515  13.170  1.0664  0.1277 -0.8740
  329TIP3   OH222401   1.427   4.703   3.306 -0.4425  0.2096 -1.2504
  329TIP3    H122402   1.483   4.628   3.328 -0.4743  0.8194  1.0206
  329TIP3    H222403   1.481   4.780   3.322 -2.7574  0.9537  3.9591
  330TIP3   OH222404   5.379   3.306  12.188  0.3316 -0.0560  0.6606
  330TIP3    H122405   5.460   3.282  12.143  0.2757 -1.4267  1.2696
  330TIP3    H222406   5.350   3.386  12.144  1.4526 -0.1465 -0.2619
  331TIP3   OH222407   3.602   5.838  16.966 -0.3563  0.1295 -0.3458
  331TIP3    H122408   3.551   5.864  17.043  1.3685  1.3282  0.4273
  331TIP3    H222409   3.598   5.742  16.966  0.1579  0.0838  1.6458
  332TIP3   OH222410   6.549   5.714   2.510  0.4364  0.0569  0.5394
  332TIP3    H122411   6.549   5.800   2.468  0.3767 -0.3112 -0.2072
  332TIP3    H222412   6.598   5.657   2.450  1.8173 -0.0819  1.7637
  333TIP3   OH222413   4.068   4.136   0.895  0.0058  0.1116  0.0518
  333TIP3    H122414   4.025   4.128   0.810 -0.3474  0.1964  0.2215
  333TIP3    H222415   4.022   4.074   0.951  1.0056 -0.7947 -0.1241
  334TIP3   OH222416   4.346   6.204   0.664 -0.2247 -0.0438 -0.1520
  334TIP3    H122417   4.423   6.157   0.696 -1.2833 -2.4052 -0.9349
  334TIP3    H222418   4.333   6.275   0.726  0.0840 -2.1896  2.4414
  335TIP3   OH222419   4.690   4.170   2.056 -0.2393 -0.2680  0.2422
  335TIP3    H122420   4.781   4.189   2.080 -0.3839 -0.0527  0.6259
  335TIP3    H222421   4.639   4.240   2.098 -0.5176  0.0079 -0.5382
  336TIP3   OH222422   3.826   1.716  15.529  0.1144 -0.5239  0.0189
  336TIP3    H122423   3.888   1.646  15.547  1.6380  0.3591 -1.6266
  336TIP3    H222424   3.878   1.785  15.488 -1.7929  0.6108 -0.6099
  337TIP3   OH222425   0.127   2.132   6.595  0.2163 -0.1251  0.4408
  337TIP3    H122426   0.048   2.086   6.626 -0.6771 -0.0325 -1.6230
  337TIP3    H222427   0.106   2.224   6.605  0.1970 -0.1056  0.2222
  338TIP3   OH222428   0.411   2.545  16.788 -1.0504 -0.5199  0.0386
  338TIP3    H122429   0.398   2.473  16.726 -1.9913 -0.7586  0.5103
  338TIP3    H222430   0.411   2.503  16.874  0.1191 -0.1700  0.2077
  339TIP3   OH222431   3.640   3.729  15.582 -0.3171 -0.3233  0.2402
  339TIP3    H122432   3.731   3.751  15.560 -0.4971  0.5263  0.3084
  339TIP3    H222433   3.647   3.656  15.643  0.2729 -1.2344 -0.8994
  340TIP3   OH222434   4.416   3.668  12.476 -0.4108  0.1291 -0.1681
  340TIP3    H122435   4.423   3.681  12.570 -0.6965 -1.9616  0.1753
  340TIP3    H222436   4.367   3.586  12.467  0.2533 -0.0738 -2.1242
  341TIP3   OH222437   1.513   5.419  12.238 -0.0197 -0.4262  0.2142
  341TIP3    H122438   1.490   5.417  12.331 -0.8166 -2.4779  0.0099
  341TIP3    H222439   1.603   5.387  12.235  0.1606  0.0713  0.3200
  342TIP3   OH222440   1.728   3.257  13.264  0.5164  0.4981 -0.1047
  342TIP3    H122441   1.682   3.282  13.344  0.3944 -2.8369  0.9413
  342TIP3    H222442   1.669   3.285  13.193 -0.4589  1.3644  1.0322
  343TIP3   OH222443   1.688   0.458   2.747 -0.0481  0.1779 -0.2638
  343TIP3    H122444   1.744   0.526   2.710 -1.4728  1.8686  0.6106
  343TIP3    H222445   1.745   0.412   2.810  1.7509 -1.3482 -2.8725
  344TIP3   OH222446   5.452   0.327  11.634  0.3857 -0.0043 -0.0041
  344TIP3    H122447   5.445   0.282  11.550 -3.0068  0.9779 -0.2907
  344TIP3    H222448   5.374   0.301  11.682  1.1944  1.1741  2.0159
  345TIP3   OH222449   5.473   2.627   1.533 -0.3050  0.0776  0.2221
  345TIP3    H122450   5.473   2.616   1.438  0.0718  0.7682  0.1386
  345TIP3    H222451   5.563   2.606   1.560 -0.1605  0.8107  0.3126
  346TIP3   OH222452   3.902   2.047  10.378 -0.2115  0.4898 -0.6677
  346TIP3    H122453   3.883   2.136  10.408  2.0788  0.2259  1.7852
  346TIP3    H222454   3.854   1.991  10.438  0.2061  0.0474 -0.7442
  347TIP3   OH222455   2.656   2.480   0.779  0.4541  0.4483  0.2037
  347TIP3    H122456   2.689   2.514   0.696  1.2422 -0.1488  0.2668
  347TIP3    H222457   2.636   2.388   0.761  3.5059 -0.5125  1.4502
  348TIP3   OH222458   6.327   6.217   5.078  0.2676  0.3157 -0.0443
  348TIP3    H122459   6.335   6.162   5.155 -2.0442 -0.2402 -0.1452
  348TIP3    H222460   6.241   6.259   5.087 -0.1670  0.0441 -2.3952
  349TIP3   OH222461   5.270   5.588  16.524 -0.1948  0.9316  0.1375
  349TIP3    H122462   5.289   5.668  16.573 -0.5000  0.8084  0.4625
  349TIP3    H222463   5.272   5.519  16.590  1.0869  0.5260 -0.3217
  350TIP3   OH222464   1.000   5.920   5.235 -0.9092 -0.6545  0.1719
  350TIP3    H122465   0.936   5.990   5.220 -0.7287 -0.2424  1.2509
  350TIP3    H222466   0.988   5.861   5.161  0.0130  1.3121 -1.6232
  351TIP3   OH222467   4.958   6.029  12.743 -0.2283  0.8179 -0.2085
  351TIP3    H122468   4.938   5.954  12.687 -1.0514  0.8856 -0.0152
  351TIP3    H222469   4.899   6.019  12.818 -1.0384  2.1709 -0.6412
  352TIP3   OH222470   2.068   3.664  12.292 -0.0665  0.3754 -0.1681
  352TIP3    H122471   1.990   3.699  12.248 -0.3583 -0.2936 -0.2036
  352TIP3    H222472   2.102   3.599  12.230  1.2258  1.5345 -0.6865
  353TIP3   OH222473   2.608   1.626   0.698 -0.5756 -0.2684 -0.2695
  353TIP3    H122474   2.693   1.583   0.708 -0.6345 -0.1571  0.8685
  353TIP3    H222475   2.576   1.634   0.788  0.0308  3.2837 -0.2919
  354TIP3   OH222476   3.798   3.638   3.891 -0.1207 -0.3784  0.3377
  354TIP3    H122477   3.742   3.712   3.869 -0.5049 -0.5681  0.6663
  354TIP3    H222478   3.821   3.653   3.983  2.2996  0.9495 -0.4436
  355TIP3   OH222479   5.677   2.982   2.910  0.1343 -0.3683 -0.4869
  355TIP3    H122480   5.705   2.899   2.871 -0.4212 -0.3447 -0.9401
  355TIP3    H222481   5.752   3.041   2.898  0.8120 -1.0153  0.5014
  356TIP3   OH222482   1.014   1.342   0.253 -0.1037 -0.5976 -0.0274
  356TIP3    H122483   1.093   1.339   0.306 -0.8297  1.6562  1.2182
  356TIP3    H222484   1.045   1.357   0.164  1.0059 -2.4725  0.0181
  357TIP3   OH222485   5.224   4.570   1.838 -0.1764  0.2525 -0.1866
  357TIP3    H122486   5.137   4.612   1.836 -0.8350 -1.1857 -2.8037
  357TIP3    H222487   5.217   4.505   1.908 -2.1940 -1.8680 -2.3033
  358TIP3   OH222488   4.398   6.612  10.608  0.0869 -0.1012  0.1039
  358TIP3    H122489   4.380   6.579  10.696 -0.1311 -1.6747 -0.5077
  358TIP3    H222490   4.384   6.536  10.551  0.0870  0.9323 -1.3011
  359TIP3   OH222491   1.821   1.451  13.732  0.5360  0.3145 -0.1633
  359TIP3    H122492   1.817   1.511  13.657  1.5304  1.3937  0.6411
  359TIP3    H222493   1.865   1.500  13.801  1.6574 -1.4476  0.4156
  360TIP3   OH222494   4.662   2.293   5.126  0.3750  0.1352 -0.2246
  360TIP3    H122495   4.601   2.220   5.136  0.1835  0.3877  0.4320
  360TIP3    H222496   4.735   2.256   5.076  0.4798 -0.6179  0.4778
  361TIP3   OH222497   2.563   1.003   1.709 -0.0538  0.4438  0.3038
  361TIP3    H122498   2.560   1.066   1.781 -2.2451 -0.6796  1.2488
  361TIP3    H222499   2.625   1.040   1.646 -0.1267  2.7463  1.5664
  362TIP3   OH222500   4.799   4.207   5.567 -0.6206 -0.1229 -0.1009
  362TIP3    H122501   4.870   4.265   5.540 -1.0539 -0.0747 -1.1344
  362TIP3    H222502   4.730   4.266   5.596 -1.0071 -0.1213 -1.0149
  363TIP3   OH222503   5.448   2.387   2.658 -0.3565 -0.0141  0.1269
  363TIP3    H122504   5.384   2.380   2.728 -0.2075  1.0973  0.3913
  363TIP3    H222505   5.396   2.398   2.578 -0.5126  0.0082  0.2319
  364TIP3   OH222506   1.097   4.669  15.348 -0.3015 -0.2947  0.1761
  364TIP3    H122507   1.088   4.727  15.423 -0.4913  1.1146 -0.9082
  364TIP3    H222508   1.123   4.584  15.385 -0.5930  0.3321  1.8234
  365TIP3   OH222509   1.473   6.029  11.259 -0.7122 -0.9386  0.0126
  365TIP3    H122510   1.383   6.053  11.283 -1.6709 -0.3711 -3.8233
  365TIP3    H222511   1.498   6.093  11.193  2.0711 -1.8908  0.0801
  366TIP3   OH222512   1.275   4.233   3.712  0.0625  0.1557 -0.0587
  366TIP3    H122513   1.271   4.205   3.621 -1.7758  1.3647 -0.3653
  366TIP3    H222514   1.324   4.316   3.710  0.4131 -0.0446  0.1151
  367TIP3   OH222515   1.140   4.203   0.170  0.3122 -0.2600  0.0989
  367TIP3    H122516   1.082   4.244   0.234  0.2543 -0.1056 -0.0521
  367TIP3    H222517   1.109   4.112   0.164 -1.0656  0.2787 -1.3105
  368TIP3   OH222518   1.453   1.486   3.959 -0.0631  0.0998 -0.3218
  368TIP3    H122519   1.436   1.564   3.907  1.1904  1.2725  1.0107
  368TIP3    H222520   1.522   1.511   4.020 -1.0562 -1.4432  1.5047
  369TIP3   OH222521   4.495   4.301  12.596 -0.5464  0.1733  0.2316
  369TIP3    H122522   4.570   4.361  12.595  0.1248 -0.6077  1.4062
  369TIP3    H222523   4.525   4.226  12.544 -0.5571 -0.0833  0.5948
  370TIP3   OH222524   0.162   0.727  13.565 -0.1378 -0.8088  0.0744
  370TIP3    H122525   0.094   0.783  13.527 -0.5499 -2.3150 -1.4192
  370TIP3    H222526   0.211   0.693  13.491 -0.0939 -2.6926  0.9283
  371TIP3   OH222527   0.512   2.311  14.710 -0.1582 -0.0241 -0.0708
  371TIP3    H122528   0.531   2.385  14.768  1.1561 -0.4804  0.1058
  371TIP3    H222529   0.541   2.340  14.624 -0.4621 -0.0023 -0.1646
  372TIP3   OH222530   4.894   2.172  11.558  0.3392  0.0624 -0.1354
  372TIP3    H122531   4.909   2.261  11.590 -0.6718  0.1983 -0.0285
  372TIP3    H222532   4.982   2.137  11.545  0.7521  0.9071  0.2872
  373TIP3   OH222533   3.481   3.764   1.915 -0.2115  0.3018  0.2995
  373TIP3    H122534   3.449   3.781   2.003  1.0574  1.5168  0.5482
  373TIP3    H222535   3.434   3.685   1.887 -0.6448 -0.0730  2.0282
  374TIP3   OH222536   4.377   3.148   0.158  0.1473 -0.1099  0.1454
  374TIP3    H122537   4.430   3.180   0.231 -1.1865 -1.0514  1.5652
  374TIP3    H222538   4.326   3.224   0.129  0.3603  0.1621  0.4872
  375TIP3   OH222539   0.982   5.130   2.610  0.3730 -0.1479  0.6356
  375TIP3    H122540   0.943   5.183   2.679 -0.9364 -1.2062  0.7398
  375TIP3    H222541   0.952   5.041   2.629  0.7636 -0.5887 -0.7670
  376TIP3   OH222542   1.479   4.043   1.567  0.3724  0.4810 -0.2918
  376TIP3    H122543   1.474   4.086   1.653  2.2839  1.1667 -0.4877
  376TIP3    H222544   1.533   4.103   1.515  1.2522 -1.1123 -1.2333
  377TIP3   OH222545   2.772   3.182   5.835  0.5105  0.1350 -0.8162
  377TIP3    H122546   2.712   3.232   5.780  0.4123 -0.4349 -1.2362
  377TIP3    H222547   2.849   3.168   5.781  1.0677  0.9565 -0.2367
  378TIP3   OH222548   2.982   0.805   6.078 -0.5135 -0.1254 -0.0365
  378TIP3    H122549   3.055   0.867   6.068  0.0066 -0.9289 -1.4031
  378TIP3    H222550   3.021   0.719   6.060 -0.9709 -1.0125  2.9773
  379TIP3   OH222551   3.584   1.569  15.537 -0.2098  0.0193  0.0748
  379TIP3    H122552   3.668   1.614  15.530  0.0080 -0.2329  0.9747
  379TIP3    H222553   3.526   1.632  15.580  0.6307 -1.1944  3.1529
  380TIP3   OH222554   1.409   2.881   2.767  0.0074  0.3654 -0.2881
  380TIP3    H122555   1.316   2.859   2.765  0.2804 -1.0219  1.1965
  380TIP3    H222556   1.454   2.797   2.776  1.3838  1.0490 -0.5304
  381TIP3   OH222557   3.560   2.801  11.535 -0.1259  0.1679 -0.4871
  381TIP3    H122558   3.581   2.839  11.621 -1.5328  1.1494 -0.5561
  381TIP3    H222559   3.466   2.783  11.539 -0.5290  1.6962 -2.3758
  382TIP3   OH222560   3.101   0.674  11.945  0.0930  0.1746 -0.0979
  382TIP3    H122561   3.180   0.728  11.939  0.2840  0.0188  0.8116
  382TIP3    H222562   3.091   0.658  12.039 -2.4918  2.3476  0.0242
  383TIP3   OH222563   3.752   6.648   3.066  0.1841  1.1474  0.4044
  383TIP3    H122564   3.788   6.736   3.056 -0.8433  1.2985 -2.2925
  383TIP3    H222565   3.678   6.660   3.127 -0.5911  2.3492 -0.7466
  384TIP3   OH222566   0.823   5.189   1.540 -0.5974  0.9466  0.1839
  384TIP3    H122567   0.838   5.283   1.542  1.7275  0.6159 -0.0471
  384TIP3    H222568   0.879   5.154   1.609 -0.5031 -0.3721 -0.5320
  385TIP3   OH222569   0.480   3.544   3.523  0.5790  0.8561 -0.2197
  385TIP3    H122570   0.535   3.573   3.451  0.4299 -0.3889 -0.8489
  385TIP3    H222571   0.395   3.586   3.508 -0.3793 -1.7571 -2.4865
  386TIP3   OH222572   4.467   6.405  12.978 -0.1319  0.1107 -0.8181
  386TIP3    H122573   4.519   6.415  12.898 -0.2869 -1.1670 -1.0926
  386TIP3    H222574   4.524   6.438  13.048 -0.1023  1.4903 -1.4745
  387TIP3   OH222575   5.768   2.204  15.005  0.6402 -0.4280 -0.3682
  387TIP3    H122576   5.824   2.277  14.979  3.2994 -2.1210  0.4852
  387TIP3    H222577   5.745   2.223  15.096 -1.6913  1.1400 -1.2157
  388TIP3   OH222578   6.079   1.817  12.088 -0.3351 -0.2466 -0.2201
  388TIP3    H122579   6.044   1.859  12.010 -0.0470  0.2274 -0.0939
  388TIP3    H222580   6.038   1.730  12.088 -1.9446  0.4872  0.2285
  389TIP3   OH222581   2.516   6.456  12.768  0.5875  0.0950  0.0573
  389TIP3    H122582   2.422   6.453  12.782  0.8444 -1.3678  1.6283
  389TIP3    H222583   2.530   6.411  12.684 -0.1299  0.4963 -0.2731
  390TIP3   OH222584   1.701   2.075   4.648  0.0940  0.2406  0.2295
  390TIP3    H122585   1.715   2.155   4.699 -0.1749  0.4049  0.0472
  390TIP3    H222586   1.607   2.074   4.630 -0.0352 -0.5214  0.8977
  391TIP3   OH222587   0.161   6.621   4.241  0.6779  0.0346  0.2740
  391TIP3    H122588   0.244   6.668   4.251  0.4284  0.5847 -0.2161
  391TIP3    H222589   0.171   6.571   4.160  0.1773  0.8446 -0.2914
  392TIP3   OH222590   2.243   3.613  14.667 -1.0141 -0.1362 -0.0451
  392TIP3    H122591   2.256   3.708  14.667 -1.3667 -0.0794  1.1600
  392TIP3    H222592   2.148   3.602  14.672 -1.0823 -0.5586 -2.0203
  393TIP3   OH222593   0.665   4.074   5.766  0.0982  0.1066  0.4251
  393TIP3    H122594   0.704   4.137   5.706  0.1524  0.5685  0.9376
  393TIP3    H222595   0.693   4.104   5.853  0.6224 -0.9671  0.6283
  394TIP3   OH222596   0.447   6.239   2.236  0.8752 -0.5413 -0.4652
  394TIP3    H122597   0.425   6.271   2.323  0.4398  0.1679 -0.8386
  394TIP3    H222598   0.495   6.158   2.252 -0.0711 -0.9388  0.4083
  395TIP3   OH222599   1.172   0.565  13.737 -0.1452  0.0502  0.5073
  395TIP3    H122600   1.096   0.613  13.704  1.1861  0.3815 -2.1809
  395TIP3    H222601   1.210   0.622  13.804  0.6911  2.2615 -1.7740
  396TIP3   OH222602   5.713   5.236  12.383 -0.3656 -0.2429  0.1931
  396TIP3    H122603   5.778   5.265  12.447 -1.3114  1.0322  0.5996
  396TIP3    H222604   5.754   5.253  12.298 -0.1076  0.4186  0.4438
  397TIP3   OH222605   6.273   4.874   2.285  0.0479  0.7062 -1.1755
  397TIP3    H122606   6.209   4.831   2.342 -0.0123  0.8847 -1.1086
  397TIP3    H222607   6.323   4.930   2.344 -0.5472  1.5121 -1.4242
  398TIP3   OH222608   1.382   3.732  15.292  0.4799  0.1352  0.3189
  398TIP3    H122609   1.367   3.820  15.257 -1.2141  0.1368  0.9744
  398TIP3    H222610   1.475   3.730  15.315  0.3328  2.1031  1.2068
  399TIP3   OH222611   6.624   4.558  11.366  0.0317 -0.3947  0.7517
  399TIP3    H122612   6.664   4.638  11.399  0.9252  0.5364 -2.4099
  399TIP3    H222613   6.696   4.495  11.363  0.0192 -0.3913  0.3349
  400TIP3   OH222614   1.673   4.708   1.305  0.0545 -0.2259 -0.1654
  400TIP3    H122615   1.661   4.672   1.217 -1.4807 -1.0831  0.3579
  400TIP3    H222616   1.765   4.694   1.325  0.2951 -0.4909 -1.4416
  401TIP3   OH222617   2.291   1.414   3.526  0.7200  0.1345  0.6665
  401TIP3    H122618   2.217   1.388   3.581  1.1688 -1.2086  0.6673
  401TIP3    H222619   2.361   1.354   3.552  1.0487 -0.2634 -1.0881
  402TIP3   OH222620   4.579   1.514   5.193  0.7378  0.3552 -0.2545
  402TIP3    H122621   4.642   1.455   5.151  0.5834  0.3890 -0.5380
  402TIP3    H222622   4.584   1.492   5.286  0.6098 -0.1752 -0.3714
  403TIP3   OH222623   5.047   4.161   3.361 -0.0910  0.1551  0.6134
  403TIP3    H122624   5.039   4.132   3.270 -0.3053  1.5756  0.1643
  403TIP3    H222625   5.113   4.230   3.359  0.0508  0.0604  1.5752
  404TIP3   OH222626   1.403   1.998  15.482  0.3221  0.0000  0.3686
  404TIP3    H122627   1.312   1.967  15.482  0.4320 -0.3229  0.3131
  404TIP3    H222628   1.416   2.034  15.395  1.1779 -2.6988 -0.6490
  405TIP3   OH222629   1.067   0.946   2.663 -0.4504 -0.0380  0.2919
  405TIP3    H122630   0.996   0.899   2.620  0.4532 -0.6366 -0.5545
  405TIP3    H222631   1.115   0.988   2.591  0.3888 -0.1070  0.8076
  406TIP3   OH222632   2.709   5.019  11.289  0.1573 -0.2366  0.1878
  406TIP3    H122633   2.758   4.937  11.292  2.5952  1.1455 -0.7231
  406TIP3    H222634   2.641   5.005  11.223  0.2132 -1.6881  0.4261
  407TIP3   OH222635   1.320   3.559   0.038 -0.0549 -0.6232 -0.1358
  407TIP3    H122636   1.336   3.500   0.112  1.3519  0.3864  0.3935
  407TIP3    H222637   1.305   3.644   0.079 -1.4296 -0.4781 -0.9286
  408TIP3   OH222638   0.971   3.697   5.443  0.1967 -0.0658  0.1414
  408TIP3    H122639   0.875   3.699   5.451  0.0692 -3.1642 -0.0567
  408TIP3    H222640   0.986   3.687   5.349  0.7524  0.9863  0.1132
  409TIP3   OH222641   1.345   5.938  13.797  0.6249 -0.7540 -0.9633
  409TIP3    H122642   1.428   5.891  13.798  1.5118  0.7479 -2.1498
  409TIP3    H222643   1.301   5.908  13.717  1.3724  0.6962 -1.9402
  410TIP3   OH222644   2.374   4.741   5.876  0.0905 -0.1588 -0.1904
  410TIP3    H122645   2.467   4.730   5.859 -0.0491  0.6636 -1.5688
  410TIP3    H222646   2.370   4.787   5.960  0.8743 -1.3259  0.5032
  411TIP3   OH222647   6.095   2.989   4.420 -0.1709  0.0084  0.4886
  411TIP3    H122648   6.095   3.060   4.484  1.3870  0.9255 -0.4737
  411TIP3    H222649   6.037   3.019   4.350  2.0993  1.3536 -0.9181
  412TIP3   OH222650   4.185   0.932   1.870  0.3633  0.0032  0.2850
  412TIP3    H122651   4.152   0.873   1.801  0.8079  0.9962 -0.7878
  412TIP3    H222652   4.106   0.964   1.913  0.0448  0.1068 -0.3707
  413TIP3   OH222653   0.463   4.103  15.824 -0.0838 -0.1723 -0.2860
  413TIP3    H122654   0.400   4.042  15.862  1.5299 -0.6716  1.6638
  413TIP3    H222655   0.412   4.184  15.810 -1.0858 -0.4515  1.5798
  414TIP3   OH222656   2.323   1.097  11.911  0.5873 -0.6181 -0.1803
  414TIP3    H122657   2.300   1.006  11.928  0.8953 -0.5574  0.5463
  414TIP3    H222658   2.243   1.135  11.873 -0.4504 -0.4758  2.0991
  415TIP3   OH222659   3.618   5.141   2.205 -0.3253  0.2838  0.0035
  415TIP3    H122660   3.529   5.156   2.174 -0.5769 -1.8529 -0.3780
  415TIP3    H222661   3.615   5.054   2.246  1.5610  0.2006  0.0054
  416TIP3   OH222662   0.097   2.881   5.404  0.6758  0.1213 -0.4890
  416TIP3    H122663   0.050   2.811   5.448 -1.1258  1.2262 -0.6123
  416TIP3    H222664   0.190   2.863   5.422  0.2511 -2.2983 -0.5966
  417TIP3   OH222665   5.051   1.658  16.971 -0.0068 -0.0809 -0.1059
  417TIP3    H122666   4.999   1.649  17.051  2.3919 -0.1945  1.5019
  417TIP3    H222667   5.031   1.579  16.920 -2.1487  0.3660 -0.0208
  418TIP3   OH222668   4.331   2.699   1.022 -0.3544  0.0253 -0.2923
  418TIP3    H122669   4.367   2.667   1.105  0.5587  0.9100 -0.3458
  418TIP3    H222670   4.298   2.786   1.042 -0.3127  0.1624 -0.8106
  419TIP3   OH222671   2.618   5.643   5.604  0.1218  0.3086  0.2338
  419TIP3    H122672   2.624   5.553   5.573  0.4168  0.3251  0.2364
  419TIP3    H222673   2.539   5.679   5.564  0.0599  0.0784  0.1557
  420TIP3   OH222674   3.180   0.895  11.765 -0.0088 -0.3538 -0.4159
  420TIP3    H122675   3.134   0.832  11.709 -3.0739  0.1737  1.3723
  420TIP3    H222676   3.147   0.981  11.737  1.1457  0.1655 -0.1973
  421TIP3   OH222677   1.734   3.761   1.501  0.4602 -0.2681  0.4254
  421TIP3    H122678   1.814   3.745   1.451  0.5251 -0.8696  0.7189
  421TIP3    H222679   1.759   3.747   1.592  0.1312 -0.0033  0.5596
  422TIP3   OH222680   0.120   6.256  17.020  0.0868  0.1394 -0.1559
  422TIP3    H122681   0.187   6.196  16.985  1.4403  1.8367 -0.5461
  422TIP3    H222682   0.070   6.202  17.081  1.7447 -1.2056  0.0739
  423TIP3   OH222683   6.532   3.382   1.619  0.7210 -0.2035 -0.2677
  423TIP3    H122684   6.477   3.358   1.694  1.7721  1.7855  1.1891
  423TIP3    H222685   6.510   3.473   1.602  1.5270 -0.2333 -1.4850
  424TIP3   OH222686   5.395   2.626   3.932 -0.3756  0.1417  0.1543
  424TIP3    H122687   5.423   2.674   3.854  2.8497 -1.2002  0.4447
  424TIP3    H222688   5.386   2.536   3.902 -1.1452 -0.0232  0.8752
  425TIP3   OH222689   1.320   6.085  14.869 -0.6933 -0.0798  0.2040
  425TIP3    H122690   1.302   5.998  14.904 -1.1870  0.2166  0.7080
  425TIP3    H222691   1.262   6.093  14.794 -0.5496 -0.2353  0.0758
  426TIP3   OH222692   6.195   4.052  12.916  0.5253  0.9046  0.5003
  426TIP3    H122693   6.151   4.133  12.891 -0.5207  0.6186  1.3760
  426TIP3    H222694   6.124   3.992  12.938  1.3089 -0.0884  0.3590
  427TIP3   OH222695   0.266   5.221  14.314 -0.3490  0.1056 -0.1154
  427TIP3    H122696   0.174   5.194  14.317  0.8906 -5.4699 -3.7010
  427TIP3    H222697   0.266   5.300  14.260 -2.9308 -0.4407 -0.9846
  428TIP3   OH222698   3.055   3.647  17.076 -0.3179  0.1998 -0.8486
  428TIP3    H122699   3.071   3.661  17.170  0.9618  0.1305 -1.0561
  428TIP3    H222700   2.960   3.657  17.067 -0.4722  0.0983  0.4728
  429TIP3   OH222701   2.931   3.504  14.820 -0.2425 -0.1617 -0.2177
  429TIP3    H122702   2.869   3.575  14.834 -0.5682 -0.2456 -1.1808
  429TIP3    H222703   2.883   3.425  14.845  1.0621  0.1426  3.7234
  430TIP3   OH222704   4.509   4.164   5.836  0.0954 -0.3089  0.4947
  430TIP3    H122705   4.471   4.109   5.904  0.6379 -1.1804  0.1004
  430TIP3    H222706   4.549   4.102   5.775  1.9967  0.5821  0.8172
  431TIP3   OH222707   4.324   0.500   2.891 -0.3493 -0.2064  0.7905
  431TIP3    H122708   4.265   0.441   2.938 -1.6267  2.3158  2.4651
  431TIP3    H222709   4.383   0.534   2.958  0.3835  0.3901 -0.1377
  432TIP3   OH222710   0.399   6.256   5.962 -0.6235 -0.1776 -0.8720
  432TIP3    H122711   0.359   6.301   6.036 -2.7082 -1.8482 -0.9156
  432TIP3    H222712   0.492   6.251   5.983 -1.1351 -0.2485  1.4248
  433TIP3   OH222713   3.231   5.340  14.162 -0.0513  0.0528  0.0797
  433TIP3    H122714   3.141   5.320  14.187  0.5499 -0.8471  1.6327
  433TIP3    H222715   3.224   5.392  14.082 -1.8964 -1.1632 -0.5658
  434TIP3   OH222716   3.159   1.440  16.486  0.2544  0.0609  0.0858
  434TIP3    H122717   3.182   1.353  16.519  0.0271  0.0054  0.0979
  434TIP3    H222718   3.066   1.434  16.465  0.5313 -0.0864 -1.1308
  435TIP3   OH222719   0.830   2.120   1.838 -0.0761  0.2242  0.6064
  435TIP3    H122720   0.760   2.062   1.869  0.7592 -0.6808  0.8107
  435TIP3    H222721   0.894   2.061   1.798  0.1439  1.1306 -0.4156
  436TIP3   OH222722   3.875   1.933   5.162 -0.1737 -0.0516  0.3009
  436TIP3    H122723   3.958   1.979   5.176  0.5789 -0.2751 -3.1238
  436TIP3    H222724   3.863   1.882   5.243  1.3674  2.4298  2.1903
  437TIP3   OH222725   2.023   1.842  11.364  0.2155 -0.0826 -0.3031
  437TIP3    H122726   2.108   1.833  11.320  0.7660  2.0919  0.2698
  437TIP3    H222727   2.041   1.893  11.442 -1.3097 -1.3062  0.8895
  438TIP3   OH222728   0.512   5.677  11.531 -0.2061  0.6574 -0.6956
  438TIP3    H122729   0.452   5.689  11.457 -0.9336  0.6762 -0.1102
  438TIP3    H222730   0.542   5.586  11.522  0.2735  0.8832 -1.4220
  439TIP3   OH222731   2.363   3.932   0.272 -0.3243 -0.1325 -0.8430
  439TIP3    H122732   2.402   3.878   0.203 -1.5847 -0.9427 -0.9623
  439TIP3    H222733   2.332   3.868   0.337  0.8771  0.6263  0.4888
  440TIP3   OH222734   4.411   6.538  10.258 -0.7720  0.5162  0.8995
  440TIP3    H122735   4.502   6.552  10.235 -0.6642 -2.1551 -0.4791
  440TIP3    H222736   4.369   6.624  10.248  0.7781  0.9543 -2.2288
  441TIP3   OH222737   6.548   3.212   2.833  0.3735 -0.1779 -0.0978
  441TIP3    H122738   6.500   3.136   2.866  0.3614  0.0862  0.4973
  441TIP3    H222739   6.563   3.267   2.910  4.0585 -1.5439  0.2675
  442TIP3   OH222740   5.571   2.664  15.933  0.0712  0.2386 -0.1785
  442TIP3    H122741   5.589   2.692  16.023  0.0378 -0.6581  0.1170
  442TIP3    H222742   5.620   2.582  15.923 -0.3613  0.0490 -0.8024
  443TIP3   OH222743   4.214   3.174  15.958  0.2226 -0.5130  0.1487
  443TIP3    H122744   4.126   3.188  15.923  0.0798 -1.3522  0.1635
  443TIP3    H222745   4.258   3.258  15.947 -1.2559  0.5739  2.0792
  444TIP3   OH222746   4.413   1.378   0.740 -0.0308 -0.0183 -0.6859
  444TIP3    H122747   4.398   1.290   0.705 -3.7302 -0.1207  0.8516
  444TIP3    H222748   4.380   1.437   0.672 -0.0298  0.0711 -0.6084
  445TIP3   OH222749   3.526   2.040  15.985 -0.5745  0.1162 -0.1291
  445TIP3    H122750   3.492   1.973  15.925 -0.1179  1.2518 -1.6610
  445TIP3    H222751   3.541   1.992  16.067 -1.5186 -1.3763 -0.7995
  446TIP3   OH222752   6.574   4.277   6.353 -0.0853 -0.1925 -0.0093
  446TIP3    H122753   6.630   4.304   6.280 -0.6065  1.5467  0.2167
  446TIP3    H222754   6.621   4.204   6.393  1.5486  0.6036 -0.4272
  447TIP3   OH222755   4.928   6.533   5.333 -0.7784 -0.0944 -0.1291
  447TIP3    H122756   4.961   6.620   5.312  1.4691 -0.7178  0.7123
  447TIP3    H222757   4.959   6.478   5.261  0.1787 -0.7190  0.7562
  448TIP3   OH222758   3.441   4.813  16.738  0.4173 -0.0901 -0.1337
  448TIP3    H122759   3.396   4.821  16.654 -0.4172  0.8843  0.3964
  448TIP3    H222760   3.384   4.757  16.790  0.6431 -0.2081 -0.0111
  449TIP3   OH222761   2.865   4.754   0.794 -0.6647 -0.1996 -0.7049
  449TIP3    H122762   2.827   4.840   0.810 -1.1858 -0.3481 -1.1301
  449TIP3    H222763   2.801   4.692   0.829  0.8172 -0.3715  1.8682
  450TIP3   OH222764   1.983   2.388   3.683  0.2310  0.0608  0.6298
  450TIP3    H122765   2.068   2.386   3.727 -0.2622 -0.0465  1.5824
  450TIP3    H222766   1.985   2.469   3.632  0.6040  0.4541  1.2547
  451TIP3   OH222767   5.229   5.957   3.861 -0.7739  0.3315 -0.0792
  451TIP3    H122768   5.278   5.877   3.842 -1.3334 -0.4461  1.6329
  451TIP3    H222769   5.160   5.959   3.795  0.5657  0.5632 -1.4871
  452TIP3   OH222770   2.261   3.953  13.595  0.3355 -0.1311  0.1988
  452TIP3    H122771   2.327   3.899  13.552  1.1786  1.7258 -0.8941
  452TIP3    H222772   2.220   4.003  13.524 -1.3053 -0.2331  1.0372
  453TIP3   OH222773   3.736   2.038   4.184  0.4776  0.3211 -0.0426
  453TIP3    H122774   3.702   2.127   4.199 -1.7811 -0.6206  0.6593
  453TIP3    H222775   3.680   1.982   4.239  3.4121 -1.2900  1.4116
  454TIP3   OH222776   1.502   2.070  14.054 -0.3259  0.2749  0.2139
  454TIP3    H122777   1.448   2.079  13.976 -0.6756 -2.0483  0.1549
  454TIP3    H222778   1.441   2.042  14.122  0.4206 -0.2227  0.6836
  455TIP3   OH222779   3.431   0.650   2.637 -0.9042 -0.2476 -0.1549
  455TIP3    H122780   3.353   0.627   2.687 -1.7431  0.4625 -1.1301
  455TIP3    H222781   3.442   0.744   2.651 -0.3631 -0.2970 -0.2246
  456TIP3   OH222782   4.097   0.905  15.506 -0.3602 -0.1590 -0.6653
  456TIP3    H122783   4.126   0.882  15.595 -0.0761  2.2910 -0.0816
  456TIP3    H222784   4.004   0.922  15.514 -0.4637 -0.5794 -0.9707
  457TIP3   OH222785   2.428   3.057  11.790  0.1451 -0.4211  0.0737
  457TIP3    H122786   2.363   3.016  11.847 -0.8437 -0.6418 -1.1758
  457TIP3    H222787   2.379   3.125  11.744  0.5543 -1.2492 -1.6151
  458TIP3   OH222788   0.178   5.301  11.570 -0.7310 -0.6049 -0.0594
  458TIP3    H122789   0.138   5.276  11.487  0.4333 -0.5126 -0.6564
  458TIP3    H222790   0.231   5.226  11.595  0.4929  0.1364 -0.4085
  459TIP3   OH222791   6.415   3.605  11.480  0.3874  0.3112  0.1147
  459TIP3    H122792   6.403   3.676  11.417 -1.0335 -0.4844 -0.5152
  459TIP3    H222793   6.482   3.549  11.440 -0.9542 -0.5270 -1.0094
  460TIP3   OH222794   6.523   3.045   0.483  0.1012 -0.5278 -0.5161
  460TIP3    H122795   6.596   2.991   0.510 -0.4899  0.2712  2.9280
  460TIP3    H222796   6.519   3.116   0.547 -0.7664  2.1735 -3.3659
  461TIP3   OH222797   5.555   2.299  14.522  0.6433  0.5430  0.2836
  461TIP3    H122798   5.617   2.319  14.592 -0.3478 -0.1136  1.3596
  461TIP3    H222799   5.609   2.293  14.443  1.7073  1.7278  0.9078
  462TIP3   OH222800   4.363   2.959   4.773  0.2863  0.4503  0.6035
  462TIP3    H122801   4.279   2.997   4.746  0.6103  0.6472 -0.1441
  462TIP3    H222802   4.388   2.903   4.700 -0.2127 -1.2678  1.7136
  463TIP3   OH222803   2.346   2.165  13.226 -0.0688  0.1261 -0.2923
  463TIP3    H122804   2.341   2.248  13.178 -0.1339 -1.0700 -2.4035
  463TIP3    H222805   2.259   2.126  13.215  0.7388 -1.3749 -1.4637
  464TIP3   OH222806   1.956   6.192  11.509  0.1182 -0.0685 -0.3487
  464TIP3    H122807   2.037   6.222  11.467  0.1597  0.9100  0.4186
  464TIP3    H222808   1.973   6.102  11.534 -0.4181 -1.1985 -3.7880
  465TIP3   OH222809   5.561   1.053   5.670  0.5076 -0.1137  0.5436
  465TIP3    H122810   5.493   1.096   5.721  0.4664 -1.0471  1.2961
  465TIP3    H222811   5.616   1.124   5.637 -0.7882  0.6432 -0.0125
  466TIP3   OH222812   5.865   1.472  14.944 -0.2371  0.0133 -0.0892
  466TIP3    H122813   5.903   1.541  14.890  0.3186  1.5942  2.2419
  466TIP3    H222814   5.940   1.427  14.982 -0.6069 -1.6269 -1.2483
  467TIP3   OH222815   2.028   1.136  12.869 -0.6357  0.6233  0.1192
  467TIP3    H122816   2.029   1.095  12.955  0.5038 -1.5018 -0.8687
  467TIP3    H222817   2.092   1.207  12.875  0.1652 -0.1344  0.7684
  468TIP3   OH222818   5.771   3.962   2.979  0.6663  0.4180 -0.0066
  468TIP3    H122819   5.783   4.044   3.026 -2.2019  1.3150 -0.6961
  468TIP3    H222820   5.713   3.911   3.035  0.3741 -0.0918 -0.7581
  469TIP3   OH222821   4.903   0.223   3.737 -0.2685  0.0012  0.3418
  469TIP3    H122822   4.990   0.201   3.768 -0.2647  0.1936  0.4706
  469TIP3    H222823   4.876   0.148   3.684 -0.1013 -0.1404  0.4575
  470TIP3   OH222824   1.506   4.937   5.711 -0.0762 -0.3129  0.4026
  470TIP3    H122825   1.478   5.014   5.760 -0.0226 -1.1438  1.7755
  470TIP3    H222826   1.445   4.868   5.738  0.0055 -0.8052 -0.6469
  471TIP3   OH222827   0.303   1.811  12.015 -0.1119 -0.0261  0.4750
  471TIP3    H122828   0.229   1.847  11.966 -0.1480  2.4734  2.2702
  471TIP3    H222829   0.276   1.721  12.036 -3.0167  1.0368  1.7220
  472TIP3   OH222830   6.647   5.917  14.534  0.1646  0.7148 -0.0692
  472TIP3    H122831   6.575   5.927  14.471  1.2905  1.4927 -1.2532
  472TIP3    H222832   6.706   5.855  14.492 -0.8542 -1.6362  1.8797
  473TIP3   OH222833   1.369   3.110   5.597  0.5060 -0.3988  0.0253
  473TIP3    H122834   1.360   3.181   5.660  0.3583 -1.3047  1.0426
  473TIP3    H222835   1.315   3.039   5.632  0.0969 -0.7768 -1.3354
  474TIP3   OH222836   6.697   5.560   6.837 -0.0916  0.5244  0.1078
  474TIP3    H122837   6.633   5.561   6.766  1.5532 -0.0096 -1.4190
  474TIP3    H222838   6.715   5.467   6.852 -0.2355  0.6409  1.0598
  475TIP3   OH222839   5.980   1.309   2.917 -0.0111  0.4299 -0.0455
  475TIP3    H122840   5.911   1.366   2.882  0.3794  1.1872  0.3986
  475TIP3    H222841   6.053   1.321   2.856  0.4386  1.2355  0.6366
  476TIP3   OH222842   5.341   6.331  12.451 -0.3882  0.7316 -0.6697
  476TIP3    H122843   5.301   6.274  12.517 -0.8844 -0.8949 -2.3247
  476TIP3    H222844   5.303   6.417  12.467  0.6668  0.7329  2.1333
  477TIP3   OH222845   6.641   1.651  11.160 -0.5486  0.3245  0.0340
  477TIP3    H122846   6.607   1.573  11.115  0.5431  0.2287 -0.6645
  477TIP3    H222847   6.662   1.620  11.248 -1.2233  0.1130  0.1205
  478TIP3   OH222848   1.962   4.655   3.668 -0.0654 -0.1078 -0.4834
  478TIP3    H122849   1.900   4.596   3.625 -2.0672  1.3314  0.3436
  478TIP3    H222850   2.035   4.664   3.606 -1.7581 -0.0069 -2.5025
  479TIP3   OH222851   2.427   2.785  15.570  0.1388 -0.0659  0.2323
  479TIP3    H122852   2.418   2.708  15.514 -0.4169 -0.3056  0.6531
  479TIP3    H222853   2.345   2.790  15.618 -0.1980  1.3191 -0.4510
  480TIP3   OH222854   6.280   0.145   0.758  0.0665 -0.8450 -0.4056
  480TIP3    H122855   6.362   0.119   0.799  0.4857  0.8196 -0.1482
  480TIP3    H222856   6.295   0.235   0.729 -1.9604 -0.1647  0.5231
  481TIP3   OH222857   4.292   0.410   3.252  0.5442 -0.4712  0.5356
  481TIP3    H122858   4.325   0.324   3.280  0.6424 -1.0988 -1.4784
  481TIP3    H222859   4.371   0.460   3.231  0.4094 -0.4308  0.1332
  482TIP3   OH222860   5.892   5.012  11.327 -0.1492  0.0813 -0.0523
  482TIP3    H122861   5.916   4.948  11.260  1.0415 -1.9719  2.2647
  482TIP3    H222862   5.797   5.007  11.333 -0.1636 -0.5366 -0.7954
  483TIP3   OH222863   4.654   4.294   5.058 -0.0846 -0.1961 -0.1317
  483TIP3    H122864   4.646   4.284   5.153 -1.0273 -0.5340 -0.2456
  483TIP3    H222865   4.581   4.244   5.022 -1.0492  1.7511 -0.9528
  484TIP3   OH222866   0.907   2.833   2.134  0.4391  0.9400  0.2278
  484TIP3    H122867   0.881   2.777   2.061  0.7805  1.5092 -0.3311
  484TIP3    H222868   0.925   2.772   2.206 -1.6228  0.4815  0.3839
  485TIP3   OH222869   1.336   4.573  13.829  0.4996 -0.4507 -1.2250
  485TIP3    H122870   1.308   4.627  13.756 -0.8814 -0.8921 -1.0335
  485TIP3    H222871   1.302   4.618  13.907  2.8113  0.5647 -0.7377
  486TIP3   OH222872   0.048   5.168  16.179  0.6881 -0.4067  0.1086
  486TIP3    H122873   0.134   5.182  16.219 -0.1522  2.0476  1.2286
  486TIP3    H222874   0.045   5.231  16.107  0.0723 -0.8894 -0.2854
  487TIP3   OH222875   0.387   5.813  13.048 -1.1679 -0.3417  0.6149
  487TIP3    H122876   0.338   5.764  12.982  0.2083  0.0154 -0.7041
  487TIP3    H222877   0.403   5.750  13.118  0.8628 -1.9647 -1.1990
  488TIP3   OH222878   2.702   3.454  17.172  0.0570 -0.0043 -0.4210
  488TIP3    H122879   2.648   3.385  17.212  0.8443 -0.6875 -0.5244
  488TIP3    H222880   2.791   3.419  17.174  1.1179  2.5751  3.0673
  489TIP3   OH222881   3.142   5.239   4.174 -0.4140  0.4145 -0.3514
  489TIP3    H122882   3.052   5.237   4.204  0.0974 -0.2482  1.1846
  489TIP3    H222883   3.156   5.330   4.147 -0.7444  1.1844  1.9442
  490TIP3   OH222884   0.544   1.568  12.861  0.2593  0.6035  0.2052
  490TIP3    H122885   0.560   1.474  12.874 -0.1987  0.5032  0.0651
  490TIP3    H222886   0.605   1.593  12.791 -1.2550 -0.1119 -1.4186
  491TIP3   OH222887   0.174   4.070  14.270 -0.2344 -0.6350  0.2766
  491TIP3    H122888   0.082   4.090  14.285  0.5463  2.2165  1.5315
  491TIP3    H222889   0.205   4.036  14.355  0.3753  0.4309  0.4852
  492TIP3   OH222890   5.951   3.099   6.467 -0.3786  0.4562  0.2343
  492TIP3    H122891   5.915   3.019   6.430  1.8706  0.0960 -1.2698
  492TIP3    H222892   5.951   3.161   6.395  1.2225  0.6851  0.4062
  493TIP3   OH222893   5.940   3.283   1.361 -0.4653 -1.0985 -0.7767
  493TIP3    H122894   5.883   3.307   1.434  0.9250 -1.6708  0.5231
  493TIP3    H222895   5.976   3.367   1.330 -1.7319 -0.7690 -1.3979
  494TIP3   OH222896   3.797   0.440  12.967  0.0786 -0.1494  0.0305
  494TIP3    H122897   3.721   0.417  13.021 -0.6565  1.0791 -0.4645
  494TIP3    H222898   3.822   0.358  12.924 -0.4154 -0.7523  0.8827
  495TIP3   OH222899   4.230   4.493   2.568  0.0742  0.3253  0.1073
  495TIP3    H122900   4.142   4.528   2.576 -0.8792 -1.8908 -0.3281
  495TIP3    H222901   4.248   4.453   2.653  0.0233 -0.6646 -0.3503
  496TIP3   OH222902   4.601   2.474   5.336 -0.2584 -0.3616  0.7078
  496TIP3    H122903   4.507   2.487   5.351 -0.2935  1.8354 -1.0877
  496TIP3    H222904   4.606   2.420   5.257 -0.0550  1.5615 -0.6415
  497TIP3   OH222905   4.923   0.255  10.762  0.1185  0.4608 -0.0061
  497TIP3    H122906   4.896   0.265  10.854  0.9534  2.2690  0.0637
  497TIP3    H222907   4.847   0.216  10.719 -0.7473  0.7776  1.2045
  498TIP3   OH222908   4.060   0.007   5.625  0.2543 -0.0674  0.3235
  498TIP3    H122909   4.113   0.079   5.660 -0.4239  0.5781  0.0437
  498TIP3    H222910   4.069   0.015   5.530  1.8063 -1.5998  0.3139
  499TIP3   OH222911   5.034   5.789  17.096 -0.6988 -0.1131 -0.0487
  499TIP3    H122912   5.029   5.693  17.099 -0.8781 -0.0611  1.3304
  499TIP3    H222913   4.944   5.818  17.103 -0.5680  0.1845  0.3897
  500TIP3   OH222914   2.354   2.073  12.112  0.1629 -0.2798 -0.0918
  500TIP3    H122915   2.348   2.110  12.025 -1.1581  1.0710  0.5602
  500TIP3    H222916   2.265   2.041  12.131  0.7938 -1.9528  0.1625
  501TIP3   OH222917   0.738   0.673   2.057  0.1672  0.7001 -0.0569
  501TIP3    H122918   0.728   0.656   1.964 -0.1695  1.8500 -0.2290
  501TIP3    H222919   0.675   0.741   2.077  1.3870  1.6508  0.6757
  502TIP3   OH222920   6.295   5.833  14.934 -0.0702  0.0145 -0.2671
  502TIP3    H122921   6.242   5.823  15.013  3.1459 -0.6519  1.9034
  502TIP3    H222922   6.246   5.788  14.865 -2.3172 -0.4968  1.6272
  503TIP3   OH222923   6.449   3.834   2.530 -0.0564  0.4910  0.3216
  503TIP3    H122924   6.507   3.884   2.473  0.0554  0.7335  0.6462
  503TIP3    H222925   6.372   3.889   2.542 -0.9670 -0.4063 -1.2222
  504TIP3   OH222926   5.792   5.854  12.610 -0.8405 -0.5785 -0.3147
  504TIP3    H122927   5.764   5.765  12.632 -0.9576 -0.5677 -0.4222
  504TIP3    H222928   5.886   5.845  12.594 -0.6694 -0.5049  0.6300
  505TIP3   OH222929   3.666   2.312   3.786  0.1498  0.0902 -0.0992
  505TIP3    H122930   3.731   2.336   3.720 -0.7973 -0.2126 -1.1700
  505TIP3    H222931   3.629   2.229   3.754 -1.2093  0.5821  0.1463
  506TIP3   OH222932   0.489   3.151  12.658 -0.3924  0.3675  0.5699
  506TIP3    H122933   0.580   3.121  12.648 -1.0327 -1.2344 -0.5450
  506TIP3    H222934   0.438   3.071  12.665 -1.7649  1.2667  0.9309
  507TIP3   OH222935   4.664   4.203  14.840 -0.2316 -0.5016 -0.8058
  507TIP3    H122936   4.718   4.176  14.766  0.2343 -0.9080 -0.3203
  507TIP3    H222937   4.660   4.126  14.896 -1.7848 -0.6686 -1.1044
  508TIP3   OH222938   2.762   3.710  15.854 -0.3393  0.0588 -0.2902
  508TIP3    H122939   2.771   3.660  15.936  1.0919  2.1057  0.8530
  508TIP3    H222940   2.685   3.765  15.868  0.0846  0.6288 -0.2024
  509TIP3   OH222941   6.477   6.312   1.344  0.1888 -0.3805 -0.0926
  509TIP3    H122942   6.383   6.294   1.357  0.3922 -1.5116 -0.1042
  509TIP3    H222943   6.510   6.330   1.432 -0.5517  2.6778 -0.4062
  510TIP3   OH222944   2.273   0.639   4.612  0.2363 -0.0168 -0.8011
  510TIP3    H122945   2.243   0.659   4.700  1.3197 -2.8428  0.2653
  510TIP3    H222946   2.336   0.708   4.591 -1.0741  1.4629  0.0524
  511TIP3   OH222947   5.949   5.460   6.361 -0.3511 -0.3372 -0.6602
  511TIP3    H122948   5.866   5.507   6.367 -0.9838 -1.5379  0.4380
  511TIP3    H222949   5.934   5.380   6.413  1.5940 -0.3971 -0.1710
  512TIP3   OH222950   1.198   0.672   1.253  0.3972 -0.3463 -0.7018
  512TIP3    H122951   1.111   0.699   1.283 -0.6237 -2.4082 -1.6977
  512TIP3    H222952   1.185   0.645   1.163  1.2176 -4.4821  0.3088
  513TIP3   OH222953   1.352   4.382  14.126 -0.2745 -0.1512 -0.1736
  513TIP3    H122954   1.276   4.440  14.136  0.8692  1.7615 -2.1748
  513TIP3    H222955   1.345   4.349  14.037  0.9030 -0.4904 -0.1461
  514TIP3   OH222956   5.880   0.279  11.772  0.6034 -0.3707 -0.0647
  514TIP3    H122957   5.874   0.279  11.867  2.7725 -1.5869  0.0824
  514TIP3    H222958   5.963   0.238  11.752  0.5388  0.5507 -2.4885
  515TIP3   OH222959   3.629   4.600   4.515 -0.2732 -0.5623  0.4730
  515TIP3    H122960   3.549   4.549   4.506 -1.0824  0.2144  3.0009
  515TIP3    H222961   3.694   4.537   4.547 -1.0283 -0.2657  2.6700
  516TIP3   OH222962   1.618   4.750   3.650  0.2428 -0.6115  0.0294
  516TIP3    H122963   1.538   4.788   3.686  0.8096 -0.3902  1.1096
  516TIP3    H222964   1.614   4.767   3.556  0.5107  2.1760  0.4980
  517TIP3   OH222965   2.449   3.999   5.455 -0.0486 -0.1426  0.0900
  517TIP3    H122966   2.442   4.036   5.367  3.5690  1.3814  0.3686
  517TIP3    H222967   2.474   4.073   5.510 -0.9573 -1.3496  2.1940
  518TIP3   OH222968   0.678   1.429   5.743  0.0005  0.8202  0.2877
  518TIP3    H122969   0.659   1.424   5.649  3.0574  0.5142 -0.3654
  518TIP3    H222970   0.714   1.516   5.756  1.9139 -0.0113  0.6951
  519TIP3   OH222971   0.183   6.101  15.492  0.0804 -0.0449 -0.3515
  519TIP3    H122972   0.234   6.023  15.511 -0.5854 -0.6663 -1.0615
  519TIP3    H222973   0.125   6.112  15.568 -0.0090 -0.4035 -0.3655
  520TIP3   OH222974   1.552   2.665  14.946 -0.5164  0.0540 -0.1617
  520TIP3    H122975   1.473   2.708  14.978  0.6631  1.6001  0.7732
  520TIP3    H222976   1.528   2.573  14.936 -2.7465  0.7189 -1.0259
  521TIP3   OH222977   1.082   5.097   0.179  0.2316  0.5539  0.3854
  521TIP3    H122978   1.019   5.045   0.129  1.4461 -1.2762  0.7165
  521TIP3    H222979   1.031   5.130   0.253 -0.5641 -0.1718  0.1833
  522TIP3   OH222980   6.720   0.200   2.168 -0.6879 -0.0334 -0.3345
  522TIP3    H122981   6.688   0.288   2.146 -1.4953 -0.7196 -2.0234
  522TIP3    H222982   6.813   0.212   2.186 -0.9589  1.2955  0.3021
  523TIP3   OH222983   4.207   4.869   3.861  0.6616 -0.0070  0.0980
  523TIP3    H122984   4.279   4.916   3.818  0.5123 -2.0471 -2.4851
  523TIP3    H222985   4.155   4.938   3.901  1.8745  1.8505 -1.4116
  524TIP3   OH222986   3.937   0.108   1.240  0.1231  0.4857  0.3521
  524TIP3    H122987   3.901   0.151   1.317  0.2694 -0.8562  1.1792
  524TIP3    H222988   3.861   0.072   1.195  0.2470 -0.7896  1.1435
  525TIP3   OH222989   1.202   1.062   4.135  0.5387 -0.6996  0.2061
  525TIP3    H122990   1.297   1.062   4.130  0.5228 -2.0775 -0.4149
  525TIP3    H222991   1.180   0.979   4.178 -0.3477 -0.0297  1.0564
  526TIP3   OH222992   3.509   6.262   3.965  0.2366 -0.0084 -0.1981
  526TIP3    H122993   3.417   6.237   3.971  0.7268 -1.8016  0.1254
  526TIP3    H222994   3.518   6.295   3.875 -0.5695 -0.5156 -0.4809
  527TIP3   OH222995   6.539   1.117   2.414 -0.2633 -0.2200  0.1752
  527TIP3    H122996   6.623   1.153   2.444 -0.1591 -0.7398  0.5002
  527TIP3    H222997   6.545   1.122   2.318  0.1355 -0.2471  0.1950
  528TIP3   OH222998   1.891   0.303   5.568 -0.0422  0.5405 -0.1120
  528TIP3    H122999   1.954   0.352   5.516 -0.9518 -0.8241 -2.5756
  528TIP3    H223000   1.899   0.213   5.537 -2.2301  0.1048  0.4880
  529TIP3   OH223001   3.945   4.724  15.987 -0.2752  0.3230 -0.0805
  529TIP3    H123002   3.971   4.814  15.970  0.7257 -0.1655 -1.1856
  529TIP3    H223003   3.865   4.712  15.936 -0.1780  0.4661 -0.2693
  530TIP3   OH223004   2.749   1.308   6.325 -0.5089  0.2673  0.2942
  530TIP3    H123005   2.657   1.334   6.312 -1.0120 -0.7240  1.6695
  530TIP3    H223006   2.750   1.270   6.413  1.5947  1.8509  0.9910
  531TIP3   OH223007   5.466   3.296  13.698  0.1741 -0.0274 -0.4128
  531TIP3    H123008   5.495   3.380  13.733  0.4531 -0.2205 -0.1864
  531TIP3    H223009   5.543   3.259  13.655  0.5672 -1.0254  1.1075
  532TIP3   OH223010   5.749   0.943  13.029  0.0005  0.5470 -0.0110
  532TIP3    H123011   5.831   0.940  13.079 -0.1080  0.4465  0.1624
  532TIP3    H223012   5.770   0.995  12.951  0.5926 -0.5924 -0.6283
  533TIP3   OH223013   4.574   5.016  11.568  0.2323 -0.3999 -0.1108
  533TIP3    H123014   4.502   4.968  11.527  0.9808 -1.9053  0.2647
  533TIP3    H223015   4.652   4.962  11.551  0.8940  0.0201  1.4430
  534TIP3   OH223016   0.433   4.640   3.360  0.4288 -0.1688 -0.1757
  534TIP3    H123017   0.417   4.560   3.311 -1.6064  0.2248 -0.2121
  534TIP3    H223018   0.375   4.705   3.320  1.1434  1.0020  0.6439
  535TIP3   OH223019   1.634   4.175   0.369  0.2011  0.4258 -0.1393
  535TIP3    H123020   1.555   4.176   0.315  0.3528  0.6541 -0.3597
  535TIP3    H223021   1.645   4.266   0.395  0.9919  0.5840 -0.9896
  536TIP3   OH223022   4.410   2.057   5.604 -0.1663 -0.4287  0.3131
  536TIP3    H123023   4.403   1.979   5.658  0.2091  0.2880  1.4207
  536TIP3    H223024   4.474   2.035   5.537  1.1543 -0.5257  1.5893
  537TIP3   OH223025   5.361   0.024  13.499  0.2088  0.8483 -0.7738
  537TIP3    H123026   5.342   0.117  13.488  2.8029  1.3914 -1.1345
  537TIP3    H223027   5.448   0.013  13.461 -0.2444 -1.8274 -1.1283
  538TIP3   OH223028   3.985   5.902  16.334  0.0432 -0.3046  0.1269
  538TIP3    H123029   3.976   5.976  16.395 -0.8416 -1.3129  1.2381
  538TIP3    H223030   4.015   5.942  16.253 -0.0915  1.2421  0.8165
  539TIP3   OH223031   4.562   0.140  16.102  0.5608 -0.2810  0.3711
  539TIP3    H123032   4.498   0.164  16.169  1.0743  1.8219  0.1142
  539TIP3    H223033   4.519   0.161  16.019  1.2792  0.3909  0.1691
  540TIP3   OH223034   1.914   4.211  15.246  0.0915 -0.7268  0.6315
  540TIP3    H123035   1.908   4.272  15.319 -0.3234 -0.4600  0.3758
  540TIP3    H223036   1.997   4.232  15.203 -0.1448 -0.2165  0.4278
  541TIP3   OH223037   4.691   5.730   1.612  0.3973  0.2939 -0.0736
  541TIP3    H123038   4.661   5.639   1.608  0.6363  0.0952  2.0775
  541TIP3    H223039   4.611   5.782   1.606  0.2701 -0.0319 -1.4367
  542TIP3   OH223040   2.304   4.480  14.820  0.4632 -0.4445  0.0912
  542TIP3    H123041   2.238   4.495  14.752  0.3235 -1.0173  0.0884
  542TIP3    H223042   2.337   4.567  14.842 -0.3915 -0.1386  0.1872
  543TIP3   OH223043   0.791   6.064   4.786  0.5587 -0.8039  0.3668
  543TIP3    H123044   0.836   5.986   4.819 -0.8777 -1.6111  0.4250
  543TIP3    H223045   0.771   6.115   4.864  0.2307 -1.0543  0.4445
  544TIP3   OH223046   2.585   1.456  13.339 -0.3513 -0.2049  0.0968
  544TIP3    H123047   2.523   1.384  13.326 -0.4726 -0.0955  0.0775
  544TIP3    H223048   2.591   1.465  13.434 -1.5843  0.8504  0.0875
  545TIP3   OH223049   5.925   3.071   5.971 -0.0530  0.0468  0.0543
  545TIP3    H123050   5.841   3.029   5.987 -1.1176  2.3144  0.6794
  545TIP3    H223051   5.961   3.085   6.059  1.1714 -1.2360 -0.2237
  546TIP3   OH223052   4.373   2.930  10.641 -0.4697 -0.0767  0.1945
  546TIP3    H123053   4.348   2.908  10.731  1.8014 -0.8601  0.6896
  546TIP3    H223054   4.417   2.851  10.609  2.1126  1.4956 -0.2653
  547TIP3   OH223055   0.525   0.027   3.137  0.5846 -0.0102 -0.3808
  547TIP3    H123056   0.568   0.034   3.052  0.2314 -3.0432 -0.8597
  547TIP3    H223057   0.592  -0.009   3.195  0.1937  0.0667  0.1256
  548TIP3   OH223058   1.655   5.024  15.870  0.1650  0.2744  0.6058
  548TIP3    H123059   1.621   4.948  15.917 -0.8364 -0.5507 -1.3928
  548TIP3    H223060   1.590   5.093  15.885 -0.9183 -0.4348 -0.8068
  549TIP3   OH223061   0.083   4.715  15.205 -0.0498 -0.8201  0.1687
  549TIP3    H123062   0.161   4.753  15.166 -1.1935  2.4312  0.8241
  549TIP3    H223063   0.095   4.727  15.299 -0.6483 -1.6665  0.3586
  550TIP3   OH223064   6.699   3.475   5.732 -0.6627  0.0914 -0.0116
  550TIP3    H123065   6.649   3.503   5.655 -1.4685  0.4581  0.6401
  550TIP3    H223066   6.661   3.390   5.755 -1.0507  0.4123  0.5386
  551TIP3   OH223067   3.578   3.432  11.989 -0.2313  0.1080  0.0552
  551TIP3    H123068   3.486   3.407  11.974  0.0504 -0.5954 -0.5127
  551TIP3    H223069   3.625   3.349  11.989  0.4479  0.4945  0.0822
  552TIP3   OH223070   4.316   1.735   2.719  0.2594 -0.7230  0.4553
  552TIP3    H123071   4.280   1.700   2.801  0.6005 -0.3749  0.7503
  552TIP3    H223072   4.247   1.718   2.655  0.2740 -1.6235  0.6678
  553TIP3   OH223073   3.975   1.331   5.130  0.2814 -0.0332  0.6266
  553TIP3    H123074   4.022   1.410   5.105 -0.2344  0.4522  1.1542
  553TIP3    H223075   3.884   1.348   5.106  0.3145 -0.8242 -0.0772
  554TIP3   OH223076   4.542   6.681  14.778  0.3897 -0.1207  0.0196
  554TIP3    H123077   4.548   6.671  14.683  0.4475 -1.1460  0.1283
  554TIP3    H223078   4.563   6.594  14.813 -0.9474 -0.0965  0.9188
  555TIP3   OH223079   3.687   5.484   2.977  0.4589  0.3359  0.2563
  555TIP3    H123080   3.679   5.578   2.962 -0.3025  0.1754 -0.3307
  555TIP3    H223081   3.730   5.478   3.063 -1.5880  1.2036  1.3685
  556TIP3   OH223082   4.593   5.706  12.894  0.6690  0.5619 -0.6526
  556TIP3    H123083   4.557   5.771  12.833 -2.0981 -0.6536 -0.4308
  556TIP3    H223084   4.569   5.622  12.854 -0.3778 -0.2594  1.6281
  557TIP3   OH223085   1.371   4.404   2.635 -0.3679 -0.5295 -0.1467
  557TIP3    H123086   1.390   4.492   2.668  1.3606 -1.0434  0.2697
  557TIP3    H223087   1.279   4.407   2.612 -0.5785  1.1008  0.8089
  558TIP3   OH223088   4.544   4.794   2.316 -0.1414 -0.2030  0.9147
  558TIP3    H123089   4.582   4.763   2.234 -1.4631 -0.2833  0.3227
  558TIP3    H223090   4.517   4.715   2.362  0.4777 -0.1514  1.3831
  559TIP3   OH223091   2.822   2.758   5.927  0.0655  1.5152 -0.2787
  559TIP3    H123092   2.828   2.705   5.848  1.0073 -1.3284  1.6256
  559TIP3    H223093   2.888   2.827   5.916  1.9096 -0.3121 -0.9290
  560TIP3   OH223094   4.015   6.475   2.484 -0.0765 -0.2113 -0.1490
  560TIP3    H123095   3.960   6.416   2.536 -0.0099 -1.3907 -1.4010
  560TIP3    H223096   4.101   6.432   2.482  0.0287  0.0322 -0.8906
  561TIP3   OH223097   4.902   4.609   4.792  0.5664 -0.0705 -0.4814
  561TIP3    H123098   4.927   4.519   4.771 -0.8978 -0.0925 -2.2086
  561TIP3    H223099   4.842   4.600   4.866  0.7655 -0.4702 -0.3656
  562TIP3   OH223100   0.138   2.592   6.416  0.5113 -0.4135  0.7141
  562TIP3    H123101   0.088   2.622   6.340  1.0023 -1.6648 -0.1046
  562TIP3    H223102   0.220   2.640   6.410 -0.5550  1.6837  2.0873
  563TIP3   OH223103   4.014   3.401   2.355  0.0812  0.3278  0.4968
  563TIP3    H123104   3.940   3.344   2.375  1.3927 -1.6125  0.0931
  563TIP3    H223105   3.996   3.433   2.266  0.3366 -1.2380 -0.1524
  564TIP3   OH223106   2.685   3.487  16.885  0.1375  0.3927  0.7536
  564TIP3    H123107   2.772   3.450  16.871 -0.2064 -1.0346  2.2194
  564TIP3    H223108   2.674   3.487  16.980 -1.5041  0.4552  0.5845
  565TIP3   OH223109   6.050   0.281  14.031 -0.5805  0.0443  0.3227
  565TIP3    H123110   5.981   0.268  13.965  0.5309 -0.4748 -0.7598
  565TIP3    H223111   6.014   0.348  14.090 -0.8133  2.0436 -1.9821
  566TIP3   OH223112   1.337   5.239   3.828 -0.5716 -0.0056 -0.6143
  566TIP3    H123113   1.413   5.209   3.878 -1.5723 -1.0412  0.3154
  566TIP3    H223114   1.370   5.250   3.739  0.7278 -0.2088 -0.1703
  567TIP3   OH223115   0.310   1.175  14.626  0.1377 -0.5761  0.1382
  567TIP3    H123116   0.217   1.193  14.639  0.4986  1.0740  0.5591
  567TIP3    H223117   0.313   1.084  14.597 -1.5431 -0.9081  0.9550
  568TIP3   OH223118   6.378   1.285  13.340 -0.5419 -0.0189  0.3320
  568TIP3    H123119   6.336   1.332  13.268  0.9329  1.5574  0.4661
  568TIP3    H223120   6.313   1.220  13.367 -1.5915  0.1940 -1.5966
  569TIP3   OH223121   4.698   2.267  13.979  0.2142 -0.1882  0.0151
  569TIP3    H123122   4.658   2.180  13.967 -0.8667  0.2979  0.0263
  569TIP3    H223123   4.626   2.328  13.962  0.2939  0.6589  2.6228
  570TIP3   OH223124   3.398   1.117   5.391  0.0517  0.6914 -0.0167
  570TIP3    H123125   3.416   1.064   5.468  0.5115 -0.8458 -1.1504
  570TIP3    H223126   3.482   1.119   5.344 -0.2656  1.4840 -0.5553
  571TIP3   OH223127   1.627   1.534  12.559 -0.5195 -0.5222  0.0978
  571TIP3    H123128   1.594   1.614  12.518  0.9301  1.0947  1.9469
  571TIP3    H223129   1.713   1.520  12.520  0.4542  0.4820  1.8010
  572TIP3   OH223130   4.296   1.908   4.234  0.3651 -0.4264  0.3390
  572TIP3    H123131   4.216   1.903   4.181  0.8077 -1.7713 -0.2515
  572TIP3    H223132   4.283   1.982   4.292 -1.1359 -0.3812 -0.0469
  573TIP3   OH223133   5.927   6.730   3.479 -0.0466  0.6469 -0.4318
  573TIP3    H123134   5.884   6.804   3.521  0.7410  0.4175  0.8082
  573TIP3    H223135   5.885   6.653   3.516 -1.5685  0.4604 -2.4775
  574TIP3   OH223136   4.324   2.796  11.200 -0.5539  0.5431 -0.0401
  574TIP3    H123137   4.399   2.814  11.143 -0.9233  1.5290 -0.2097
  574TIP3    H223138   4.254   2.853  11.168 -1.8894 -1.4846 -0.8952
  575TIP3   OH223139   3.015   6.145  12.079 -0.3186  0.2702  0.0689
  575TIP3    H123140   2.968   6.177  12.002  2.4771  2.4034 -0.8152
  575TIP3    H223141   3.091   6.201  12.086  1.1056 -1.8604  2.6299
  576TIP3   OH223142   1.746   1.340   0.985  0.0553 -0.0571  0.2722
  576TIP3    H123143   1.754   1.398   1.061 -0.0891  0.5758 -0.1935
  576TIP3    H223144   1.708   1.259   1.020 -1.3891  0.7723  0.6089
  577TIP3   OH223145   6.129   1.482   3.434  0.0895  0.3445 -0.3075
  577TIP3    H123146   6.083   1.566   3.444  0.1308  0.2454  0.8722
  577TIP3    H223147   6.102   1.449   3.349 -2.4664  0.0341  0.5806
  578TIP3   OH223148   0.381   1.818   4.758 -0.0080  0.4561  0.5995
  578TIP3    H123149   0.346   1.877   4.826 -0.1690 -0.9785  1.7827
  578TIP3    H223150   0.371   1.867   4.677 -1.5489  1.4691  1.3741
  579TIP3   OH223151   0.104   2.512   4.331 -0.3780  0.3924  0.1356
  579TIP3    H123152   0.083   2.438   4.274  1.2510 -0.5152  0.6766
  579TIP3    H223153   0.040   2.507   4.403  1.0942 -1.8312  1.3323
  580TIP3   OH223154   4.646   4.567  15.981 -0.3632  0.5630 -0.1339
  580TIP3    H123155   4.720   4.530  15.934 -0.3801  0.6173 -0.2032
  580TIP3    H223156   4.677   4.652  16.012 -0.5541  0.7948 -0.5777
  581TIP3   OH223157   3.783   3.882  12.115  0.3756 -0.3786  0.7709
  581TIP3    H123158   3.697   3.859  12.080  0.3628 -1.0249  1.2342
  581TIP3    H223159   3.838   3.890  12.037 -0.1448  0.2181  0.4594
  582TIP3   OH223160   1.284   3.194   4.883  0.0021  0.1504 -0.1828
  582TIP3    H123161   1.283   3.141   4.803  1.2714 -0.5571  0.2574
  582TIP3    H223162   1.192   3.200   4.909 -0.1360 -2.1638 -0.0409
  583TIP3   OH223163   3.581   5.189   5.793  0.4774 -0.8919 -0.1971
  583TIP3    H123164   3.566   5.270   5.745 -2.3297 -1.1198  0.2248
  583TIP3    H223165   3.590   5.216   5.884  0.6179 -0.9681 -0.1873
  584TIP3   OH223166   0.758   0.558  14.146 -0.1617  0.4398 -0.3100
  584TIP3    H123167   0.758   0.467  14.118  0.4250  0.9472 -1.9854
  584TIP3    H223168   0.803   0.605  14.076 -1.9926  2.2582 -0.3171
  585TIP3   OH223169   4.912   5.375   1.407 -0.4781  0.5990  0.5628
  585TIP3    H123170   4.827   5.396   1.444  0.3143  1.1839  2.0811
  585TIP3    H223171   4.943   5.458   1.369  0.5724  1.0744  2.3877
  586TIP3   OH223172   1.115   5.757  17.027  0.8804 -0.2648  0.1129
  586TIP3    H123173   1.175   5.693  17.065 -0.4498 -1.8317 -0.3512
  586TIP3    H223174   1.042   5.705  16.994 -0.1799  1.4911 -0.4066
  587TIP3   OH223175   2.150   2.581   4.966 -0.4335  0.0114  0.8869
  587TIP3    H123176   2.197   2.605   5.046 -0.5691 -1.6659  1.4933
  587TIP3    H223177   2.207   2.516   4.924 -0.5156  0.6425 -0.2148
  588TIP3   OH223178   0.712   5.161  13.820  0.1293 -0.4242 -0.1174
  588TIP3    H123179   0.779   5.094  13.836 -0.9476 -0.8702  2.7735
  588TIP3    H223180   0.635   5.111  13.794 -0.6849 -0.3812  2.0722
  589TIP3   OH223181   1.783   0.551   2.153 -0.0200 -0.2700  0.1124
  589TIP3    H123182   1.738   0.563   2.236 -0.5103 -3.0202  0.2833
  589TIP3    H223183   1.796   0.456   2.146  0.1387 -0.0717 -2.8711
  590TIP3   OH223184   3.379   0.745   5.743 -0.3188  0.4153  0.4289
  590TIP3    H123185   3.361   0.777   5.831 -2.4743  0.1186  0.1349
  590TIP3    H223186   3.366   0.651   5.748 -1.3642  0.5078 -0.4048
  591TIP3   OH223187   0.409   4.356  12.256 -0.0158 -0.0388 -0.0145
  591TIP3    H123188   0.482   4.396  12.209  0.5568 -1.1764 -0.1134
  591TIP3    H223189   0.446   4.329  12.340 -0.9401  1.6316  0.9496
  592TIP3   OH223190   2.122   3.545  14.281  0.0740 -0.3660  0.0659
  592TIP3    H123191   2.100   3.488  14.355 -1.7194  0.0746 -0.1033
  592TIP3    H223192   2.139   3.485  14.209 -0.9755 -0.7320  0.1055
  593TIP3   OH223193   1.638   6.307   1.634  0.3064 -0.3098 -0.3429
  593TIP3    H123194   1.575   6.256   1.583 -1.6685  1.0029  0.7250
  593TIP3    H223195   1.648   6.258   1.715  2.1149 -1.4785 -1.2306
  594TIP3   OH223196   5.359   3.301  16.124  0.1001 -0.0005 -0.0997
  594TIP3    H123197   5.366   3.312  16.029  0.4797 -0.5230 -0.1309
  594TIP3    H223198   5.274   3.260  16.137  0.6355 -1.1907 -0.3163
  595TIP3   OH223199   5.264   1.587  14.610  0.0479  0.8965  0.0248
  595TIP3    H123200   5.338   1.549  14.658 -1.7061  0.5786  2.5678
  595TIP3    H223201   5.212   1.632  14.677 -1.9569  1.2700 -1.7285
  596TIP3   OH223202   2.900   3.940  12.173 -0.5069 -0.2887  1.0619
  596TIP3    H123203   2.837   3.936  12.101  0.1276  1.6438  0.3539
  596TIP3    H223204   2.943   3.855  12.173 -0.4144 -0.2699 -0.9394
  597TIP3   OH223205   0.992   5.688  12.028 -0.5407  0.0444  0.1900
  597TIP3    H123206   0.939   5.643  11.962 -0.5114  0.9977 -0.5023
  597TIP3    H223207   0.943   5.679  12.109 -1.4543  0.3635 -0.3201
  598TIP3   OH223208   1.160   4.943  11.032  0.1329  0.3271  0.3804
  598TIP3    H123209   1.132   5.033  11.015 -1.3849 -0.1442  0.2846
  598TIP3    H223210   1.087   4.889  11.001  0.2745 -0.8564  2.0115
  599TIP3   OH223211   5.674   5.137   2.021  0.7038 -0.2767  0.0232
  599TIP3    H123212   5.634   5.224   2.020 -0.1485 -0.6531  0.4531
  599TIP3    H223213   5.764   5.151   1.994  0.6232  0.7689  0.2965
  600TIP3   OH223214   1.898   1.632  12.164 -0.2782 -0.4066 -0.5663
  600TIP3    H123215   1.900   1.691  12.240  0.8852  0.6045 -1.3595
  600TIP3    H223216   1.989   1.625  12.137 -0.7689 -0.1705 -2.3092
  601TIP3   OH223217   2.377   0.750  14.958 -0.4433 -0.0386  0.6900
  601TIP3    H123218   2.466   0.760  14.925 -0.5832 -0.5422  0.1539
  601TIP3    H223219   2.378   0.792  15.044 -0.8340  4.0600 -1.1518
  602TIP3   OH223220   1.315   3.380  14.328 -0.6157  0.4771  0.2116
  602TIP3    H123221   1.375   3.321  14.282 -0.3588 -0.1029  1.2693
  602TIP3    H223222   1.356   3.393  14.414 -0.4100  2.6152 -0.1995
  603TIP3   OH223223   2.189   4.945   0.705  0.6095 -0.4842 -0.2837
  603TIP3    H123224   2.206   4.875   0.642  1.8491 -0.0927 -0.3931
  603TIP3    H223225   2.241   4.921   0.782  2.2615  1.0599 -0.8611
  604TIP3   OH223226   5.729   2.881  13.863 -0.3869  0.6924  0.4035
  604TIP3    H123227   5.743   2.922  13.778 -1.0627 -0.2796 -0.1974
  604TIP3    H223228   5.708   2.953  13.923  0.9393  1.4653 -0.0615
  605TIP3   OH223229   2.887   4.667  13.296  0.1068 -0.1723 -0.4963
  605TIP3    H123230   2.820   4.669  13.365  0.6675 -1.8427  0.1213
  605TIP3    H223231   2.969   4.686  13.341  0.3862 -0.5945 -0.8204
  606TIP3   OH223232   0.894   5.556   4.018  0.4615 -0.0397 -0.5061
  606TIP3    H123233   0.957   5.583   3.951  2.2530 -1.2165  0.6478
  606TIP3    H223234   0.811   5.547   3.972  1.7283 -1.1350 -2.6202
  607TIP3   OH223235   4.565   3.808   2.495  0.2513  0.0984  0.1189
  607TIP3    H123236   4.491   3.756   2.527 -0.3584  2.0374  1.9900
  607TIP3    H223237   4.531   3.855   2.419 -0.0276 -0.0574  0.1478
  608TIP3   OH223238   4.590   4.250   2.858  0.0538  0.2913  0.0907
  608TIP3    H123239   4.612   4.290   2.942  0.2061  2.3570 -0.9017
  608TIP3    H223240   4.609   4.157   2.870  4.1953  1.1567  1.0115
  609TIP3   OH223241   2.719   3.201   0.930 -0.4367 -0.1194  0.0149
  609TIP3    H123242   2.728   3.202   0.835 -0.6890  2.5967 -0.0052
  609TIP3    H223243   2.809   3.205   0.963 -0.3756 -0.4744 -0.1074
  610TIP3   OH223244   4.518   4.133  11.205 -0.1732 -0.3956 -0.1505
  610TIP3    H123245   4.535   4.145  11.299  2.0329  3.8566 -0.9335
  610TIP3    H223246   4.472   4.213  11.179  0.9199 -0.6582 -3.0414
  611TIP3   OH223247   6.772   1.419  13.400  0.1393 -0.0061 -0.6908
  611TIP3    H123248   6.748   1.393  13.489  1.6687  0.9305  0.0122
  611TIP3    H223249   6.694   1.465  13.368 -0.9860 -1.6616 -0.4125
  612TIP3   OH223250   5.908   4.675   1.344 -0.2880  0.1255 -0.4904
  612TIP3    H123251   5.831   4.667   1.287 -1.7086 -3.8026  1.7678
  612TIP3    H223252   5.956   4.593   1.330  0.9250  0.4424  1.6881
  613TIP3   OH223253   0.404   6.378   1.039  0.1867  0.2779  0.5161
  613TIP3    H123254   0.344   6.450   1.058  0.7749  0.8968  0.0708
  613TIP3    H223255   0.393   6.318   1.113 -1.4831  0.0341  0.0953
  614TIP3   OH223256   2.290   6.680   1.901  0.1305 -0.0286 -0.1759
  614TIP3    H123257   2.227   6.622   1.943 -0.5907  1.2077  0.4543
  614TIP3    H223258   2.290   6.759   1.954 -0.6092  1.4704 -2.3295
  615TIP3   OH223259   3.000   4.687  10.717  0.3433  0.0924 -0.0354
  615TIP3    H123260   2.986   4.594  10.735  0.0874 -0.4748 -2.9328
  615TIP3    H223261   3.086   4.706  10.755  0.4560 -1.3457  0.4774
  616TIP3   OH223262   6.726   4.057  16.142  0.0486  0.2605  0.1428
  616TIP3    H123263   6.718   4.148  16.169  3.7488  0.2394  1.6500
  616TIP3    H223264   6.754   4.010  16.222  1.6882 -1.5131 -1.4018
  617TIP3   OH223265   6.341   2.606  15.978  0.4470 -0.6245 -0.1306
  617TIP3    H123266   6.358   2.518  15.943 -0.3799 -0.6291 -0.5364
  617TIP3    H223267   6.302   2.654  15.904 -0.7702 -0.4577  0.6026
  618TIP3   OH223268   4.937   5.691   1.730  0.5532 -0.0286 -0.2757
  618TIP3    H123269   4.847   5.724   1.719 -0.3403 -0.6780  3.9165
  618TIP3    H223270   4.926   5.610   1.779  3.5315  0.9677  2.1922
  619TIP3   OH223271   4.951   0.137   0.529 -0.4110  0.3094  0.3172
  619TIP3    H123272   4.931   0.140   0.623 -1.5145  0.2631  0.0971
  619TIP3    H223273   4.925   0.049   0.503 -0.6401  0.5109 -0.1387
  620TIP3   OH223274   1.239   1.653   0.838  0.3526  0.9081  0.0894
  620TIP3    H123275   1.307   1.595   0.804 -0.5121 -1.0764  1.6629
  620TIP3    H223276   1.160   1.599   0.839 -1.0359  2.8617 -0.6956
  621TIP3   OH223277   0.745   0.550   1.791  0.7762 -0.1250  0.0507
  621TIP3    H123278   0.764   0.480   1.728 -2.8154  0.4998 -1.8326
  621TIP3    H223279   0.821   0.608   1.785  1.2922 -1.0010 -2.3785
  622TIP3   OH223280   3.306   4.453  13.483  0.0598 -0.6534  0.0140
  622TIP3    H123281   3.257   4.372  13.501  0.2613 -0.4998  1.2396
  622TIP3    H223282   3.340   4.480  13.567 -0.6006  1.1186 -0.2661
  623TIP3   OH223283   3.059   6.687  13.350 -0.0458 -0.0078  0.4067
  623TIP3    H123284   2.983   6.677  13.294  0.4476  0.6626 -0.3859
  623TIP3    H223285   3.059   6.779  13.375  0.8533  0.1388 -0.1029
  624TIP3   OH223286   2.736   0.780   5.941  0.5461 -0.2290 -0.4056
  624TIP3    H123287   2.672   0.836   5.983  0.8602 -0.2357  0.0914
  624TIP3    H223288   2.816   0.792   5.992  1.8116  2.1129 -2.8419
  625TIP3   OH223289   0.983   0.078   2.223  0.5966  0.5437  0.1333
  625TIP3    H123290   0.923   0.083   2.149  0.4168  1.7330  0.3501
  625TIP3    H223291   1.054   0.021   2.193 -0.7753 -1.1300 -0.0137
  626TIP3   OH223292   4.197   0.116   1.172 -0.1671 -0.1418 -0.2819
  626TIP3    H123293   4.227   0.032   1.208  0.3414 -0.4225 -1.3286
  626TIP3    H223294   4.105   0.121   1.197 -0.2337 -1.0773 -0.3066
  627TIP3   OH223295   1.293   6.400   2.741  0.2873  0.3750 -0.0401
  627TIP3    H123296   1.283   6.488   2.704 -1.9651  0.4543  0.6487
  627TIP3    H223297   1.273   6.412   2.834 -0.2417 -0.8964  0.0110
  628TIP3   OH223298   4.819   5.205   5.132  0.3319  0.2806  0.1216
  628TIP3    H123299   4.734   5.226   5.170  0.8212 -0.4855  1.6820
  628TIP3    H223300   4.804   5.124   5.083  0.7325 -1.3312  2.5991
  629TIP3   OH223301   4.589   2.151  12.929 -0.1011 -0.0445 -0.0711
  629TIP3    H123302   4.648   2.224  12.945 -0.9127  0.2502  1.7257
  629TIP3    H223303   4.646   2.080  12.898  1.1000  0.4565  0.9423
  630TIP3   OH223304   2.405   2.544   2.635  0.2961  0.1167 -0.1539
  630TIP3    H123305   2.451   2.462   2.616  0.3919 -0.4131  2.1736
  630TIP3    H223306   2.360   2.527   2.718 -1.1921  1.8224 -0.5865
  631TIP3   OH223307   5.098   3.664   4.742  0.3216  0.0917  0.3731
  631TIP3    H123308   5.053   3.589   4.780  1.1789  0.0661  1.3745
  631TIP3    H223309   5.140   3.707   4.817 -0.8658  2.0649 -0.0575
  632TIP3   OH223310   5.412   2.126   5.194  0.0685 -0.4198  0.4256
  632TIP3    H123311   5.374   2.187   5.132 -1.2570 -1.3576  0.2763
  632TIP3    H223312   5.356   2.133   5.272  0.4396 -0.7683  0.7258
  633TIP3   OH223313   4.638   3.424  15.639 -0.4065  0.0935 -0.5154
  633TIP3    H123314   4.644   3.475  15.558 -0.5627 -0.1074 -0.6530
  633TIP3    H223315   4.631   3.333  15.609  1.6756 -0.1790 -0.2624
  634TIP3   OH223316   6.338   0.571  13.799 -0.5980 -0.2044  0.0874
  634TIP3    H123317   6.405   0.627  13.760  0.3234  0.2760  2.3221
  634TIP3    H223318   6.256   0.617  13.780 -0.0872  0.5031 -0.4692
  635TIP3   OH223319   4.308   2.589   5.081  0.1553 -0.3325  0.1110
  635TIP3    H123320   4.328   2.504   5.041 -0.1040  0.1656 -1.0982
  635TIP3    H223321   4.373   2.598   5.152 -1.4566 -2.6948  1.9626
  636TIP3   OH223322   2.954   3.528   4.667  0.0709  0.1485  0.0076
  636TIP3    H123323   2.930   3.621   4.674 -0.7627 -0.1180  0.7936
  636TIP3    H223324   3.049   3.528   4.673  0.0998  0.9901 -0.3346
  637TIP3   OH223325   4.161   0.721   2.914  0.0843  0.3106 -0.3744
  637TIP3    H123326   4.243   0.673   2.907  0.4982  0.9630 -0.1087
  637TIP3    H223327   4.093   0.656   2.898  0.5747 -0.6344  1.3608
  638TIP3   OH223328   2.734   0.968  14.724  0.0746  0.4353  0.5421
  638TIP3    H123329   2.785   1.047  14.742  0.9343  0.0801 -0.2758
  638TIP3    H223330   2.719   0.971  14.629  1.6261 -1.2621  0.2215
  639TIP3   OH223331   3.682   1.122  11.565  0.2479  0.6978 -0.2110
  639TIP3    H123332   3.759   1.068  11.587  0.6961  1.9135  1.3087
  639TIP3    H223333   3.667   1.105  11.472  0.8959 -1.3924  0.0262
  640TIP3   OH223334   6.435   6.002  11.281 -0.0248 -0.0770 -0.0895
  640TIP3    H123335   6.422   5.908  11.268 -1.0518  0.0466 -0.0097
  640TIP3    H223336   6.437   6.038  11.192  1.6998 -0.3321 -0.1735
  641TIP3   OH223337   0.713   5.476  13.104 -0.2793  0.1426 -0.2695
  641TIP3    H123338   0.730   5.505  13.014  1.2074  1.4259  0.3948
  641TIP3    H223339   0.711   5.557  13.155  0.0844 -0.6594  1.0454
  642TIP3   OH223340   0.966   2.882  12.260  0.4722  0.4380  0.4400
  642TIP3    H123341   1.001   2.896  12.172  0.0870 -0.0304  0.2106
  642TIP3    H223342   0.878   2.847  12.246 -0.2672  1.9734  0.9979
  643TIP3   OH223343   1.944   2.733  11.102  0.4039  0.2778  0.4785
  643TIP3    H123344   1.878   2.664  11.112 -0.2637  0.7333 -0.6609
  643TIP3    H223345   2.012   2.693  11.047  0.7463  0.0389  1.0696
  644TIP3   OH223346   3.586   0.859  15.540  0.5574 -0.3167 -0.5217
  644TIP3    H123347   3.616   0.799  15.472  0.8837 -1.5815  0.7183
  644TIP3    H223348   3.553   0.803  15.610  1.2755  0.9110  0.8612
  645TIP3   OH223349   4.347   4.985  11.983 -0.1040  0.3321 -0.8226
  645TIP3    H123350   4.374   4.930  11.910  2.4946  0.3379  0.0493
  645TIP3    H223351   4.378   5.073  11.959 -0.5509  0.6160 -0.3759
  646TIP3   OH223352   0.118   6.431   0.411 -0.0918  0.1932  0.4811
  646TIP3    H123353   0.121   6.493   0.484  0.8557 -1.1668  1.6262
  646TIP3    H223354   0.148   6.348   0.448 -1.0240 -0.8893 -1.1073
  647TIP3   OH223355   5.145   1.805  14.449  0.5673  0.4048 -0.2518
  647TIP3    H123356   5.064   1.758  14.467  0.9800 -0.9363 -1.7820
  647TIP3    H223357   5.159   1.859  14.527 -1.3861  0.0916  0.3513
  648TIP3   OH223358   2.971   1.344  14.579  0.5899  0.0334 -0.4760
  648TIP3    H123359   2.894   1.395  14.555  2.0109  1.2567 -2.6348
  648TIP3    H223360   3.042   1.408  14.587  1.3266 -0.9912  1.9880
  649TIP3   OH223361   1.874   1.555  11.908 -0.2449 -0.1568 -0.3006
  649TIP3    H123362   1.861   1.563  12.002  1.6536  2.0422 -0.1673
  649TIP3    H223363   1.936   1.483  11.898 -1.0880 -0.9392  0.0647
  650TIP3   OH223364   4.619   5.104   4.972  0.0126  0.1247 -0.0769
  650TIP3    H123365   4.553   5.115   4.904  1.1679 -0.3692 -1.2997
  650TIP3    H223366   4.618   5.010   4.992  1.1491 -0.0903 -0.9555
  651TIP3   OH223367   4.964   0.012   0.901 -0.5284  0.0822  0.2616
  651TIP3    H123368   5.032   0.049   0.845 -1.1626 -0.9553 -1.2240
  651TIP3    H223369   5.006  -0.064   0.942 -0.3121  0.3754  0.5904
  652TIP3   OH223370   2.885   5.642   2.987 -0.5423 -0.4149  0.1286
  652TIP3    H123371   2.795   5.666   2.966 -1.4691 -1.9895  2.1211
  652TIP3    H223372   2.910   5.702   3.057  0.4192  0.8363 -1.2582
  653TIP3   OH223373   1.825   6.448   0.633  0.0144 -0.6449  0.2536
  653TIP3    H123374   1.802   6.518   0.695 -1.5753 -1.1165  0.2239
  653TIP3    H223375   1.844   6.494   0.551 -0.1128 -0.1731  0.4865
  654TIP3   OH223376   0.085   5.713   6.707 -0.0911 -0.0814 -0.0050
  654TIP3    H123377   0.041   5.651   6.766 -1.0834 -0.9644 -1.6263
  654TIP3    H223378   0.045   5.797   6.726 -1.0195 -0.5136 -0.0165
  655TIP3   OH223379   6.254   3.922   4.509 -0.0227 -0.5648 -0.4242
  655TIP3    H123380   6.271   3.829   4.497  0.8381 -0.4493 -0.1403
  655TIP3    H223381   6.339   3.959   4.533 -0.4816  0.1916  0.0552
  656TIP3   OH223382   6.239   2.655   2.898 -0.3041 -0.6368  0.1823
  656TIP3    H123383   6.329   2.671   2.868  0.0037  0.0616  1.4405
  656TIP3    H223384   6.186   2.660   2.818  0.7966 -1.2603 -0.6020
  657TIP3   OH223385   4.377   6.328   1.427 -0.5466  0.4967 -0.3822
  657TIP3    H123386   4.426   6.276   1.363 -1.7752 -1.8344  0.4850
  657TIP3    H223387   4.444   6.373   1.479  0.5651 -0.3994 -1.0214
  658TIP3   OH223388   6.544   3.654  13.079  0.3678 -0.1909  0.1469
  658TIP3    H123389   6.493   3.666  13.159  0.8950  1.0883  0.2934
  658TIP3    H223390   6.567   3.743  13.051  0.8837 -0.6644 -0.9766
  659TIP3   OH223391   6.362   3.336   0.077 -0.2036 -0.4938 -0.1972
  659TIP3    H123392   6.318   3.374   0.001  0.2346 -0.0175 -0.2124
  659TIP3    H223393   6.322   3.379   0.153  0.0843 -0.2095 -0.2032
  660TIP3   OH223394   4.770   5.462  14.292  0.6494  0.1176 -0.1644
  660TIP3    H123395   4.811   5.401  14.232 -1.0127 -0.8422 -0.3579
  660TIP3    H223396   4.760   5.413  14.374 -1.0969 -0.0669 -0.4559
  661TIP3   OH223397   3.216   3.609  13.808 -0.2249 -0.2752 -0.5890
  661TIP3    H123398   3.259   3.628  13.891 -0.1337 -0.2324 -0.6464
  661TIP3    H223399   3.169   3.527  13.824  1.0401 -1.0693 -0.9691
  662TIP3   OH223400   6.461   3.936   4.250 -0.4658 -0.2997 -0.6561
  662TIP3    H123401   6.401   3.896   4.187 -1.8601  1.5278 -0.5312
  662TIP3    H223402   6.425   4.023   4.266  0.0362 -0.5946  2.4261
  663TIP3   OH223403   5.485   0.851   3.605  0.7629 -0.2759 -0.0142
  663TIP3    H123404   5.438   0.793   3.546  1.6770 -0.6250 -0.4140
  663TIP3    H223405   5.536   0.907   3.547  1.8040 -0.7385  0.4377
  664TIP3   OH223406   1.539   4.947  12.022  0.0830 -0.2488 -0.0724
  664TIP3    H123407   1.509   4.965  12.111  2.2203  1.4425  0.3238
  664TIP3    H223408   1.587   4.864  12.029  0.8009  0.2123  0.4711
  665TIP3   OH223409   6.388   6.738  15.681  0.0788 -0.4083  0.1757
  665TIP3    H123410   6.341   6.690  15.749 -1.3637 -1.1150 -1.2782
  665TIP3    H223411   6.320   6.789  15.637  1.1852  0.9175 -0.0009
  666TIP3   OH223412   5.728   0.612  14.458 -0.1673  0.5172 -0.0983
  666TIP3    H123413   5.782   0.600  14.535 -1.5925  1.0459  1.0036
  666TIP3    H223414   5.648   0.653  14.490 -1.6144 -1.0623 -1.5321
  667TIP3   OH223415   4.048   4.082  11.615 -0.2367  0.5249  0.0970
  667TIP3    H123416   4.101   4.130  11.679  1.4988  0.7810 -1.4868
  667TIP3    H223417   4.091   3.996  11.610  1.0440  1.2587 -2.3561
  668TIP3   OH223418   3.613   3.752   4.808  0.6878  0.1720  0.3335
  668TIP3    H123419   3.695   3.800   4.797 -0.8104  2.8780  0.6031
  668TIP3    H223420   3.601   3.747   4.903 -0.4789  1.6190  0.2745
  669TIP3   OH223421   6.225   6.667   2.445  0.1635 -0.0615 -0.1245
  669TIP3    H123422   6.211   6.758   2.420  1.5296  0.1686 -0.0673
  669TIP3    H223423   6.300   6.639   2.393  0.0918 -0.9901  0.2628
  670TIP3   OH223424   2.552   5.939   0.485 -0.2520 -0.4335 -0.4711
  670TIP3    H123425   2.562   5.970   0.396  0.1092 -0.5244 -0.4645
  670TIP3    H223426   2.641   5.915   0.512 -0.3888 -0.5940 -0.1591
  671TIP3   OH223427   6.461   1.693  15.595 -0.0234 -0.3434 -0.0454
  671TIP3    H123428   6.410   1.637  15.536 -0.9548 -0.7252  1.1129
  671TIP3    H223429   6.406   1.770  15.609  1.1216  0.7558 -1.3845
  672TIP3   OH223430   4.487   4.037  16.787  0.0052 -0.2712 -0.3054
  672TIP3    H123431   4.411   4.021  16.730 -0.5956 -0.7622  0.6030
  672TIP3    H223432   4.451   4.029  16.876  0.8959  0.6370  0.1345
  673TIP3   OH223433   6.356   4.589   4.266  0.5121  0.5137  0.2418
  673TIP3    H123434   6.279   4.609   4.319 -0.3310  0.4595 -0.9288
  673TIP3    H223435   6.325   4.598   4.175  2.1540  1.5659 -0.2406
  674TIP3   OH223436   1.996   0.096   0.411  0.8837 -0.6626 -0.1412
  674TIP3    H123437   1.978   0.009   0.377 -0.6835 -0.4689  0.1718
  674TIP3    H223438   1.964   0.093   0.501  2.6048 -0.3551  0.5103
  675TIP3   OH223439   1.047   0.962  14.199 -0.3050 -0.4418 -0.1114
  675TIP3    H123440   0.954   0.983  14.189 -0.2797 -0.2161  0.1468
  675TIP3    H223441   1.047   0.877  14.243 -0.3639  0.6590  2.0723
  676TIP3   OH223442   6.757   5.716  12.388 -0.5320 -0.0140 -0.1532
  676TIP3    H123443   6.792   5.636  12.426  1.3611  1.1801  0.6846
  676TIP3    H223444   6.667   5.694  12.364  0.1151 -2.5286 -0.4148
  677TIP3   OH223445   5.132   3.665   2.550 -0.3363 -0.0442 -0.5346
  677TIP3    H123446   5.072   3.626   2.614  0.7537 -2.3908 -0.8906
  677TIP3    H223447   5.182   3.729   2.600 -2.6998  1.5090 -0.1005
  678TIP3   OH223448   0.702   6.432   1.171 -0.2865 -0.3711 -1.0233
  678TIP3    H123449   0.660   6.444   1.086 -0.2563 -2.3596 -1.3310
  678TIP3    H223450   0.641   6.379   1.222  0.5491 -0.8162 -0.4673
  679TIP3   OH223451   0.986   2.254   5.459 -0.0999 -0.0451  0.1054
  679TIP3    H123452   1.033   2.182   5.418 -2.1580 -0.3895 -1.7715
  679TIP3    H223453   0.966   2.223   5.547  1.7498 -0.4987  0.3865
  680TIP3   OH223454   0.526   6.716   5.359  0.1882  0.1323  0.2604
  680TIP3    H123455   0.458   6.751   5.302 -0.6905 -3.0324 -0.6806
  680TIP3    H223456   0.499   6.742   5.447 -1.8232 -0.4279 -0.1845
  681TIP3   OH223457   5.435   5.528  12.564  0.5534  0.0428  1.0053
  681TIP3    H123458   5.455   5.618  12.539 -1.1371  0.0623 -0.3827
  681TIP3    H223459   5.458   5.523  12.656 -2.4227  2.8596  1.9729
  682TIP3   OH223460   3.894   4.089  15.389 -0.1497 -0.2806  0.0142
  682TIP3    H123461   3.982   4.089  15.352 -0.9527 -2.7032 -2.0114
  682TIP3    H223462   3.856   4.172  15.361  0.8711 -0.0240 -0.6167
  683TIP3   OH223463   2.319   3.849   3.025 -0.7062  0.5622 -0.3072
  683TIP3    H123464   2.407   3.886   3.010 -0.3208 -0.8240 -1.5704
  683TIP3    H223465   2.277   3.853   2.939 -3.0988  4.2252  0.9352
  684TIP3   OH223466   4.425   0.293  10.992  1.1232  0.1193 -0.0300
  684TIP3    H123467   4.407   0.275  10.900  1.3014  0.0573 -0.0525
  684TIP3    H223468   4.496   0.233  11.015  0.2740 -0.7033  0.4764
  685TIP3   OH223469   0.680   4.291  11.680 -0.0997 -0.0822  0.0778
  685TIP3    H123470   0.758   4.296  11.625 -1.1287 -1.1630 -1.5275
  685TIP3    H223471   0.713   4.301  11.769  1.8851 -0.5720 -0.5716
  686TIP3   OH223472   1.378   4.251   0.782 -0.1807 -0.0347 -0.4170
  686TIP3    H123473   1.409   4.341   0.786 -1.5445  0.4837 -1.0692
  686TIP3    H223474   1.432   4.210   0.714  0.6281  0.2178  0.0803
  687TIP3   OH223475   2.117   2.752  13.432  0.5907  0.2258  0.3860
  687TIP3    H123476   2.138   2.833  13.386 -0.6186  1.3359  1.7751
  687TIP3    H223477   2.130   2.683  13.366  1.1238  1.5753 -0.9419
  688TIP3   OH223478   5.629   3.244   4.068 -0.1044 -0.1959  0.3115
  688TIP3    H123479   5.576   3.165   4.057 -1.2089  0.6949 -0.8981
  688TIP3    H223480   5.715   3.220   4.033 -1.2445  0.0065 -2.7625
  689TIP3   OH223481   2.723   6.439   1.161 -0.3153  0.1664 -0.1074
  689TIP3    H123482   2.811   6.472   1.146 -1.3590  2.2705 -1.9576
  689TIP3    H223483   2.691   6.489   1.237  0.2308 -0.9384  0.8642
  690TIP3   OH223484   4.714   0.112  14.098 -0.1658 -0.0612 -0.0220
  690TIP3    H123485   4.708   0.167  14.020  0.8452 -0.5006 -0.4310
  690TIP3    H223486   4.641   0.139  14.153 -0.2585  0.9933 -0.6533
  691TIP3   OH223487   4.123   3.976  16.939  0.2411 -1.1015 -0.5054
  691TIP3    H123488   4.128   3.938  16.851 -2.5831 -0.3698 -1.0070
  691TIP3    H223489   4.134   4.070  16.925  0.1458 -1.0192 -0.0348
  692TIP3   OH223490   6.594   0.425  15.075  0.7183  0.3102  0.3713
  692TIP3    H123491   6.650   0.402  15.000 -0.0730  2.8240 -1.0539
  692TIP3    H223492   6.533   0.352  15.082  1.5071 -0.4814 -0.7227
  693TIP3   OH223493   4.800   3.280   2.863 -0.0664 -0.0084  0.4424
  693TIP3    H123494   4.827   3.189   2.876  1.4416  0.3651  0.0004
  693TIP3    H223495   4.850   3.309   2.787  0.5215  1.6209  1.4299
  694TIP3   OH223496   3.552   2.734   2.217  1.0375 -0.2541 -0.1656
  694TIP3    H123497   3.541   2.642   2.240  0.8115  0.2621  1.9347
  694TIP3    H223498   3.534   2.739   2.123 -0.9777 -2.0060  0.1126
  695TIP3   OH223499   3.146   3.116  12.054 -0.5386 -0.5362 -0.3571
  695TIP3    H123500   3.152   3.211  12.058 -1.4678 -0.4123 -1.4963
  695TIP3    H223501   3.237   3.086  12.057 -0.2812  0.3342  0.9316
  696TIP3   OH223502   0.798   3.580   4.750 -0.4511  0.3808  0.1055
  696TIP3    H123503   0.807   3.538   4.665  2.1608  0.3289  0.3533
  696TIP3    H223504   0.817   3.510   4.814 -0.4378  0.8680  0.6426
  697TIP3   OH223505   1.211   2.154  15.103  0.1668  0.4700 -0.1050
  697TIP3    H123506   1.294   2.163  15.150  0.6899  0.3207 -0.9702
  697TIP3    H223507   1.229   2.191  15.017 -0.0866 -1.2616 -0.9432
  698TIP3   OH223508   3.636   4.598  13.036 -0.3387  0.1243  0.3293
  698TIP3    H123509   3.575   4.584  12.964 -0.1054 -2.0702  0.5364
  698TIP3    H223510   3.634   4.516  13.086  0.0240  1.3539  2.4276
  699TIP3   OH223511   4.890   0.097   1.649  0.0466 -0.2032  0.3198
  699TIP3    H123512   4.965   0.150   1.620 -0.6566  1.1313  0.9214
  699TIP3    H223513   4.855   0.060   1.568 -1.9349  3.5446 -0.6347
  700TIP3   OH223514   0.101   5.683   0.548 -0.5215  0.3749  0.8520
  700TIP3    H123515   0.008   5.674   0.570 -0.9012 -1.9294 -1.4882
  700TIP3    H223516   0.102   5.734   0.468  0.2917  1.0696  1.3004
  701TIP3   OH223517   2.795   1.874   4.261 -0.7389 -0.0273 -0.3987
  701TIP3    H123518   2.768   1.964   4.240 -1.3263  0.2286  1.3533
  701TIP3    H223519   2.871   1.859   4.205 -1.6790  0.9170 -2.0064
  702TIP3   OH223520   4.630   2.857   0.198  0.8021 -0.3995 -0.4115
  702TIP3    H123521   4.646   2.925   0.132 -0.2685 -0.0758 -0.3452
  702TIP3    H223522   4.547   2.881   0.238  1.5383 -0.4918  1.2168
  703TIP3   OH223523   2.347   4.782  11.954  0.2396  0.4560 -0.0627
  703TIP3    H123524   2.337   4.877  11.958  0.4363  0.4514  0.5416
  703TIP3    H223525   2.408   4.767  11.881 -2.0496  0.6272 -2.0527
  704TIP3   OH223526   4.279   4.590   4.268 -0.1084  0.1374  0.0297
  704TIP3    H123527   4.193   4.632   4.275 -0.0371  0.0731  1.3670
  704TIP3    H223528   4.260   4.502   4.235 -0.5526  0.1192  0.3291
  705TIP3   OH223529   3.552   3.723   5.545 -0.2503  0.0976  0.1051
  705TIP3    H123530   3.520   3.772   5.470  1.4613  0.4018 -0.4559
  705TIP3    H223531   3.488   3.740   5.614 -1.4307  0.4300 -1.0522
  706TIP3   OH223532   3.549   5.826  13.921  0.0766 -0.3553  0.1453
  706TIP3    H123533   3.530   5.769  13.847 -2.6344  0.4601  0.1474
  706TIP3    H223534   3.568   5.767  13.994  3.0261 -1.1622 -1.2005
  707TIP3   OH223535   3.779   5.274   5.596  0.5855  0.1435  0.0934
  707TIP3    H123536   3.774   5.369   5.613  0.8325  0.1873 -0.0747
  707TIP3    H223537   3.727   5.235   5.666  0.2300  0.4219 -0.0129
  708TIP3   OH223538   5.426   4.051  14.673 -0.2561 -0.3119  0.4115
  708TIP3    H123539   5.482   4.121  14.639 -0.0608  0.4705  2.3194
  708TIP3    H223540   5.374   4.024  14.597  1.7212 -0.1298 -1.0713
  709TIP3   OH223541   2.015   3.072  14.184 -0.1034 -0.1509 -0.4670
  709TIP3    H123542   2.087   3.130  14.160 -0.2643  0.9294  1.5122
  709TIP3    H223543   1.953   3.079  14.111  0.3259  1.4177 -0.7099
  710TIP3   OH223544   3.610   4.854   2.068 -0.0573 -0.1416 -0.4465
  710TIP3    H123545   3.669   4.809   2.128  0.7422  0.8058 -0.4961
  710TIP3    H223546   3.660   4.863   1.987 -0.8075 -0.6280 -0.9618
  711TIP3   OH223547   4.384   1.790  13.053 -0.5998  0.4386 -0.5221
  711TIP3    H123548   4.449   1.793  13.123 -1.1639  0.3211  0.0117
  711TIP3    H223549   4.343   1.877  13.056 -0.4365  0.5299 -0.8904
  712TIP3   OH223550   3.638   3.238  17.014 -0.0240 -0.0965 -0.0534
  712TIP3    H123551   3.685   3.312  17.051  0.7200 -2.2408  3.5608
  712TIP3    H223552   3.688   3.161  17.041 -1.6084 -2.0469 -2.3916
  713TIP3   OH223553   0.767   3.101   1.838  0.2895  0.0953  0.2051
  713TIP3    H123554   0.746   3.067   1.925 -1.8086  1.7590  0.3812
  713TIP3    H223555   0.799   3.190   1.855  1.7786 -0.2821 -0.5803
  714TIP3   OH223556   3.545   1.913  13.302  0.5764 -0.4037 -0.1711
  714TIP3    H123557   3.596   1.975  13.250  0.5377 -0.2094  0.0261
  714TIP3    H223558   3.611   1.862  13.349  0.6023 -0.4255 -0.2303
  715TIP3   OH223559   2.996   3.409  15.119  0.1753  0.5534  0.4300
  715TIP3    H123560   2.936   3.390  15.047  1.5937 -0.1110 -0.6156
  715TIP3    H223561   3.010   3.325  15.162 -0.5831  0.9303  1.4347
  716TIP3   OH223562   3.201   1.909  14.816 -0.1333  0.9454  0.2869
  716TIP3    H123563   3.237   1.997  14.824  0.3066  0.9465 -1.4145
  716TIP3    H223564   3.268   1.861  14.766 -1.0978  0.0871 -0.1937
  717TIP3   OH223565   4.667   1.349   3.530 -0.3725 -0.2464  0.6359
  717TIP3    H123566   4.604   1.355   3.602  0.4881 -0.3385  1.4192
  717TIP3    H223567   4.752   1.341   3.574  0.3095  1.1354 -0.3830
  718TIP3   OH223568   2.877   5.522   2.451 -0.3852 -0.1598  0.0328
  718TIP3    H123569   2.899   5.547   2.541 -0.5353 -1.4409  0.4431
  718TIP3    H223570   2.961   5.525   2.404 -0.0155 -1.0697  0.6129
  719TIP3   OH223571   0.841   0.151   5.168  0.2547 -0.6099 -0.1192
  719TIP3    H123572   0.889   0.220   5.123  1.4440 -0.4857  1.2997
  719TIP3    H223573   0.900   0.075   5.167  0.4636 -0.4910  1.5428
  720TIP3   OH223574   2.023   5.489  13.896  0.1834  0.1714 -0.3740
  720TIP3    H123575   2.097   5.484  13.957 -0.1573  0.6762  0.0908
  720TIP3    H223576   1.950   5.449  13.944 -0.6174  2.4583  0.3873
  721TIP3   OH223577   4.719   6.487  13.149 -0.0725  0.1631 -0.0977
  721TIP3    H123578   4.803   6.534  13.149 -0.3066  0.6197 -2.0063
  721TIP3    H223579   4.742   6.396  13.130 -0.1003  0.5167 -1.9180
  722TIP3   OH223580   2.439   5.210  16.822  0.2668  0.0288  0.0705
  722TIP3    H123581   2.449   5.247  16.909  1.1177  1.1317 -0.4780
  722TIP3    H223582   2.392   5.128  16.836  0.5100  0.1261  1.5707
  723TIP3   OH223583   1.674   1.622  10.841 -0.4815 -0.1369 -0.0749
  723TIP3    H123584   1.644   1.531  10.830  1.9059 -0.9505 -0.1708
  723TIP3    H223585   1.629   1.670  10.772 -0.7965 -1.5071 -0.8480
  724TIP3   OH223586   4.030   6.265  14.771 -0.0287  0.1339  0.5923
  724TIP3    H123587   4.001   6.302  14.688 -0.6487  0.5514  0.9891
  724TIP3    H223588   4.117   6.303  14.785 -0.1968  0.5784  0.4542
  725TIP3   OH223589   2.044   6.399   1.692  0.3193  0.4739 -0.3174
  725TIP3    H123590   1.961   6.445   1.696  1.1351  1.7792  2.4632
  725TIP3    H223591   2.027   6.314   1.733  0.3192  0.6806  0.1106
  726TIP3   OH223592   3.089   2.542   0.368 -0.1517  0.1460 -0.1945
  726TIP3    H123593   3.034   2.469   0.339  1.2329 -0.6049 -0.9980
  726TIP3    H223594   3.037   2.620   0.350 -0.0070 -0.3946 -3.2310
  727TIP3   OH223595   4.603   4.083  12.408 -0.5426 -0.5109 -0.1518
  727TIP3    H123596   4.617   4.128  12.325 -1.4508 -0.4652 -0.2842
  727TIP3    H223597   4.531   4.023  12.391 -0.8948 -0.3315  0.6692
  728TIP3   OH223598   2.134   3.993   5.456 -0.2456 -0.1844 -0.2211
  728TIP3    H123599   2.215   3.972   5.409 -1.1752 -0.1650 -1.8353
  728TIP3    H223600   2.106   3.909   5.493  1.8950  0.2432  2.6482
  729TIP3   OH223601   5.205   2.668   2.796  0.3129 -0.0021  0.3069
  729TIP3    H123602   5.206   2.574   2.813 -2.3084  0.2388  1.9937
  729TIP3    H223603   5.268   2.704   2.858  0.0476 -0.4743  0.8585
  730TIP3   OH223604   3.092   0.613   1.584 -0.4088  0.5959  0.0530
  730TIP3    H123605   3.052   0.556   1.649 -0.0773 -1.4220 -1.4675
  730TIP3    H223606   3.020   0.639   1.527 -0.0581 -0.7907 -1.0464
  731TIP3   OH223607   4.983   2.399   3.228 -0.8199  0.5194  0.1659
  731TIP3    H123608   4.960   2.326   3.286 -0.6044 -0.0658 -0.4850
  731TIP3    H223609   5.012   2.468   3.288 -0.8535  0.0097  0.7780
  732TIP3   OH223610   6.172   5.229   1.639 -0.0110  0.1990  0.5347
  732TIP3    H123611   6.117   5.298   1.675  0.6593  0.1682  1.6093
  732TIP3    H223612   6.119   5.149   1.647  0.2022  0.1614  1.6136
  733TIP3   OH223613   5.974   1.417  14.566 -0.3720 -0.0772 -0.1007
  733TIP3    H123614   5.991   1.480  14.496 -0.4385 -0.4576 -0.4614
  733TIP3    H223615   6.009   1.334  14.533  2.0225  0.2897  1.4389
  734TIP3   OH223616   1.061   1.169  13.597 -0.0127 -0.5209  0.3609
  734TIP3    H123617   1.044   1.083  13.637  0.5296 -0.2861  1.0979
  734TIP3    H223618   1.139   1.202  13.642  0.3328 -0.0460 -0.5735
  735TIP3   OH223619   6.398   2.796  12.442  0.1702  0.1883  0.3654
  735TIP3    H123620   6.463   2.797  12.372 -0.4729  0.7907 -0.2279
  735TIP3    H223621   6.424   2.722  12.497 -0.2904 -1.3668 -1.4370
  736TIP3   OH223622   3.843   5.806  13.618  0.0689 -0.9062 -1.0048
  736TIP3    H123623   3.753   5.775  13.628  0.2525 -1.0803  0.1180
  736TIP3    H223624   3.892   5.762  13.687  0.7869  0.0806 -0.8789
  737TIP3   OH223625   0.924   4.711  14.581 -0.2586  0.0412  0.1049
  737TIP3    H123626   0.833   4.736  14.567 -0.4256 -2.0892 -2.8730
  737TIP3    H223627   0.920   4.621  14.614  0.8207 -0.5519 -1.3549
  738TIP3   OH223628   2.167   2.172   2.782  0.3903 -0.2093  0.1232
  738TIP3    H123629   2.224   2.134   2.715  1.1726  0.5998  0.3142
  738TIP3    H223630   2.148   2.100   2.842  1.0420 -0.5375 -0.0614
  739TIP3   OH223631   6.373   3.431  11.787  0.1464 -0.7217 -0.5002
  739TIP3    H123632   6.358   3.380  11.867  0.6315 -2.0619 -1.2434
  739TIP3    H223633   6.391   3.365  11.720  3.0903  0.5398 -1.0006
  740TIP3   OH223634   5.570   6.546   4.333  0.7595  0.4940  0.3507
  740TIP3    H123635   5.518   6.468   4.316 -0.0219  1.0628  0.0412
  740TIP3    H223636   5.505   6.614   4.352  1.2698  1.7035 -1.9764
  741TIP3   OH223637   2.881   4.359   0.865  0.3165 -0.1250 -0.2343
  741TIP3    H123638   2.923   4.412   0.933 -0.2433  0.3575 -0.2568
  741TIP3    H223639   2.863   4.275   0.907 -0.6813  0.4119  0.4459
  742TIP3   OH223640   1.527   0.965   4.819  0.6629 -0.4789  0.5355
  742TIP3    H123641   1.496   0.911   4.746  1.6797 -0.4559  0.0712
  742TIP3    H223642   1.490   1.051   4.802  0.8994 -0.4707  0.0325
  743TIP3   OH223643   4.286   2.743   3.859 -0.0432  0.4050  0.1898
  743TIP3    H123644   4.298   2.664   3.807  0.5016  0.1434  0.6967
  743TIP3    H223645   4.269   2.812   3.795 -0.1961 -0.0613 -0.2760
  744TIP3   OH223646   6.080   4.509  12.695  0.2618  0.5244 -0.0175
  744TIP3    H123647   6.094   4.603  12.679  0.5693  0.2900 -1.1990
  744TIP3    H223648   6.017   4.482  12.628  2.5569 -0.7628 -1.7563
  745TIP3   OH223649   2.593   2.914   4.553  0.2722 -0.3176 -0.3747
  745TIP3    H123650   2.637   2.967   4.487 -0.3425 -1.1537 -1.4707
  745TIP3    H223651   2.506   2.954   4.562  0.0866 -0.6658 -0.6292
  746TIP3   OH223652   1.749   3.566   3.512  0.1309  0.3695 -0.1313
  746TIP3    H123653   1.748   3.615   3.429 -0.8998  0.0443 -0.3196
  746TIP3    H223654   1.657   3.542   3.527  0.6843 -1.9470 -0.2996
  747TIP3   OH223655   1.763   4.962  11.380 -0.7404 -0.2124  0.1060
  747TIP3    H123656   1.770   5.035  11.441  1.0654  0.4555 -0.8914
  747TIP3    H223657   1.826   4.897  11.413 -1.0762 -0.6020 -0.0157
  748TIP3   OH223658   1.144   0.958  13.100 -0.0141 -0.0915  0.4249
  748TIP3    H123659   1.088   0.925  13.030 -0.2750  0.1031  0.5411
  748TIP3    H223660   1.231   0.921  13.081 -0.1904 -0.4227  0.2698
  749TIP3   OH223661   2.541   6.096   2.832  0.7418  0.1616 -0.4249
  749TIP3    H123662   2.543   6.058   2.919  0.0750 -2.4627 -1.5058
  749TIP3    H223663   2.456   6.072   2.796  0.7404  1.7696 -1.5906
  750TIP3   OH223664   3.796   4.194   5.479 -0.5900  0.0775  0.0381
  750TIP3    H123665   3.851   4.269   5.455 -1.9269  1.0842  0.0107
  750TIP3    H223666   3.792   4.141   5.399 -0.1155  0.2868 -0.1253
  751TIP3   OH223667   5.918   2.361  13.243  0.6491 -0.1742 -0.8421
  751TIP3    H123668   5.996   2.406  13.211  1.5406 -2.3158 -1.7376
  751TIP3    H223669   5.949   2.305  13.314 -0.3640  0.1452 -0.1176
  752TIP3   OH223670   3.296   2.853   5.636  0.3381 -0.0816  0.6319
  752TIP3    H123671   3.243   2.848   5.557  0.7802  0.0943  0.3202
  752TIP3    H223672   3.379   2.811   5.613  0.5741  0.2212  0.9116
  753TIP3   OH223673   6.180   0.935  12.743 -0.4363  0.1732 -0.4359
  753TIP3    H123674   6.259   0.917  12.692  1.4455  3.2421  1.2460
  753TIP3    H223675   6.165   1.029  12.733 -1.5611  0.3699  2.4410
  754TIP3   OH223676   0.330   4.980   1.263 -0.3705 -0.0675 -0.0098
  754TIP3    H123677   0.319   4.907   1.202  2.0439  0.2089 -0.8457
  754TIP3    H223678   0.364   5.051   1.209 -0.8792  1.0797  1.1540
  755TIP3   OH223679   5.466   4.195   4.093  0.1820 -0.7246  0.1937
  755TIP3    H123680   5.464   4.140   4.171 -1.7351  0.0828  0.7467
  755TIP3    H223681   5.460   4.285   4.126  1.7603 -0.2303 -0.7759
  756TIP3   OH223682   3.192   0.423   1.383 -0.5220  0.2428  0.4864
  756TIP3    H123683   3.182   0.483   1.457  1.1312  1.0522  0.0770
  756TIP3    H223684   3.106   0.424   1.340 -1.6376 -0.5773  2.6084
  757TIP3   OH223685   2.343   3.728  13.810 -0.1196  0.4244 -0.1382
  757TIP3    H123686   2.325   3.797  13.747 -3.3519 -0.6121 -0.4080
  757TIP3    H223687   2.289   3.750  13.886  1.2262 -0.1478  1.0189
  758TIP3   OH223688   6.494   4.532   4.717 -0.1614  0.3149  0.5955
  758TIP3    H123689   6.500   4.626   4.731  0.2719  0.5924 -1.2683
  758TIP3    H223690   6.406   4.518   4.683  0.6924  0.4801 -1.8527
  759TIP3   OH223691   3.135   4.757   2.035  0.8265  0.5192 -0.2078
  759TIP3    H123692   3.220   4.739   2.076  0.7457 -2.8721 -1.3260
  759TIP3    H223693   3.082   4.795   2.104  1.6273 -2.2844  2.0303
  760TIP3   OH223694   4.368   5.149   0.510  0.0047  0.6445 -0.5305
  760TIP3    H123695   4.377   5.099   0.429  0.9950 -0.6458  0.3586
  760TIP3    H223696   4.443   5.209   0.510 -0.4338  1.1923 -0.9478
  761TIP3   OH223697   6.030   3.750  17.056 -0.2628 -1.1292 -0.4255
  761TIP3    H123698   6.015   3.730  17.149 -0.7357 -1.9048 -0.6718
  761TIP3    H223699   5.969   3.694  17.009 -0.5725 -0.1591 -1.1788
  762TIP3   OH223700   6.625   5.286   1.983 -0.4496 -0.4413  0.2264
  762TIP3    H123701   6.631   5.228   1.907 -0.0071 -1.8121  1.2987
  762TIP3    H223702   6.552   5.344   1.963 -0.1016 -0.5396 -1.4204
  763TIP3   OH223703   1.273   5.603   1.055 -0.2357 -0.1526 -0.6208
  763TIP3    H123704   1.246   5.660   0.982  0.4494  1.9607  0.7319
  763TIP3    H223705   1.366   5.585   1.038 -0.1117  0.2255 -0.3333
  764TIP3   OH223706   3.966   4.862  14.741 -0.8056  0.3850 -0.3240
  764TIP3    H123707   3.921   4.918  14.678  0.6997  1.8714 -0.1364
  764TIP3    H223708   3.928   4.776  14.729 -3.1393  1.4281 -0.6875
  765TIP3   OH223709   5.564   0.409  13.702 -0.0760 -0.0676 -0.3527
  765TIP3    H123710   5.581   0.340  13.638 -1.3230 -1.4686  0.7859
  765TIP3    H223711   5.601   0.488  13.663  1.1421 -1.3218 -1.8051
  766TIP3   OH223712   2.720   3.645  12.787  0.5287  0.4898 -0.0513
  766TIP3    H123713   2.762   3.572  12.833  1.3832  1.6740  1.0810
  766TIP3    H223714   2.751   3.723  12.833 -2.5321  1.4451  0.4877
  767TIP3   OH223715   3.644   3.424  15.536  0.0408  0.3326  0.6939
  767TIP3    H123716   3.617   3.403  15.446  0.0814  0.5758  0.6242
  767TIP3    H223717   3.739   3.437  15.530  0.0804  0.1147  0.8177
  768TIP3   OH223718   0.750   6.494   3.458  0.4809 -0.7346  0.4174
  768TIP3    H123719   0.787   6.555   3.522 -0.3843 -0.6149  0.8066
  768TIP3    H223720   0.729   6.416   3.510  0.7972 -1.0533  0.0745
  769TIP3   OH223721   6.740   3.169  11.752  0.4508  0.1347 -0.4627
  769TIP3    H123722   6.677   3.144  11.820  0.1012  1.6564 -0.2050
  769TIP3    H223723   6.753   3.090  11.701 -0.6400 -0.5598  0.3136
  770TIP3   OH223724   3.092   5.441  13.632 -0.2438 -0.0091  0.2215
  770TIP3    H123725   3.175   5.462  13.589  0.8924 -1.9875  1.2952
  770TIP3    H223726   3.025   5.456  13.566  0.9978  1.3837 -0.7548
  771TIP3   OH223727   4.034   2.483  12.622  0.4782 -0.1681  0.1033
  771TIP3    H123728   4.090   2.445  12.554 -0.5698 -0.7889 -0.4284
  771TIP3    H223729   3.977   2.411  12.650 -1.4004  0.9389 -0.7668
  772TIP3   OH223730   6.356   3.968   5.969  0.0063  0.0014  0.3483
  772TIP3    H123731   6.340   4.050   6.015 -0.6348  0.6487 -1.0210
  772TIP3    H223732   6.377   3.905   6.039 -2.3806  0.6208  1.6793
  773TIP3   OH223733   2.007   4.137  11.651  0.1970 -0.1427  0.6104
  773TIP3    H123734   2.057   4.059  11.625 -0.4375 -0.6064  0.7670
  773TIP3    H223735   2.028   4.203  11.585 -0.7992 -1.0546 -0.6427
  774TIP3   OH223736   2.834   5.816   3.501 -0.3163 -0.3782  0.1696
  774TIP3    H123737   2.896   5.780   3.564  0.3768 -0.7639 -0.7216
  774TIP3    H223738   2.844   5.911   3.510 -0.0185 -0.4351  0.4499
  775TIP3   OH223739   6.406   4.615  16.806  0.3933 -0.4849 -0.2766
  775TIP3    H123740   6.430   4.671  16.880 -1.7608 -1.0802  0.9112
  775TIP3    H223741   6.473   4.546  16.807  0.6792 -0.2102  0.8185
  776TIP3   OH223742   3.089   6.067  14.132  0.3637 -0.6025  0.2336
  776TIP3    H123743   3.132   6.067  14.047 -0.0728 -0.7882  0.0081
  776TIP3    H223744   3.159   6.082  14.195  0.7168 -0.6626 -0.1441
  777TIP3   OH223745   5.462   5.108  13.918  0.0554 -0.3437 -0.1115
  777TIP3    H123746   5.546   5.153  13.929  1.1163 -1.6435 -2.5468
  777TIP3    H223747   5.428   5.100  14.007  1.8863  1.3559  0.8003
  778TIP3   OH223748   0.973   4.508   3.828 -0.5897 -0.5403 -0.2509
  778TIP3    H123749   1.027   4.440   3.869  0.7592  0.0441 -1.0069
  778TIP3    H223750   0.950   4.567   3.900 -0.0726 -0.7051  0.0547
  779TIP3   OH223751   6.323   3.669   1.960 -0.6348  0.4420 -0.0926
  779TIP3    H123752   6.367   3.742   2.005 -0.5548  0.5086 -0.2784
  779TIP3    H223753   6.310   3.603   2.028 -1.1702  0.8383  0.1915
  780TIP3   OH223754   5.027   6.547   1.036  0.1091 -0.4511  0.5172
  780TIP3    H123755   4.982   6.545   1.120 -0.2524  1.2320  0.3822
  780TIP3    H223756   4.970   6.496   0.977 -0.8726  0.3873  0.7182
  781TIP3   OH223757   4.196   4.844  12.566 -0.4819  0.9140  0.0544
  781TIP3    H123758   4.263   4.907  12.592 -0.3451  1.3749 -1.3670
  781TIP3    H223759   4.128   4.853  12.633  0.7630  0.5880  1.3910
  782TIP3   OH223760   1.560   3.490   1.650 -0.4907 -0.0828 -0.0746
  782TIP3    H123761   1.527   3.526   1.568  1.4524  0.7833 -0.5022
  782TIP3    H223762   1.486   3.493   1.710 -1.0983  2.0942 -0.9170
  783TIP3   OH223763   2.711   1.492  10.739 -0.1632  0.0329  0.3941
  783TIP3    H123764   2.675   1.497  10.651  0.6381  2.1000  0.1582
  783TIP3    H223765   2.642   1.451  10.791 -2.3138  2.5182 -0.3783
  784TIP3   OH223766   0.965   5.442  10.993  0.0989  0.1250 -0.4794
  784TIP3    H123767   0.913   5.369  10.962 -0.3951  1.0857 -1.9701
  784TIP3    H223768   1.037   5.449  10.931  0.8621  0.1049  0.3863
  785TIP3   OH223769   6.496   2.731   4.015 -0.0290  0.1075 -0.2390
  785TIP3    H123770   6.579   2.698   3.981 -0.0039  0.3070 -0.3727
  785TIP3    H223771   6.520   2.812   4.059  0.1172 -0.7400  1.2697
  786TIP3   OH223772   5.575   6.327   5.603  0.0312  0.0962  0.1113
  786TIP3    H123773   5.534   6.308   5.519  0.6813  2.4711 -0.7585
  786TIP3    H223774   5.654   6.376   5.582  0.5963  0.1024  2.0747
  787TIP3   OH223775   5.583   1.191  11.148 -0.4098 -0.0032  0.5362
  787TIP3    H123776   5.508   1.240  11.115 -0.5541 -0.1044  0.7190
  787TIP3    H223777   5.629   1.162  11.069  0.4195  1.5695  0.4137
  788TIP3   OH223778   2.502   5.375   6.288 -0.2850  0.7276 -0.0941
  788TIP3    H123779   2.499   5.459   6.334 -1.5225  0.2545  0.7036
  788TIP3    H223780   2.468   5.312   6.351  0.8959 -0.4223 -0.6045
  789TIP3   OH223781   5.537   2.330  14.215  0.0610 -0.5242 -0.1750
  789TIP3    H123782   5.446   2.354  14.195  0.5639  0.2863 -1.5699
  789TIP3    H223783   5.572   2.407  14.260  0.2334 -0.6049 -0.1726
  790TIP3   OH223784   4.453   6.059   6.197  0.3273  0.2957  0.0716
  790TIP3    H123785   4.512   6.046   6.124  0.5889  2.2627 -0.0974
  790TIP3    H223786   4.470   5.985   6.256  2.2001  0.3015 -0.4519
  791TIP3   OH223787   5.920   5.582   3.060  0.3465 -0.0916  0.0547
  791TIP3    H123788   5.945   5.490   3.046  2.2098  0.8071 -3.0316
  791TIP3    H223789   5.997   5.621   3.102  0.6015  0.6303 -1.0614
  792TIP3   OH223790   0.850   6.593  15.445  0.1223 -0.0525 -0.4891
  792TIP3    H123791   0.861   6.592  15.350  0.1947 -1.1942 -0.4752
  792TIP3    H223792   0.815   6.506  15.466 -0.3876  0.3791  0.4704
  793TIP3   OH223793   5.912   1.365   5.383  0.0686  0.3456 -0.9214
  793TIP3    H123794   5.851   1.304   5.425 -1.5843  0.6718 -2.7290
  793TIP3    H223795   5.995   1.318   5.379 -0.3406 -0.5353  0.6140
  794TIP3   OH223796   1.581   6.426   3.660  0.2177  0.0385  0.1328
  794TIP3    H123797   1.488   6.445   3.650  0.7343  2.4557 -0.3354
  794TIP3    H223798   1.593   6.342   3.615 -1.9946 -1.0889  1.5336
  795TIP3   OH223799   2.503   6.758  12.640 -0.4496 -0.0857 -0.3480
  795TIP3    H123800   2.590   6.789  12.614 -1.1051  0.7715 -1.6408
  795TIP3    H223801   2.502   6.666  12.615  0.1796 -0.1631 -0.0967
  796TIP3   OH223802   4.710   3.614   4.954  0.4545 -0.5488 -0.6554
  796TIP3    H123803   4.680   3.689   4.903  0.5754 -0.3568 -0.4466
  796TIP3    H223804   4.634   3.556   4.959 -0.6772  1.0861  2.0285
  797TIP3   OH223805   3.793   1.519  12.277  0.0155 -0.8059 -0.2433
  797TIP3    H123806   3.731   1.503  12.349 -0.2418  0.0964 -0.2548
  797TIP3    H223807   3.821   1.432  12.249 -0.2979 -1.1777  0.5964
  798TIP3   OH223808   6.735   0.394   4.629  0.5167  0.4073  0.0721
  798TIP3    H123809   6.786   0.329   4.677 -0.3685 -1.5804 -1.5931
  798TIP3    H223810   6.663   0.416   4.687  0.7865 -0.1458  0.6219
  799TIP3   OH223811   2.203   6.775   0.025 -0.7080 -0.1913  0.0913
  799TIP3    H123812   2.276   6.766   0.086 -1.0082  0.3239  0.5329
  799TIP3    H223813   2.161   6.689   0.025  0.4226 -0.7480 -0.8447
  800TIP3   OH223814   2.886   2.065  14.612 -0.2571 -0.3719  0.0856
  800TIP3    H123815   2.830   2.054  14.688 -1.1611 -0.4079 -0.5790
  800TIP3    H223816   2.930   2.149  14.627  1.4607 -1.5503  1.8336
  801TIP3   OH223817   0.595   6.051  15.284  0.3014 -0.2033 -0.0915
  801TIP3    H123818   0.610   5.999  15.363 -0.2761 -0.5440 -0.2018
  801TIP3    H223819   0.524   6.111  15.308 -1.4996 -1.8921 -1.0643
  802TIP3   OH223820   5.994   4.403  11.382 -0.0084 -0.2899 -0.0436
  802TIP3    H123821   6.024   4.419  11.471  1.0308 -0.7829 -0.2961
  802TIP3    H223822   5.914   4.352  11.391  1.1430 -2.0013  0.5570
  803TIP3   OH223823   4.113   2.211   0.120 -0.6296  0.0945  0.1624
  803TIP3    H123824   4.146   2.207   0.210  1.0041 -1.1654 -0.4810
  803TIP3    H223825   4.139   2.298   0.088 -0.6246  0.2787  0.6620
  804TIP3   OH223826   0.158   3.342  12.355  0.5990 -0.5496 -0.3770
  804TIP3    H123827   0.134   3.268  12.300 -0.3224 -0.7719  0.3089
  804TIP3    H223828   0.161   3.417  12.296  0.1106 -0.8740 -0.8089
  805TIP3   OH223829   2.305   1.072   0.526 -0.2060 -0.2088 -0.2719
  805TIP3    H123830   2.261   0.987   0.530 -1.2125  0.3031 -0.3137
  805TIP3    H223831   2.388   1.058   0.570 -1.8245 -0.3128  2.8685
  806TIP3   OH223832   1.439   5.359  12.504  0.2492  0.0817  0.1252
  806TIP3    H123833   1.416   5.378  12.595 -0.7132  2.0710 -0.4999
  806TIP3    H223834   1.385   5.283  12.481  2.1416 -1.8577  1.8612
  807TIP3   OH223835   5.472   5.722  12.237 -0.0368  0.2582  0.1294
  807TIP3    H123836   5.473   5.744  12.330 -0.5640 -0.4736  0.3105
  807TIP3    H223837   5.483   5.806  12.193  1.5272  0.4541  0.8621
  808TIP3   OH223838   6.113   5.721  14.757  0.6248 -0.5811 -0.5444
  808TIP3    H123839   6.057   5.682  14.824 -0.5494  1.0700 -0.5460
  808TIP3    H223840   6.053   5.750  14.689  1.5515  0.5063 -0.9094
  809TIP3   OH223841   3.134   6.309  11.397 -0.7257  0.0152 -0.5927
  809TIP3    H123842   3.048   6.299  11.438 -0.1855  1.2057  0.8486
  809TIP3    H223843   3.119   6.374  11.328 -0.4336  2.2705  1.4051
  810TIP3   OH223844   2.011   4.094   3.470  0.4530  0.0291 -0.3173
  810TIP3    H123845   2.051   4.017   3.510 -1.6746 -0.8450  0.2107
  810TIP3    H223846   2.085   4.149   3.443  1.9574 -1.0045  1.6131
  811TIP3   OH223847   0.194   5.243   0.038  0.2016  0.2115  0.6219
  811TIP3    H123848   0.170   5.152   0.019  0.2543  0.3344 -0.0265
  811TIP3    H223849   0.115   5.281   0.076 -0.5535  0.5284 -1.2086
  812TIP3   OH223850   2.101   3.404  14.521  0.6050 -0.4097  0.2598
  812TIP3    H123851   2.099   3.333  14.585 -1.1536 -1.0747 -0.5019
  812TIP3    H223852   2.045   3.472  14.559  0.0489 -0.5607 -0.2861
  813TIP3   OH223853   4.720   6.027  13.756 -0.1051  0.8438 -0.4316
  813TIP3    H123854   4.766   6.110  13.748  0.8106  0.2188 -1.7117
  813TIP3    H223855   4.629   6.048  13.733 -0.0549  1.6630  0.1126
  814TIP3   OH223856   2.337   5.712   2.057 -0.5897  0.4981  0.3466
  814TIP3    H123857   2.243   5.730   2.050 -0.9471 -1.1249  0.8149
  814TIP3    H223858   2.350   5.633   2.004  0.4089  0.3509  0.8029
  815TIP3   OH223859   4.689   0.771   6.222 -0.1514  0.0730 -0.0531
  815TIP3    H123860   4.709   0.704   6.288 -0.9438 -0.6888 -0.5788
  815TIP3    H223861   4.738   0.848   6.251 -0.0169 -0.4329  1.1011
  816TIP3   OH223862   2.118   1.832  12.848 -0.1933 -0.4526  0.0253
  816TIP3    H123863   2.125   1.926  12.835 -0.7570 -0.4717 -0.3993
  816TIP3    H223864   2.204   1.806  12.880  0.7324 -0.1870 -2.2017
  817TIP3   OH223865   5.567   2.396   0.168  0.3947 -0.1920 -0.5968
  817TIP3    H123866   5.613   2.454   0.108 -0.1681  1.1358  0.2272
  817TIP3    H223867   5.491   2.366   0.119  1.1084 -0.8707 -1.3016
  818TIP3   OH223868   2.457   4.199   3.946  0.5379  0.0207  0.3887
  818TIP3    H123869   2.489   4.287   3.967  0.3365  0.2095 -0.0732
  818TIP3    H223870   2.385   4.215   3.884  0.8086 -0.4929 -0.0591
  819TIP3   OH223871   1.478   6.421   5.426  0.0179 -0.3552 -0.1191
  819TIP3    H123872   1.524   6.476   5.363 -1.7827  0.5748 -0.6710
  819TIP3    H223873   1.532   6.342   5.433  0.1600 -0.5862 -3.0366
  820TIP3   OH223874   3.422   5.296   0.098 -0.2690 -0.4312 -0.4214
  820TIP3    H123875   3.426   5.391   0.104  0.4314 -0.3746 -1.6416
  820TIP3    H223876   3.332   5.277   0.071 -0.5899 -0.1651  0.4315
  821TIP3   OH223877   1.842   5.465  14.471  0.7768 -0.1097 -0.0127
  821TIP3    H123878   1.810   5.382  14.435 -1.1091 -0.0662  1.4616
  821TIP3    H223879   1.774   5.528  14.447  2.1451  1.0016 -1.0147
  822TIP3   OH223880   0.090   0.823  16.992  0.2575 -0.1652 -0.4804
  822TIP3    H123881   0.008   0.810  17.040 -0.1512 -1.5104 -1.5048
  822TIP3    H223882   0.071   0.893  16.930  0.1882  0.2043 -0.0453
  823TIP3   OH223883   6.564   6.379   3.943 -0.0898 -0.1407 -0.1946
  823TIP3    H123884   6.549   6.286   3.959  1.0246 -0.2649  0.1844
  823TIP3    H223885   6.479   6.420   3.962 -0.4379 -1.0059  0.1822
  824TIP3   OH223886   5.385   2.055  15.662 -0.0465  0.8477  0.8008
  824TIP3    H123887   5.378   1.982  15.601  1.5464  0.9820  0.4421
  824TIP3    H223888   5.358   2.131  15.611 -1.9977  0.5114  1.2579
  825TIP3   OH223889   3.880   1.278  12.187  0.7185 -0.4398  0.0481
  825TIP3    H123890   3.846   1.229  12.112 -2.3267  0.7569  0.5789
  825TIP3    H223891   3.907   1.211  12.249 -0.3061 -1.4340 -0.5672
  826TIP3   OH223892   5.497   4.786  12.901  0.3470  0.6184  0.0556
  826TIP3    H123893   5.461   4.752  12.819  2.0898  0.2702 -0.5959
  826TIP3    H223894   5.425   4.779  12.964 -1.0013  0.8654 -1.4298
  827TIP3   OH223895   5.348   4.346   0.206  0.0091  0.1271 -0.4496
  827TIP3    H123896   5.382   4.410   0.144 -2.4490  0.9871 -0.9443
  827TIP3    H223897   5.348   4.391   0.290 -0.5084  0.3256 -0.5596
  828TIP3   OH223898   2.393   1.083   0.899 -0.3076 -0.0009 -0.6023
  828TIP3    H123899   2.342   1.130   0.965  0.5906  1.2440 -0.7751
  828TIP3    H223900   2.484   1.095   0.926  0.0460  0.2245 -1.8731
  829TIP3   OH223901   2.493   3.809   2.747  0.3823  0.1156  0.7436
  829TIP3    H123902   2.413   3.794   2.696  0.1863 -1.1667  1.3974
  829TIP3    H223903   2.504   3.904   2.748 -1.0589  0.2912  0.5270
  830TIP3   OH223904   2.155   4.387  12.708 -0.0428 -0.4498  0.5026
  830TIP3    H123905   2.220   4.353  12.770 -0.2357 -0.9685  0.4219
  830TIP3    H223906   2.134   4.312  12.652  0.0563 -0.0133 -0.1264
  831TIP3   OH223907   0.735   0.889  14.352 -0.5815 -0.1752 -0.4854
  831TIP3    H123908   0.737   0.944  14.431  0.2087  1.1846 -1.4359
  831TIP3    H223909   0.688   0.942  14.288 -1.7757 -1.5429 -0.7412
  832TIP3   OH223910   3.806   2.045   5.594  0.1779 -0.0806  0.2916
  832TIP3    H123911   3.730   1.995   5.624 -0.5038 -0.2882 -1.7102
  832TIP3    H223912   3.771   2.103   5.526  1.6738  0.3278 -0.1479
  833TIP3   OH223913   1.762   4.017  14.050  0.3997 -0.1113 -0.1134
  833TIP3    H123914   1.848   4.017  14.008  0.1324  0.1065 -0.6689
  833TIP3    H223915   1.779   4.048  14.139  0.2719  4.5406 -1.5607
  834TIP3   OH223916   5.287   5.986  14.863 -0.0245 -0.1246  0.1958
  834TIP3    H123917   5.266   5.985  14.769  2.7177 -0.7774 -0.4346
  834TIP3    H223918   5.339   6.065  14.875 -0.2367 -0.1272  1.1570
  835TIP3   OH223919   5.412   6.500  15.576 -0.2876  0.3562  0.0495
  835TIP3    H123920   5.345   6.558  15.540  1.6225  1.8255 -1.2126
  835TIP3    H223921   5.473   6.558  15.621  0.4161 -0.9237  0.7931
  836TIP3   OH223922   1.306   1.468   4.818  0.0148 -0.3824 -0.4931
  836TIP3    H123923   1.367   1.394   4.819  1.2715  0.6364 -0.4406
  836TIP3    H223924   1.270   1.469   4.907 -1.3566 -2.0118 -1.0104
  837TIP3   OH223925   6.031   2.566   3.094  0.0547 -0.4984  0.3501
  837TIP3    H123926   6.069   2.608   3.171 -0.4700 -1.0653  0.9233
  837TIP3    H223927   6.102   2.566   3.029  0.2078  0.8348  0.4984
  838TIP3   OH223928   2.501   4.683  14.457  0.9183 -0.2250 -0.3346
  838TIP3    H123929   2.574   4.707  14.400  0.6214 -0.4205 -0.7971
  838TIP3    H223930   2.462   4.767  14.482  1.2580 -0.1229 -0.1364
  839TIP3   OH223931   0.380   2.876   5.486  0.5997  0.1521 -0.4004
  839TIP3    H123932   0.456   2.915   5.529 -0.3836  1.4043  0.2391
  839TIP3    H223933   0.392   2.782   5.497  1.5103  0.3790  0.6461
  840TIP3   OH223934   4.376   5.365   2.319  0.2004  0.2902  0.4751
  840TIP3    H123935   4.441   5.390   2.385  1.8588  0.6186 -1.2449
  840TIP3    H223936   4.378   5.436   2.255  0.5114 -1.2213 -1.2560
  841TIP3   OH223937   3.938   1.008  13.247 -0.5768  0.4076  0.0578
  841TIP3    H123938   3.926   1.024  13.341 -0.9742 -0.7354  0.2155
  841TIP3    H223939   3.885   0.930  13.230  0.7240 -0.2976 -0.8101
  842TIP3   OH223940   0.898   5.499   6.567 -0.3419 -0.2196  0.0322
  842TIP3    H123941   0.872   5.416   6.527 -2.2606 -0.0877  0.9506
  842TIP3    H223942   0.954   5.474   6.640 -1.4945 -0.7581  0.7447
  843TIP3   OH223943   5.485   2.506   0.428  0.1894 -0.0899  0.5467
  843TIP3    H123944   5.516   2.469   0.346  0.2047  2.1397 -0.5122
  843TIP3    H223945   5.391   2.490   0.428 -0.1590  1.7574 -0.9692
  844TIP3   OH223946   5.389   3.939  14.003 -0.2797  0.6793  0.1282
  844TIP3    H123947   5.428   3.860  13.967 -0.3531  0.9095 -0.4544
  844TIP3    H223948   5.450   3.966  14.072 -0.5770 -0.2338  0.7493
  845TIP3   OH223949   5.185   6.660  16.271 -0.7712 -0.4198  0.5201
  845TIP3    H123950   5.235   6.689  16.348 -0.4426 -0.1530  0.2038
  845TIP3    H223951   5.102   6.708  16.276  0.0946  1.2290 -0.4569
  846TIP3   OH223952   2.060   4.728  14.722 -0.3704 -0.1029  0.2932
  846TIP3    H123953   2.022   4.669  14.786  0.3347 -3.2561 -2.0412
  846TIP3    H223954   1.985   4.766  14.676 -0.8129 -1.1367  0.1544
  847TIP3   OH223955   6.756   2.617  11.212 -0.0339  0.3078 -0.1494
  847TIP3    H123956   6.769   2.523  11.220  0.2118  0.3771  0.2586
  847TIP3    H223957   6.675   2.626  11.162 -1.4202 -0.1198  1.9548
  848TIP3   OH223958   0.695   5.881  16.421 -0.0124  0.4196  0.0996
  848TIP3    H123959   0.696   5.858  16.514 -0.1885  1.7247  0.4343
  848TIP3    H223960   0.778   5.848  16.387  0.8521  1.4876  1.1189
  849TIP3   OH223961   3.569   5.457   5.697  0.0471 -0.4534 -0.0817
  849TIP3    H123962   3.484   5.500   5.690  0.1126 -0.1276  1.1163
  849TIP3    H223963   3.622   5.516   5.751  0.4853 -1.4947  0.6461
  850TIP3   OH223964   2.491   3.403  12.346  0.3252  0.3372 -0.3360
  850TIP3    H123965   2.481   3.345  12.421  1.7904  0.9685  0.3798
  850TIP3    H223966   2.584   3.427  12.347  0.1230  1.2386 -1.6928
  851TIP3   OH223967   4.297   0.341  13.394 -0.8289  0.0111  0.2760
  851TIP3    H123968   4.259   0.425  13.370 -0.6111 -0.2970 -1.1583
  851TIP3    H223969   4.243   0.275  13.350  1.5026 -0.4136 -2.0645
  852TIP3   OH223970   1.409   3.401  11.212 -0.1018  0.8871 -0.0668
  852TIP3    H123971   1.472   3.440  11.151  1.4136 -2.1925 -0.5959
  852TIP3    H223972   1.328   3.395  11.162  0.1356  1.7007 -0.5548
  853TIP3   OH223973   0.904   5.853   4.895  0.5950  0.0622 -0.1936
  853TIP3    H123974   0.828   5.816   4.940  0.9543 -2.1901 -1.4106
  853TIP3    H223975   0.980   5.813   4.937  1.0796  1.0679 -0.0798
  854TIP3   OH223976   4.408   3.353  15.923  0.1784 -0.3475  0.0678
  854TIP3    H123977   4.398   3.388  16.011  0.0497 -1.4617  0.5126
  854TIP3    H223978   4.409   3.429  15.865 -0.3229  0.3517  0.9857
  855TIP3   OH223979   3.780   0.871  16.884 -0.3345  0.5752 -0.0810
  855TIP3    H123980   3.854   0.931  16.888 -0.2582  0.6115 -1.6487
  855TIP3    H223981   3.737   0.879  16.969  1.3205  0.7200  0.7525
  856TIP3   OH223982   4.947   5.313   5.915 -0.3071 -0.7197 -0.1163
  856TIP3    H123983   4.866   5.355   5.945 -1.0829 -2.0298 -0.3490
  856TIP3    H223984   4.924   5.220   5.906  1.2568 -1.1220 -0.0630
  857TIP3   OH223985   2.913   4.778  11.329 -0.3770 -0.4052  0.4243
  857TIP3    H123986   2.986   4.720  11.307  1.5766  1.7196  1.0582
  857TIP3    H223987   2.907   4.774  11.424 -2.1529 -1.7686  0.2772
  858TIP3   OH223988   1.651   1.909  15.178 -0.1760  0.2190 -0.0822
  858TIP3    H123989   1.708   1.895  15.102 -1.4401  0.5130 -1.1132
  858TIP3    H223990   1.682   1.990  15.217  1.7162 -0.9322  0.8629
  859TIP3   OH223991   4.537   0.019  11.625  0.4985 -0.0817 -0.0958
  859TIP3    H123992   4.541   0.088  11.558 -1.4879 -0.6831 -0.8838
  859TIP3    H223993   4.610  -0.039  11.605  1.2540  0.9452 -0.3720
  860TIP3   OH223994   5.985   1.846   4.997 -0.6722  0.2662  0.0825
  860TIP3    H123995   6.018   1.902   4.926  0.5405  2.0634  2.0178
  860TIP3    H223996   6.063   1.807   5.035 -1.3457 -0.9099  0.2842
  861TIP3   OH223997   6.171   5.689  10.665  0.2913 -0.2551  0.8103
  861TIP3    H123998   6.205   5.628  10.600  0.9612  0.1910  0.7391
  861TIP3    H223999   6.103   5.738  10.619  0.3802 -0.3212  0.6091
  862TIP3   OH224000   0.139   5.777   4.536  0.5507 -0.5119  0.1199
  862TIP3    H124001   0.080   5.805   4.605  1.5341  1.6584  0.1231
  862TIP3    H224002   0.081   5.739   4.469 -0.4452 -2.0979  1.8537
  863TIP3   OH224003   2.448   4.725  16.213 -0.1217 -0.1111  0.4075
  863TIP3    H124004   2.411   4.666  16.147 -0.3544 -1.2211  1.5032
  863TIP3    H224005   2.439   4.812  16.176  1.4352 -0.8505 -1.8396
  864TIP3   OH224006   0.465   1.013  13.170 -0.6002  0.1734 -0.5008
  864TIP3    H124007   0.554   1.038  13.146 -0.8745  1.9722  0.2355
  864TIP3    H224008   0.476   0.956  13.246 -0.1228  2.1773  0.9975
  865TIP3   OH224009   0.646   0.408   4.427  0.2100 -0.1361 -0.3756
  865TIP3    H124010   0.641   0.315   4.404 -0.4450 -0.4304  0.9254
  865TIP3    H224011   0.693   0.448   4.354  2.4907 -1.8666  0.0906
  866TIP3   OH224012   0.716   1.048   2.260  0.3045 -0.8387  0.6197
  866TIP3    H124013   0.734   1.055   2.353 -0.2902  0.2919  0.6626
  866TIP3    H224014   0.730   1.137   2.226 -1.3746 -0.8047 -0.0159
  867TIP3   OH224015   5.572   2.973   0.629  0.6279 -0.6868 -0.5265
  867TIP3    H124016   5.514   3.002   0.558  0.1892 -1.1049 -0.3358
  867TIP3    H224017   5.559   2.878   0.634 -2.4603 -0.2080  2.8392
  868TIP3   OH224018   5.378   3.511  15.914 -0.2204 -0.5304  0.3489
  868TIP3    H124019   5.323   3.520  15.836 -0.1912 -0.7082  0.3080
  868TIP3    H224020   5.338   3.569  15.978 -0.4081 -0.5961  0.2922
  869TIP3   OH224021   5.606   1.126  14.161  0.1508 -0.3233  0.0204
  869TIP3    H124022   5.671   1.084  14.104 -2.3089 -2.3135 -1.4262
  869TIP3    H224023   5.594   1.063  14.232 -1.5897 -0.8988 -0.7526
  870TIP3   OH224024   6.007   6.104  15.307  0.1039  0.9496 -0.0658
  870TIP3    H124025   5.916   6.131  15.299 -0.1479 -0.1789 -1.1467
  870TIP3    H224026   6.037   6.093  15.217  0.0240 -2.7840  0.2693
  871TIP3   OH224027   1.720   2.257  16.619 -0.1925 -0.1495 -0.3161
  871TIP3    H124028   1.686   2.343  16.642 -0.7774 -0.6914  0.8590
  871TIP3    H224029   1.804   2.251  16.665 -0.7329 -0.6942  0.6123
  872TIP3   OH224030   4.409   2.711   2.838 -0.7876 -0.0159  0.1807
  872TIP3    H124031   4.381   2.639   2.782 -0.2608  0.3986 -0.6237
  872TIP3    H224032   4.329   2.757   2.861 -1.2668 -1.5707  1.6949
  873TIP3   OH224033   6.568   1.943   3.588 -0.0320 -0.0537  0.0678
  873TIP3    H124034   6.549   1.849   3.596 -1.2922  0.0243 -1.6308
  873TIP3    H224035   6.618   1.950   3.507 -0.0881  0.7576  0.1049
  874TIP3   OH224036   0.959   4.734   3.649  0.1124  0.3954  0.5275
  874TIP3    H124037   0.993   4.682   3.722  0.2758  0.4156  0.4665
  874TIP3    H224038   0.881   4.777   3.685  1.7027  2.5692  1.5557
  875TIP3   OH224039   0.044   2.393  13.174  0.6646 -0.0970  0.1736
  875TIP3    H124040   0.066   2.303  13.151 -1.9550 -0.6114 -0.4381
  875TIP3    H224041   0.072   2.444  13.098  1.0087 -0.5494 -0.0114
  876TIP3   OH224042   2.046   0.784  14.234 -0.1969 -0.0187 -0.4108
  876TIP3    H124043   2.107   0.711  14.247 -0.2029  0.1024  0.3316
  876TIP3    H224044   2.011   0.771  14.146  1.7281  0.5334 -1.2632
  877TIP3   OH224045   5.931   4.562   5.201 -0.5236  0.4156 -0.0540
  877TIP3    H124046   5.877   4.487   5.178 -0.2860  0.0132  0.6706
  877TIP3    H224047   5.998   4.565   5.133 -0.1914 -0.3831  0.2243
  878TIP3   OH224048   5.340   6.178  17.235 -0.2930 -0.0914 -0.0516
  878TIP3    H124049   5.312   6.247  17.295 -1.9369  0.2296 -1.1554
  878TIP3    H224050   5.289   6.101  17.260  1.2850 -0.8451  0.9557
  879TIP3   OH224051   5.993   0.173  13.013  0.0762 -0.2655 -0.3701
  879TIP3    H124052   6.047   0.196  12.938 -0.0835  1.0770 -0.0796
  879TIP3    H224053   5.910   0.218  12.998  0.5628  1.2370  1.3438
  880TIP3   OH224054   2.393   1.350  15.357 -0.7039 -0.0971  0.2371
  880TIP3    H124055   2.447   1.274  15.380  0.9442  1.0115  0.1127
  880TIP3    H224056   2.454   1.424  15.357 -2.3833  1.3272  0.8737
  881TIP3   OH224057   6.751   6.083  11.613  1.1569 -0.2058 -1.0197
  881TIP3    H124058   6.827   6.140  11.626 -0.2121  1.0035  2.3545
  881TIP3    H224059   6.781   5.997  11.639  1.1457  0.4713  1.3564
  882TIP3   OH224060   3.665   5.832   0.149  0.4897  0.0340  0.3096
  882TIP3    H124061   3.641   5.756   0.096 -0.4964  0.1735  0.5438
  882TIP3    H224062   3.759   5.824   0.161  0.4397 -1.0076  0.0978
  883TIP3   OH224063   6.203   5.525   1.812 -0.0501  0.0466  0.3720
  883TIP3    H124064   6.195   5.596   1.875 -0.5675 -0.3988  0.8217
  883TIP3    H224065   6.113   5.508   1.784  0.3336  1.3916 -1.7972
  884TIP3   OH224066   1.893   3.779  14.861 -0.1651 -0.2021 -0.0883
  884TIP3    H124067   1.922   3.746  14.947 -0.4195  1.3757  0.6283
  884TIP3    H224068   1.838   3.854  14.882  0.0484  0.4082 -1.6617
  885TIP3   OH224069   4.668   2.580  15.003  0.0083  0.8487 -0.1537
  885TIP3    H124070   4.661   2.631  15.084  2.0482  0.9756 -0.0084
  885TIP3    H224071   4.601   2.616  14.945 -1.1696  1.0616  1.3146
  886TIP3   OH224072   1.258   3.774   0.973 -0.8060 -0.5813  0.2911
  886TIP3    H124073   1.282   3.688   1.008  2.0210 -0.8995 -2.1714
  886TIP3    H224074   1.195   3.755   0.904  1.4048 -0.9692 -1.7043
  887TIP3   OH224075   3.797   3.746  14.440 -0.1726 -0.2758  0.6368
  887TIP3    H124076   3.845   3.687  14.382 -0.0871  0.2332  0.1909
  887TIP3    H224077   3.797   3.701  14.525  1.1746 -0.2475  0.6679
  888TIP3   OH224078   1.923   1.199   0.184 -0.2162 -0.9156 -0.5664
  888TIP3    H124079   1.852   1.152   0.228 -1.0871 -0.7974 -1.8029
  888TIP3    H224080   1.879   1.252   0.117  0.7116  1.8442  0.9244
  889TIP3   OH224081   0.445   0.499   0.751 -0.1388  0.2714  0.2182
  889TIP3    H124082   0.526   0.515   0.800  0.0030 -0.0970  0.1061
  889TIP3    H224083   0.444   0.567   0.684  0.4238 -0.1357 -0.2110
  890TIP3   OH224084   5.023   3.500   5.143  0.6645  0.4776  0.3343
  890TIP3    H124085   4.947   3.480   5.198  0.0369 -0.8960 -0.9889
  890TIP3    H224086   5.072   3.418   5.139  1.1948  0.8275 -0.3963
  891TIP3   OH224087   4.925   0.364  16.223  0.1892 -0.1133  0.3956
  891TIP3    H124088   4.889   0.421  16.290  1.2431  0.7653  0.2285
  891TIP3    H224089   5.012   0.399  16.205 -0.1068 -0.2570 -1.5109
  892TIP3   OH224090   2.120   0.263  12.889  0.5034  0.1249  0.0891
  892TIP3    H124091   2.200   0.212  12.899  0.3316  0.1323  1.6925
  892TIP3    H224092   2.138   0.323  12.817  1.6540 -0.4025 -0.0689
  893TIP3   OH224093   5.751   0.008   1.847 -0.2009 -0.1934  0.2846
  893TIP3    H124094   5.659   0.025   1.831  0.4690  1.3571 -2.3836
  893TIP3    H224095   5.789   0.093   1.867  0.9156 -0.5587 -0.1752
  894TIP3   OH224096   5.559   6.039   4.259  0.2575 -0.0770 -0.2199
  894TIP3    H124097   5.644   6.068   4.225  0.7107 -1.9009 -0.7207
  894TIP3    H224098   5.496   6.078   4.199  0.6999  1.7187  0.4561
  895TIP3   OH224099   0.210   6.560   0.641 -0.1329  0.5217 -0.2602
  895TIP3    H124100   0.157   6.509   0.703 -3.1557  0.6213 -2.6254
  895TIP3    H224101   0.178   6.650   0.650  0.3359  0.7697 -1.0393
  896TIP3   OH224102   4.284   0.891   0.771  0.3589  0.3159 -0.5516
  896TIP3    H124103   4.289   0.895   0.866 -0.9307  1.4123 -0.5201
  896TIP3    H224104   4.235   0.969   0.746 -1.5041 -1.2542 -1.9185
  897TIP3   OH224105   1.500   1.662  11.709 -0.1103 -0.6047  0.6171
  897TIP3    H124106   1.456   1.627  11.786 -0.4733 -0.3916  0.5042
  897TIP3    H224107   1.442   1.640  11.636 -0.1063 -0.1810  0.4894
  898TIP3   OH224108   6.609   3.700   1.663 -0.3388  0.3131  0.4845
  898TIP3    H124109   6.535   3.759   1.649  1.2762  2.0684 -0.9779
  898TIP3    H224110   6.649   3.730   1.745 -0.1593  0.5602  0.3072
  899TIP3   OH224111   6.409   5.192  11.776 -0.3556  0.4453  0.0523
  899TIP3    H124112   6.462   5.228  11.705  0.4517  1.0347  0.9391
  899TIP3    H224113   6.434   5.100  11.781  0.6125  0.7309  0.4910
  900TIP3   OH224114   1.888   5.877  13.003 -0.2838 -0.4283  0.0443
  900TIP3    H124115   1.816   5.899  12.944 -2.0511 -0.4901  2.0951
  900TIP3    H224116   1.966   5.879  12.948 -1.5536  1.8856 -1.7710
  901TIP3   OH224117   3.121   5.526   1.503 -0.6326 -0.4344 -0.2484
  901TIP3    H124118   3.168   5.443   1.505 -1.4136 -0.8740  0.4654
  901TIP3    H224119   3.148   5.568   1.422 -1.2865 -2.0135 -1.3075
  902TIP3   OH224120   3.318   3.549  11.433 -0.2672  0.0119 -0.2132
  902TIP3    H124121   3.316   3.453  11.440  1.5978 -0.0660 -0.5523
  902TIP3    H224122   3.306   3.579  11.523  0.3651 -0.5585  0.0667
  903TIP3   OH224123   2.917   0.526   3.134 -0.1670  0.2210  0.5084
  903TIP3    H124124   2.976   0.574   3.193 -0.7931  1.1544  0.3878
  903TIP3    H224125   2.861   0.474   3.192  0.2481 -0.0594  0.6592
  904TIP3   OH224126   1.918   6.067  16.386 -0.2516 -0.0215  0.3836
  904TIP3    H124127   1.896   6.084  16.294  0.1928  1.8090  0.5936
  904TIP3    H224128   1.999   6.015  16.382  0.1323  0.6095 -0.2626
  905TIP3   OH224129   6.124   4.572  12.260  0.7058 -0.3663  0.8728
  905TIP3    H124130   6.161   4.640  12.316  0.3413 -0.6073  1.4145
  905TIP3    H224131   6.035   4.603  12.241  0.3247 -0.9963  1.6378
  906TIP3   OH224132   4.257   6.362   2.393  0.1342  0.6630 -0.2394
  906TIP3    H124133   4.303   6.445   2.386  1.1886 -0.0029 -1.4829
  906TIP3    H224134   4.307   6.302   2.338 -0.5943 -0.8033  0.6527
  907TIP3   OH224135   3.371   5.521   4.621 -0.5940  0.4192 -0.5409
  907TIP3    H124136   3.380   5.545   4.713  0.7143  0.8541 -0.7709
  907TIP3    H224137   3.449   5.558   4.579 -0.4611 -0.9922 -1.5724
  908TIP3   OH224138   5.810   4.605  13.849 -0.2890 -0.4415 -0.3562
  908TIP3    H124139   5.782   4.597  13.758 -0.0339 -2.5111 -0.2750
  908TIP3    H224140   5.801   4.699  13.869 -2.4551 -0.3080 -1.8141
  909TIP3   OH224141   2.998   2.011   2.606  0.2047  0.7304  0.4183
  909TIP3    H124142   3.070   2.070   2.630 -0.8704  0.9038  3.4939
  909TIP3    H224143   3.002   1.942   2.671 -0.4055 -1.0301 -1.3787
  910TIP3   OH224144   0.471   1.673   5.400  0.2235 -0.2639 -0.3595
  910TIP3    H124145   0.435   1.746   5.450 -0.6183 -0.2280 -1.0123
  910TIP3    H224146   0.508   1.713   5.321  0.8032 -0.4075 -0.1584
  911TIP3   OH224147   3.175   2.124  16.062 -0.5873  0.0635 -0.4385
  911TIP3    H124148   3.121   2.052  16.095  0.5249 -0.6732 -0.1858
  911TIP3    H224149   3.146   2.136  15.972 -1.3281 -0.1634 -0.2355
  912TIP3   OH224150   3.899   0.590   5.526 -0.1775  0.3090  0.0987
  912TIP3    H124151   3.815   0.613   5.567 -0.6914  0.1292 -0.8207
  912TIP3    H224152   3.888   0.498   5.499  0.7750 -0.1069  1.0822
  913TIP3   OH224153   5.802   1.711  15.398 -0.5573  0.8132 -0.1714
  913TIP3    H124154   5.775   1.641  15.339 -2.3702  0.5268  0.9548
  913TIP3    H224155   5.883   1.680  15.437 -0.5919 -0.0243 -0.7484
  914TIP3   OH224156   4.556   2.346  13.629 -0.1118  0.2327 -0.0154
  914TIP3    H124157   4.636   2.300  13.653 -0.3553  0.2206  0.8219
  914TIP3    H224158   4.583   2.436  13.612 -0.1461  0.6705  2.0132
  915TIP3   OH224159   3.869   0.101  15.195 -0.3043 -0.4491  0.4609
  915TIP3    H124160   3.808   0.174  15.210 -1.4088 -0.9240 -1.5159
  915TIP3    H224161   3.949   0.144  15.165 -1.0850 -0.0565 -1.0956
  916TIP3   OH224162   3.446   0.225   1.589 -0.4677  0.4816 -0.0813
  916TIP3    H124163   3.383   0.214   1.661  1.0735  1.1939  1.4025
  916TIP3    H224164   3.396   0.272   1.521 -2.4736 -1.7855 -0.2405
  917TIP3   OH224165   0.702   1.938   4.430 -0.1718  0.2647 -0.8497
  917TIP3    H124166   0.653   1.857   4.420  1.7093 -1.2610  1.5574
  917TIP3    H224167   0.645   1.995   4.481 -0.1096 -0.9523  0.6502
  918TIP3   OH224168   3.182   5.144   0.953  0.3016  0.1712  0.2726
  918TIP3    H124169   3.206   5.062   0.911 -1.1939 -1.1948  1.9603
  918TIP3    H224170   3.216   5.212   0.895 -0.7944 -1.6092 -2.5681
  919TIP3   OH224171   3.533   2.985  16.566 -0.9722 -0.3326  0.1021
  919TIP3    H124172   3.619   3.027  16.556 -0.3348 -1.6912 -0.2881
  919TIP3    H224173   3.477   3.031  16.504 -0.0920 -0.5277 -0.8610
  920TIP3   OH224174   0.334   4.454   1.086 -0.4830  0.1025 -0.7232
  920TIP3    H124175   0.395   4.385   1.114 -1.4238  0.5638  2.6179
  920TIP3    H224176   0.375   4.535   1.115 -1.6961  0.5675 -0.3247
  921TIP3   OH224177   2.145   3.288   5.532  0.0945 -0.0201 -0.1538
  921TIP3    H124178   2.098   3.315   5.453  0.9732  2.5261  0.1237
  921TIP3    H224179   2.099   3.332   5.604  1.5510  0.7556  0.3381
  922TIP3   OH224180   4.491   0.240  14.232  0.3256 -0.1643  0.3603
  922TIP3    H124181   4.447   0.177  14.289  1.0124 -0.2240  0.8228
  922TIP3    H224182   4.436   0.242  14.153 -0.7158  0.0431  1.0707
  923TIP3   OH224183   0.524   5.406  12.667  0.0476  0.2300 -0.4794
  923TIP3    H124184   0.485   5.494  12.669 -0.6615 -0.1037  1.2376
  923TIP3    H224185   0.482   5.363  12.593 -0.9461  0.7351 -0.2200
  924TIP3   OH224186   4.582   1.091   2.260  0.0218  0.4449  0.0704
  924TIP3    H124187   4.509   1.030   2.271  0.9111 -0.7296 -0.4423
  924TIP3    H224188   4.643   1.069   2.330  1.5180 -0.9935 -1.6164
  925TIP3   OH224189   2.496   3.017  12.501 -0.3132  0.3032 -0.2485
  925TIP3    H124190   2.400   3.026  12.497 -0.3138 -0.3053 -2.1601
  925TIP3    H224191   2.511   2.950  12.567 -1.0544  2.2175  1.9710
  926TIP3   OH224192   0.805   2.595  12.516  0.2518 -0.0578 -0.5901
  926TIP3    H124193   0.877   2.598  12.579  0.5728 -0.2998 -0.9445
  926TIP3    H224194   0.740   2.656  12.550  0.4386 -0.1695 -0.0397
  927TIP3   OH224195   4.821   5.378   3.005  0.6678 -0.0946 -0.5731
  927TIP3    H124196   4.762   5.405   3.075  0.1415 -1.0051 -0.6632
  927TIP3    H224197   4.856   5.294   3.034 -0.0255 -0.7823 -1.6713
  928TIP3   OH224198   2.553   4.587   0.298 -0.5383 -0.1860  0.4258
  928TIP3    H124199   2.503   4.669   0.305 -1.3037 -0.6735  0.8185
  928TIP3    H224200   2.578   4.582   0.206 -1.6108 -0.1525  0.1213
  929TIP3   OH224201   1.741   1.027   4.977 -0.0520  0.5972  0.5578
  929TIP3    H124202   1.798   1.026   4.900  0.0658  1.8364  0.6221
  929TIP3    H224203   1.657   0.993   4.944  0.5025 -0.5402  0.2988
  930TIP3   OH224204   2.628   3.702   6.423  0.6429 -0.1018  0.2052
  930TIP3    H124205   2.721   3.683   6.412  0.2071 -1.5006 -1.3324
  930TIP3    H224206   2.620   3.796   6.408  1.4892 -0.3616 -2.0392
  931TIP3   OH224207   6.118   3.022  14.996 -0.3599 -0.1895  0.3735
  931TIP3    H124208   6.166   2.985  15.070  2.1897  0.3466 -0.9665
  931TIP3    H224209   6.119   3.116  15.011 -1.7051 -0.2080  0.7134
  932TIP3   OH224210   2.988   4.651  16.019 -0.1165  1.1747  0.0261
  932TIP3    H124211   3.053   4.721  16.027  0.6411  0.2789  1.9934
  932TIP3    H224212   3.034   4.579  15.977  0.2271  0.4946  1.5321
  933TIP3   OH224213   1.060   6.733  15.909  0.6145  0.0245 -0.1786
  933TIP3    H124214   0.981   6.776  15.943  1.1223  2.5608 -2.0920
  933TIP3    H224215   1.132   6.784  15.945  1.2797  0.0056 -1.4940
  934TIP3   OH224216   0.255   2.855  14.837  0.2475 -0.4615  0.1759
  934TIP3    H124217   0.172   2.817  14.866 -0.8403  1.4650 -0.3280
  934TIP3    H224218   0.243   2.870  14.743  2.2314 -2.8218 -0.5071
  935TIP3   OH224219   0.227   0.986  16.098  0.4956 -0.3928 -0.5584
  935TIP3    H124220   0.270   0.903  16.119 -1.3016 -1.0963  0.4526
  935TIP3    H224221   0.164   0.964  16.029 -0.9206 -0.1683  0.6272
  936TIP3   OH224222   4.473   2.483   2.672 -0.0981 -0.3774  0.0693
  936TIP3    H124223   4.566   2.503   2.661 -0.1425 -0.4899 -0.5868
  936TIP3    H224224   4.442   2.467   2.582 -0.6215 -0.8939  0.3398
  937TIP3   OH224225   1.047   2.142   2.717  0.3362  0.3233 -0.2844
  937TIP3    H124226   1.110   2.093   2.770  0.5756  0.0753 -0.7971
  937TIP3    H224227   0.990   2.074   2.680  1.1807  0.3497 -1.6767
  938TIP3   OH224228   5.627   6.771  12.009 -0.3008 -0.5018 -0.3174
  938TIP3    H124229   5.705   6.729  11.972 -1.8120 -2.6515 -1.1829
  938TIP3    H224230   5.621   6.736  12.098  1.9764  2.8475  1.3138
  939TIP3   OH224231   4.333   2.019  16.185 -0.3266 -0.3154  0.2087
  939TIP3    H124232   4.353   1.926  16.186  0.3966 -0.1759 -1.1631
  939TIP3    H224233   4.406   2.059  16.137 -0.7565  0.9225  0.5695
  940TIP3   OH224234   5.224   2.399   3.704 -0.2122  0.0883 -0.3500
  940TIP3    H124235   5.208   2.305   3.696 -0.6457  0.0801  0.6068
  940TIP3    H224236   5.278   2.407   3.782 -0.7056  0.6998 -0.0737
  941TIP3   OH224237   5.173   1.017   3.449 -0.3789  0.5232  0.0618
  941TIP3    H124238   5.249   1.029   3.392  0.0254 -2.1530 -0.0300
  941TIP3    H224239   5.102   1.063   3.403  0.7411  1.4479 -0.7942
  942TIP3   OH224240   5.347   6.507   5.200  0.0786  1.0100 -0.3888
  942TIP3    H124241   5.266   6.469   5.165  0.0779  1.6207 -1.0580
  942TIP3    H224242   5.360   6.463   5.284  1.4269 -2.2862 -2.2563
  943TIP3   OH224243   2.323   4.101  16.412 -0.6529  0.2311 -0.3729
  943TIP3    H124244   2.321   4.194  16.435 -0.1452  0.1664 -0.0606
  943TIP3    H224245   2.324   4.055  16.495  0.1942 -0.0245 -0.5150
  944TIP3   OH224246   1.086   0.025   4.642 -0.5163 -0.0491 -0.0722
  944TIP3    H124247   1.098  -0.064   4.675  2.2719 -0.7283 -2.6795
  944TIP3    H224248   1.149   0.077   4.691  0.5350 -0.2466 -1.1914
  945TIP3   OH224249   0.807   5.006   4.286  0.5617  0.1082 -0.6159
  945TIP3    H124250   0.807   5.097   4.314 -1.6576 -0.0065 -0.0927
  945TIP3    H224251   0.734   4.966   4.335  0.5200 -1.5627 -1.9810
  946TIP3   OH224252   5.249   5.472   5.317 -0.1480 -0.1998 -0.3452
  946TIP3    H124253   5.229   5.407   5.385 -0.5998 -1.0852 -1.3055
  946TIP3    H224254   5.206   5.438   5.239  2.3700 -0.4402 -1.6529
  947TIP3   OH224255   6.089   4.091  13.619 -0.5281 -0.1743  0.5177
  947TIP3    H124256   6.073   4.020  13.681 -0.6771 -0.6430 -0.0518
  947TIP3    H224257   6.003   4.116  13.587 -0.2930 -1.6889 -1.4257
  948TIP3   OH224258   0.039   2.273  13.999  0.1107  0.1233  0.1197
  948TIP3    H124259  -0.007   2.249  13.919 -0.1649 -0.4829  0.4588
  948TIP3    H224260  -0.003   2.222  14.068  2.2783 -1.5864  0.2258
  949TIP3   OH224261   0.539   5.012   3.844  0.1881  0.3989 -0.4605
  949TIP3    H124262   0.482   5.011   3.920 -2.5248 -3.0695 -2.4133
  949TIP3    H224263   0.538   5.104   3.815 -2.2987  0.9008  1.0663
  950TIP3   OH224264   2.671   2.737   0.427  0.3570 -0.1477 -0.1575
  950TIP3    H124265   2.692   2.729   0.520  0.9788 -0.4811 -0.3202
  950TIP3    H224266   2.748   2.779   0.389 -0.9428  2.3433 -0.1062
  951TIP3   OH224267   3.958   4.846  15.353 -0.0860  0.1998  0.0317
  951TIP3    H124268   3.923   4.839  15.264 -0.8349 -1.3949  0.4378
  951TIP3    H224269   3.881   4.845  15.409  0.4056  0.9133  0.7370
  952TIP3   OH224270   0.398   5.969   4.046 -0.2832 -0.0081 -0.5288
  952TIP3    H124271   0.392   6.045   4.104  1.4026 -0.1948 -0.0759
  952TIP3    H224272   0.445   5.903   4.097 -2.4269 -1.6795 -0.6236
  953TIP3   OH224273   3.074   1.718  14.457  0.2365  0.3231  0.0069
  953TIP3    H124274   2.991   1.670  14.466  0.8330 -0.6681  0.3185
  953TIP3    H224275   3.100   1.704  14.366  1.1717 -1.2407  0.4904
  954TIP3   OH224276   2.247   5.152   2.832 -0.1653  0.2712 -0.2812
  954TIP3    H124277   2.339   5.133   2.814  0.0097  0.4854  0.3461
  954TIP3    H224278   2.225   5.097   2.908 -0.3134  0.8330  0.0883
  955TIP3   OH224279   1.471   2.705  10.386  0.5430  0.0621 -0.1037
  955TIP3    H124280   1.378   2.683  10.380 -0.2255  3.2386 -0.5522
  955TIP3    H224281   1.491   2.748  10.303  1.8181  1.4076  0.8652
  956TIP3   OH224282   1.472   6.189   6.185  0.3982  0.3699  0.1054
  956TIP3    H124283   1.497   6.228   6.101  1.6715  1.3263  0.9194
  956TIP3    H224284   1.460   6.264   6.243  0.7470 -0.3492  1.1161
  957TIP3   OH224285   0.271   1.982  12.926 -0.3019 -0.5221 -0.3437
  957TIP3    H124286   0.339   2.038  12.889  0.4744 -0.8109  0.6071
  957TIP3    H224287   0.291   1.894  12.893 -0.6166 -0.4870 -0.6196
  958TIP3   OH224288   0.640   3.960   6.091 -0.4906 -0.2383  0.3013
  958TIP3    H124289   0.610   4.040   6.133 -1.4372 -0.8220  0.7693
  958TIP3    H224290   0.560   3.907   6.080 -0.3379  0.0246 -2.5341
  959TIP3   OH224291   0.511   3.523   4.814  0.4645 -0.1730  0.4477
  959TIP3    H124292   0.602   3.549   4.801  0.6256 -1.3978 -0.9605
  959TIP3    H224293   0.512   3.428   4.808 -0.9304 -0.1901  0.3619
  960TIP3   OH224294   6.335   1.361  15.137  0.2615  0.2365 -0.1228
  960TIP3    H124295   6.335   1.432  15.073 -0.0528  0.2508 -0.1101
  960TIP3    H224296   6.351   1.404  15.221 -1.6296  0.5189  0.1183
  961TIP3   OH224297   4.586   3.326   4.178  0.2986  0.2908 -0.1948
  961TIP3    H124298   4.531   3.346   4.102  0.3047 -0.3302 -0.3622
  961TIP3    H224299   4.616   3.236   4.163 -1.3741 -0.5691  1.5712
  962TIP3   OH224300   3.866   0.025   2.659 -0.0618  0.1310  0.1034
  962TIP3    H124301   3.792  -0.037   2.666  0.0707  0.1386  1.7190
  962TIP3    H224302   3.877   0.037   2.565 -2.4699  0.5293 -0.1700
  963TIP3   OH224303   3.907   1.370   3.211  0.2437  0.3110 -0.7393
  963TIP3    H124304   3.971   1.316   3.257  0.6531  2.1003  0.8409
  963TIP3    H224305   3.939   1.460   3.222 -1.3741  1.0382 -1.7909
  964TIP3   OH224306   2.174   3.435   1.712  0.2792  0.1073  0.1597
  964TIP3    H124307   2.078   3.435   1.713  0.1820 -0.8298 -3.7743
  964TIP3    H224308   2.198   3.372   1.781 -1.9178 -0.0470  0.8293
  965TIP3   OH224309   6.019   2.066  13.263 -0.4810 -0.2843  0.2439
  965TIP3    H124310   6.038   2.068  13.169 -0.1778 -0.0559  0.3113
  965TIP3    H224311   5.944   2.007  13.271  0.4102 -1.4666  0.0092
  966TIP3   OH224312   4.747   0.654  16.965  0.1395  0.3332 -0.1651
  966TIP3    H124313   4.698   0.677  16.886 -0.3133 -2.8137 -0.8595
  966TIP3    H224314   4.748   0.734  17.017 -2.7467  1.4237 -1.6941
  967TIP3   OH224315   3.472   6.168   2.630 -0.4177  0.3415  0.0139
  967TIP3    H124316   3.563   6.175   2.661  0.3576 -1.0003 -1.8898
  967TIP3    H224317   3.455   6.251   2.587 -0.3134  0.8303  0.8936
  968TIP3   OH224318   4.530   4.244  16.359 -0.1658 -0.0998 -0.3025
  968TIP3    H124319   4.512   4.331  16.325  0.7417  0.9018  1.7188
  968TIP3    H224320   4.600   4.210  16.304 -0.5339  0.4443 -1.1037
  969TIP3   OH224321   3.348   4.961   1.426 -0.0452  0.3039  0.0853
  969TIP3    H124322   3.407   4.887   1.411  1.7015  2.0739 -2.0074
  969TIP3    H224323   3.282   4.954   1.357 -0.1113  0.5009  0.1296
  970TIP3   OH224324   6.049   1.433   3.146 -0.1596 -0.0688  0.2817
  970TIP3    H124325   6.063   1.522   3.113 -1.0178 -0.0279  0.0183
  970TIP3    H224326   6.049   1.379   3.067  0.1431 -0.2806  0.4250
  971TIP3   OH224327   0.974   5.181  13.554  0.0317 -0.2147  0.7411
  971TIP3    H124328   0.927   5.234  13.619 -0.6831 -0.0924  0.1201
  971TIP3    H224329   0.971   5.233  13.474 -0.3841 -1.0497  0.2153
  972TIP3   OH224330   6.564   6.058   1.365 -0.3293 -0.3037  0.6711
  972TIP3    H124331   6.496   6.048   1.433 -0.3021  1.4114  0.9747
  972TIP3    H224332   6.541   6.139   1.320  1.1528 -0.0640  0.3236
  973TIP3   OH224333   5.548   2.151  11.928 -0.7068 -0.6669 -0.2783
  973TIP3    H124334   5.470   2.175  11.978  0.7766 -0.0906  1.8384
  973TIP3    H224335   5.617   2.143  11.994  1.0735 -0.9802 -2.1293
  974TIP3   OH224336   1.871   5.702   2.013 -0.2126 -0.3031  0.2374
  974TIP3    H124337   1.908   5.649   2.083  0.0570 -0.8953 -0.3465
  974TIP3    H224338   1.940   5.765   1.992  0.5507 -1.4901 -0.9418
  975TIP3   OH224339   3.015   2.307  14.706 -0.5573  0.4698  0.4239
  975TIP3    H124340   2.991   2.364  14.633  0.0982  0.4360  0.1882
  975TIP3    H224341   2.976   2.350  14.783 -1.8563  0.1258 -0.0319
  976TIP3   OH224342   1.114   2.219  15.696 -0.2274  0.6492  0.1431
  976TIP3    H124343   1.160   2.300  15.674  1.0523 -0.2037 -0.3810
  976TIP3    H224344   1.184   2.154  15.708 -1.3015 -0.8265 -1.2855
  977TIP3   OH224345   1.499   5.835  12.617  0.7094  0.1786 -0.0755
  977TIP3    H124346   1.478   5.922  12.651 -0.9535  0.1490 -1.0055
  977TIP3    H224347   1.469   5.836  12.527 -1.2218 -2.0135  0.4911
  978TIP3   OH224348   1.053   0.677  11.199  0.6952  0.0240  0.4944
  978TIP3    H124349   0.969   0.678  11.244  0.2454  0.0746 -0.3530
  978TIP3    H224350   1.070   0.585  11.180  1.0533 -0.0336  1.0746
  979TIP3   OH224351   3.659   2.141  14.730 -0.2131 -0.6161  0.2749
  979TIP3    H124352   3.596   2.212  14.740  0.6439  0.2770 -0.5312
  979TIP3    H224353   3.704   2.160  14.648 -0.1330 -2.2248 -0.0718
  980TIP3   OH224354   4.888   3.893  11.017 -0.1877  0.0950 -0.5634
  980TIP3    H124355   4.856   3.854  10.936 -1.9658  0.3177  0.0124
  980TIP3    H224356   4.900   3.985  10.997 -2.4313  0.5152 -0.0741
  981TIP3   OH224357   6.557   2.141   5.393  0.0395  0.3443 -0.2266
  981TIP3    H124358   6.566   2.218   5.449 -0.1593 -0.1494  0.4904
  981TIP3    H224359   6.504   2.080   5.444 -2.5881  0.9892 -2.0929
  982TIP3   OH224360   0.299   6.428   4.403 -0.6021 -0.5631 -0.3974
  982TIP3    H124361   0.263   6.447   4.490  0.8083 -0.2659  0.1267
  982TIP3    H224362   0.257   6.493   4.346  0.5854  1.0877  0.5619
  983TIP3   OH224363   4.550   1.652  11.356  0.3461 -0.3526 -0.7197
  983TIP3    H124364   4.563   1.592  11.429 -0.3529  0.2776 -0.0735
  983TIP3    H224365   4.539   1.596  11.279  0.9618 -1.0144 -0.3291
  984TIP3   OH224366   2.649   4.376   6.771  0.1798  0.7064  0.2326
  984TIP3    H124367   2.702   4.388   6.849 -1.9617 -0.8979  1.9915
  984TIP3    H224368   2.564   4.414   6.793 -0.4505  0.2263 -1.2844
  985TIP3   OH224369   4.173   5.619   5.491 -0.6703 -0.0949  0.4848
  985TIP3    H124370   4.118   5.579   5.424 -2.3356  1.4235  0.8785
  985TIP3    H224371   4.242   5.664   5.442 -1.1512 -0.0488 -0.1578
  986TIP3   OH224372   3.719   5.667   3.437 -0.0577  0.7562  0.0403
  986TIP3    H124373   3.781   5.692   3.368  1.4756 -1.1441  0.6869
  986TIP3    H224374   3.635   5.703   3.408  0.3156 -0.9889 -3.4311
  987TIP3   OH224375   1.176   5.068  14.654  0.0852 -0.6686 -0.0303
  987TIP3    H124376   1.240   5.116  14.602  0.1822  0.0564  0.7528
  987TIP3    H224377   1.206   5.077  14.744 -1.4308  0.1920  0.4139
  988TIP3   OH224378   3.724   5.449   1.688 -0.3196  0.2242  0.5864
  988TIP3    H124379   3.670   5.467   1.611  1.0884 -1.3447 -0.8266
  988TIP3    H224380   3.715   5.527   1.743 -1.6473  1.2209 -0.9957
  989TIP3   OH224381   6.749   2.502  11.539 -0.4241  0.3817 -0.2446
  989TIP3    H124382   6.698   2.458  11.471 -1.2367  2.6560 -1.1876
  989TIP3    H224383   6.683   2.544  11.595  0.2938  3.5356 -1.6068
  990TIP3   OH224384   6.417   4.177  10.703 -0.3265 -0.2014 -0.1889
  990TIP3    H124385   6.408   4.271  10.692  0.2936 -0.4127 -3.0041
  990TIP3    H224386   6.329   4.142  10.687 -0.3724 -0.1528 -0.0381
  991TIP3   OH224387   4.120   6.435   6.120  0.0299 -0.6099 -0.0251
  991TIP3    H124388   4.059   6.508   6.110 -0.6630 -1.0868  0.6753
  991TIP3    H224389   4.206   6.476   6.127 -0.3993  0.1679  0.7758
  992TIP3   OH224390   3.404   2.133  14.481 -0.3379  0.6736  0.0013
  992TIP3    H124391   3.316   2.102  14.459  0.6137 -0.1122 -2.9136
  992TIP3    H224392   3.443   2.062  14.531 -0.0805 -0.5983 -1.9598
  993TIP3   OH224393   5.625   1.172  12.701  0.0535 -0.1980  0.2848
  993TIP3    H124394   5.614   1.078  12.718  0.5061 -0.7269 -2.0370
  993TIP3    H224395   5.552   1.214  12.746  0.3073 -1.5779  2.0339
  994TIP3   OH224396   6.517   3.901   2.154  0.4201 -0.1026 -0.5394
  994TIP3    H124397   6.443   3.942   2.199  0.9217  1.3190 -0.9807
  994TIP3    H224398   6.587   3.966   2.160  0.7663 -0.2549 -2.6021
  995TIP3   OH224399   2.846   3.437   1.576  0.2682  0.4636  0.3069
  995TIP3    H124400   2.807   3.504   1.633  0.5539 -0.3904  1.5227
  995TIP3    H224401   2.919   3.403   1.626  0.7426 -0.0604 -0.7339
  996TIP3   OH224402   1.225   2.992  12.649 -0.2142  0.0944 -0.2312
  996TIP3    H124403   1.136   3.010  12.620 -0.6523  0.3913  1.2968
  996TIP3    H224404   1.221   2.904  12.687  0.5323 -0.6189 -1.7252
  997TIP3   OH224405   6.691   6.399   2.802  0.0824  0.7377 -0.0792
  997TIP3    H124406   6.716   6.491   2.810  0.1950  0.7011 -0.0072
  997TIP3    H224407   6.711   6.361   2.887 -1.2477  0.9568  0.3354
  998TIP3   OH224408   3.664   5.448   2.222 -0.5099  0.1409 -0.1403
  998TIP3    H124409   3.636   5.367   2.264 -2.1596  2.0454  2.6567
  998TIP3    H224410   3.620   5.448   2.137 -2.0129 -1.0070  0.6121
  999TIP3   OH224411   1.184   4.740  12.603 -0.2631 -0.3650 -0.6252
  999TIP3    H124412   1.102   4.788  12.616  0.0335  0.0351 -0.2416
  999TIP3    H224413   1.173   4.661  12.655 -0.2961 -0.1859 -0.3625
 1000TIP3   OH224414   1.430   3.878  13.088 -0.6292  0.1727 -0.0341
 1000TIP3    H124415   1.485   3.880  13.167 -0.3719  1.6498 -0.2485
 1000TIP3    H224416   1.343   3.858  13.122 -0.3870  0.0597  0.5443
 1001TIP3   OH224417   5.266   5.082  16.069 -0.1879 -0.3308 -0.1233
 1001TIP3    H124418   5.349   5.130  16.073 -1.0466  1.2267 -1.0229
 1001TIP3    H224419   5.227   5.094  16.156 -0.8169  1.3539 -0.6296
 1002TIP3   OH224420   2.535   6.786   2.354  0.0852  0.0466 -0.6079
 1002TIP3    H124421   2.534   6.785   2.259 -1.1669  0.1934 -0.5990
 1002TIP3    H224422   2.495   6.704   2.380 -1.0345  0.7130 -0.2092
 1003TIP3   OH224423   2.582   6.557   6.453 -0.8823 -0.1408  0.1789
 1003TIP3    H124424   2.658   6.535   6.507 -0.0931 -0.9639 -1.2325
 1003TIP3    H224425   2.597   6.648   6.426 -1.2214  0.2331  1.2332
 1004TIP3   OH224426   3.446   6.345   5.180 -0.2707  0.3686  0.2422
 1004TIP3    H124427   3.530   6.305   5.156 -0.0193  0.7057  0.5435
 1004TIP3    H224428   3.457   6.369   5.272 -0.2573  1.5155 -0.0408
 1005TIP3   OH224429   2.924   1.288   4.356 -0.4176 -0.6942  0.2360
 1005TIP3    H124430   2.993   1.280   4.422  0.2772 -1.5688 -0.5816
 1005TIP3    H224431   2.842   1.289   4.406  0.1754 -0.0398  1.1874
 1006TIP3   OH224432   4.694   2.299   4.554  0.3908  0.0387  0.3695
 1006TIP3    H124433   4.788   2.282   4.556  0.0921 -1.8408  0.0426
 1006TIP3    H224434   4.665   2.259   4.472 -0.7981 -0.0336  0.8208
 1007TIP3   OH224435   6.233   3.386   6.202 -0.8917 -0.3252  0.0912
 1007TIP3    H124436   6.232   3.447   6.276 -1.6190  0.8606 -0.8685
 1007TIP3    H224437   6.227   3.443   6.125 -1.4060 -1.6107 -0.8273
 1008TIP3   OH224438   4.617   1.473   0.889 -0.1503 -0.0892 -0.3154
 1008TIP3    H124439   4.534   1.433   0.861 -0.7180  1.3952 -0.7668
 1008TIP3    H224440   4.675   1.462   0.814  0.3598 -1.8965  0.3032
 1009TIP3   OH224441   0.759   5.287  16.323 -0.6321  0.0095  0.3860
 1009TIP3    H124442   0.838   5.327  16.359 -0.7216 -0.5362  1.1931
 1009TIP3    H224443   0.701   5.360  16.304 -0.2875  0.3474  0.6459
 1010TIP3   OH224444   2.093   2.179  15.300 -0.2444 -0.0315  0.5870
 1010TIP3    H124445   2.138   2.234  15.364 -1.2751  1.6733 -0.0950
 1010TIP3    H224446   2.004   2.171  15.334 -0.3565 -0.4629  0.1913
 1011TIP3   OH224447   5.560   1.128  16.763 -0.0373 -0.2222  0.6134
 1011TIP3    H124448   5.612   1.078  16.826  0.2557 -0.7623 -0.0646
 1011TIP3    H224449   5.624   1.179  16.713 -0.2602  0.0831  0.6334
 1012TIP3   OH224450   1.516   6.417  15.865  0.2433  0.7026 -0.1246
 1012TIP3    H124451   1.612   6.426  15.871  0.4125  0.2125 -1.7778
 1012TIP3    H224452   1.484   6.507  15.864  0.6315  0.8598  1.2599
 1013TIP3   OH224453   3.842   0.639   4.336  0.1595  1.2102 -0.2757
 1013TIP3    H124454   3.815   0.615   4.247  1.1037 -0.8038 -0.0473
 1013TIP3    H224455   3.863   0.732   4.330 -0.0935  1.1794 -2.0856
 1014TIP3   OH224456   2.169   4.863   4.783  0.4564  0.0811  0.1470
 1014TIP3    H124457   2.232   4.885   4.715 -0.7464 -0.9925 -1.3523
 1014TIP3    H224458   2.091   4.914   4.761  0.3152  0.3324  1.1804
 1015TIP3   OH224459   3.241   1.214   3.610 -0.0856  0.0252  0.2696
 1015TIP3    H124460   3.239   1.160   3.689  1.1509 -0.2492  0.1198
 1015TIP3    H224461   3.317   1.270   3.621 -0.4659  0.6631 -0.2971
 1016TIP3   OH224462   5.886   3.506   1.968  0.1191 -0.1510  0.2265
 1016TIP3    H124463   5.793   3.505   1.946  0.2529 -2.3643 -0.3757
 1016TIP3    H224464   5.931   3.518   1.884  0.4098 -0.6092  0.3117
 1017TIP3   OH224465   3.897   4.995   2.470  0.1785  0.3757  0.1657
 1017TIP3    H124466   3.854   5.080   2.480 -0.0609  0.1773  0.8810
 1017TIP3    H224467   3.956   4.989   2.545  1.4664  0.6385 -0.8135
 1018TIP3   OH224468   5.121   4.848  16.916  0.4004  0.0430 -0.2079
 1018TIP3    H124469   5.085   4.907  16.982  0.6816  0.1504 -0.1498
 1018TIP3    H224470   5.207   4.884  16.896  1.2638 -1.2995  1.0277
 1019TIP3   OH224471   1.281   1.362  16.353  0.1510  0.3426 -0.0693
 1019TIP3    H124472   1.355   1.423  16.344  0.3779  0.1945  0.7549
 1019TIP3    H224473   1.206   1.419  16.371  0.0329  0.5032 -1.0374
 1020TIP3   OH224474   2.957   2.426  16.632 -0.1327  0.7382  0.2056
 1020TIP3    H124475   3.049   2.452  16.643 -0.0053  1.1566 -1.6972
 1020TIP3    H224476   2.913   2.462  16.709  1.4291 -0.1450  1.5422
 1021TIP3   OH224477   6.091   0.943   4.738  0.3612 -0.2755  0.1436
 1021TIP3    H124478   6.123   0.960   4.826 -2.6902 -1.7888  1.6342
 1021TIP3    H224479   6.128   0.857   4.715 -0.0601 -0.5844  0.5990
 1022TIP3   OH224480   1.494   1.359   3.176 -0.1929 -0.2487  0.2810
 1022TIP3    H124481   1.547   1.387   3.250  0.5244 -0.7014 -0.0589
 1022TIP3    H224482   1.485   1.264   3.186 -1.6067 -0.0817  0.7679
 1023TIP3   OH224483   1.875   6.191  15.099  0.6079  0.7195 -0.0532
 1023TIP3    H124484   1.954   6.234  15.069  0.8055 -0.1873 -0.8699
 1023TIP3    H224485   1.853   6.235  15.181  0.4838  2.7203 -1.1299
 1024TIP3   OH224486   3.392   5.964   5.229  0.6760  0.3831 -0.4540
 1024TIP3    H124487   3.336   5.910   5.284  1.3991  0.5001  0.4097
 1024TIP3    H224488   3.446   6.014   5.291  1.9992 -0.0225 -1.2558
 1025TIP3   OH224489   5.583   1.931   5.349 -0.4280  0.5182  0.1763
 1025TIP3    H124490   5.501   1.966   5.313 -1.6262  0.4026  2.6926
 1025TIP3    H224491   5.629   1.894   5.273 -2.3819  1.1777 -1.3729
 1026TIP3   OH224492   5.567   1.516   2.368 -0.8690  0.6525  0.2692
 1026TIP3    H124493   5.511   1.521   2.446 -0.4575 -2.5783  0.8572
 1026TIP3    H224494   5.510   1.478   2.301  0.2468 -1.7502  0.6027
 1027TIP3   OH224495   4.598   4.339   2.264 -0.2312 -0.6653  0.4100
 1027TIP3    H124496   4.682   4.360   2.304 -0.2368  1.3610 -0.5529
 1027TIP3    H224497   4.578   4.416   2.210 -2.1583 -1.6038 -0.2452
 1028TIP3   OH224498   3.171   6.454   4.056 -0.1115  0.0028  0.4087
 1028TIP3    H124499   3.132   6.469   3.970 -0.7920  0.9079  0.8690
 1028TIP3    H224500   3.221   6.373   4.045 -0.0303  0.2084 -0.8911
 1029TIP3   OH224501   4.182   2.043  12.282  0.4850  0.3705  0.3977
 1029TIP3    H124502   4.144   1.978  12.341  1.4021 -0.4575  0.0908
 1029TIP3    H224503   4.109   2.070  12.226  0.4390 -1.6604 -0.5835
 1030TIP3   OH224504   1.414   5.871  14.648 -0.0765  0.1810 -0.0993
 1030TIP3    H124505   1.479   5.897  14.713  0.8408  1.7651 -1.5959
 1030TIP3    H224506   1.369   5.953  14.626  1.4583  0.1851 -3.4056
 1031TIP3   OH224507   0.873   1.372  13.654 -0.4154 -0.4086  0.4360
 1031TIP3    H124508   0.927   1.294  13.644 -0.0775 -0.2431  0.8905
 1031TIP3    H224509   0.913   1.419  13.728 -1.8156 -0.8155  1.4883
 1032TIP3   OH224510   6.283   4.788  17.166  0.3240  0.1145  0.2645
 1032TIP3    H124511   6.370   4.803  17.128  0.7654 -0.3856  1.0684
 1032TIP3    H224512   6.268   4.864  17.222  0.5157 -0.1015  0.6131
 1033TIP3   OH224513   4.614   2.880  12.250 -0.7289  0.3587  0.5483
 1033TIP3    H124514   4.600   2.913  12.162  0.9548 -1.6452 -0.4993
 1033TIP3    H224515   4.684   2.934  12.286  0.3419 -0.4642 -0.2785
 1034TIP3   OH224516   0.764   3.730  16.009 -0.3754  0.1693 -0.9709
 1034TIP3    H124517   0.788   3.645  16.045  0.6832  0.5705 -0.7190
 1034TIP3    H224518   0.695   3.762  16.067 -0.4800 -0.3265 -0.8215
 1035TIP3   OH224519   2.001   5.995  17.186  0.1614  0.3054  0.1473
 1035TIP3    H124520   2.071   6.018  17.125 -0.9668  0.7110 -1.0210
 1035TIP3    H224521   1.994   6.070  17.245 -0.2741  0.9150 -0.6640
 1036TIP3   OH224522   0.615   3.357   1.855 -0.7588 -0.3447  0.0531
 1036TIP3    H124523   0.668   3.415   1.910  1.3413 -1.3844 -0.7948
 1036TIP3    H224524   0.540   3.410   1.830  1.1369  2.0702 -0.7881
 1037TIP3   OH224525   0.710   4.199  16.226  0.6304  0.0540 -0.1632
 1037TIP3    H124526   0.716   4.103  16.224 -2.0492 -0.1463 -1.1211
 1037TIP3    H224527   0.714   4.225  16.134  0.9355  0.8389  0.0655
 1038TIP3   OH224528   2.882   5.032  13.640  0.6885 -0.2179 -0.6802
 1038TIP3    H124529   2.882   5.098  13.572  1.7094 -1.0480 -1.5151
 1038TIP3    H224530   2.949   5.061  13.702 -0.5967  0.8031  0.2615
 1039TIP3   OH224531   5.452   3.484   3.493  0.3443  0.1015 -0.3031
 1039TIP3    H124532   5.416   3.572   3.482 -1.3976 -0.3677  1.3688
 1039TIP3    H224533   5.480   3.481   3.585 -3.0186 -2.2517  0.7501
 1040TIP3   OH224534   0.725   2.296  14.158  0.3932  0.2889  0.4559
 1040TIP3    H124535   0.814   2.300  14.123  0.0231 -0.6319 -0.5872
 1040TIP3    H224536   0.705   2.203  14.162 -0.5285  0.4971  0.7207
 1041TIP3   OH224537   6.506   3.151  16.605  0.3915 -0.8989  0.1146
 1041TIP3    H124538   6.455   3.232  16.596  1.9871  0.0157 -0.8795
 1041TIP3    H224539   6.578   3.174  16.664 -0.7010 -2.3829  2.1010
 1042TIP3   OH224540   0.088   3.384  12.632  0.6368 -0.6253  0.2520
 1042TIP3    H124541   0.106   3.353  12.544  0.1838 -0.7790  0.2114
 1042TIP3    H224542   0.159   3.348  12.685  0.2439 -1.5543  0.1676
 1043TIP3   OH224543   5.871   0.665  16.796  0.2072  0.1491 -0.6533
 1043TIP3    H124544   5.881   0.731  16.864  2.8291  0.1208 -0.9674
 1043TIP3    H224545   5.917   0.588  16.829  2.6698  0.5565 -2.9568
 1044TIP3   OH224546   0.626   6.166  12.174  0.3140 -0.3140  0.5524
 1044TIP3    H124547   0.587   6.105  12.112 -1.1574 -0.5514  1.6860
 1044TIP3    H224548   0.711   6.188  12.136 -0.5525 -0.4653 -1.5215
 1045TIP3   OH224549   1.069   6.427   1.960  0.5689 -0.4388  0.0627
 1045TIP3    H124550   1.046   6.389   2.045 -0.0151 -1.2491 -0.4504
 1045TIP3    H224551   1.128   6.363   1.920 -2.0778 -1.8797 -1.7040
 1046TIP3   OH224552   0.553   4.840   3.074 -0.5147 -0.8335  0.4587
 1046TIP3    H124553   0.534   4.865   3.164 -2.3504 -1.1413  0.1728
 1046TIP3    H224554   0.498   4.898   3.021  0.2953 -0.8837 -0.4514
 1047TIP3   OH224555   5.946   6.730  11.600 -0.2578 -0.1454  0.2885
 1047TIP3    H124556   5.855   6.754  11.618  0.4728  0.5457  3.4504
 1047TIP3    H224557   5.957   6.644  11.641  0.3960 -0.4569 -0.5116
 1048TIP3   OH224558   6.518   4.998  10.898  0.0406 -0.0903 -0.5756
 1048TIP3    H124559   6.571   4.922  10.873 -0.1267 -0.9770  1.6813
 1048TIP3    H224560   6.496   5.040  10.815  0.1337 -2.5031 -1.8664
 1049TIP3   OH224561   6.756   2.877  12.327 -0.5578 -0.5301  0.7045
 1049TIP3    H124562   6.702   2.936  12.380 -0.3392 -0.4516  0.8418
 1049TIP3    H224563   6.693   2.827  12.275 -0.7942 -0.8211  1.2647
 1050TIP3   OH224564   5.999   1.777  13.070 -0.5401 -0.2913  0.4716
 1050TIP3    H124565   6.004   1.826  12.988 -0.1186 -1.5891 -0.2898
 1050TIP3    H224566   6.071   1.811  13.123 -0.4306  0.1207  0.0649
 1051TIP3   OH224567   2.276   5.269  15.480  0.8090  0.3811 -0.0030
 1051TIP3    H124568   2.351   5.223  15.517 -0.8598 -1.9412  0.6850
 1051TIP3    H224569   2.313   5.327  15.414  3.0573 -2.1145 -1.0562
 1052TIP3   OH224570   4.247   6.423   5.643  0.1140 -0.0180  0.0154
 1052TIP3    H124571   4.215   6.513   5.636  1.0462  0.2333 -1.0483
 1052TIP3    H224572   4.325   6.430   5.700  0.8420  0.0220 -0.9744
 1053TIP3   OH224573   2.707   3.493  11.466  0.2017 -0.3146  0.3015
 1053TIP3    H124574   2.792   3.453  11.486  1.1025  1.9438  1.1543
 1053TIP3    H224575   2.671   3.517  11.552 -1.4259 -1.4728 -0.0371
 1054TIP3   OH224576   6.124   3.661   4.701 -0.2120 -0.2966  0.4435
 1054TIP3    H124577   6.150   3.630   4.614 -1.4205  0.2285 -0.1160
 1054TIP3    H224578   6.069   3.591   4.736  0.9916 -0.9008  1.1623
 1055TIP3   OH224579   0.806   5.889   6.124 -0.6553  0.0404 -0.8757
 1055TIP3    H124580   0.738   5.917   6.062 -1.2438 -1.1115 -0.7560
 1055TIP3    H224581   0.889   5.911   6.080 -1.0912  0.9595 -1.2545
 1056TIP3   OH224582   0.925   0.550   0.405 -0.4456  0.1918  0.2805
 1056TIP3    H124583   0.899   0.641   0.419 -0.1939  0.4017 -0.5965
 1056TIP3    H224584   0.971   0.525   0.485 -0.1683  0.9586  0.3578
 1057TIP3   OH224585   5.922   1.039   3.258 -0.4393  0.3610 -0.2108
 1057TIP3    H124586   5.994   1.097   3.281 -0.9210  0.6986  0.4376
 1057TIP3    H224587   5.922   1.038   3.162  1.3187 -0.7447 -0.2145
 1058TIP3   OH224588   1.953   6.195   1.846  0.0039 -0.4094 -0.1600
 1058TIP3    H124589   1.859   6.181   1.861  0.4404 -2.4868  0.8254
 1058TIP3    H224590   1.975   6.133   1.776  0.3066  1.2984 -1.6072
 1059TIP3   OH224591   2.943   0.772   5.478  0.6543 -0.1350 -0.0461
 1059TIP3    H124592   2.990   0.764   5.395  1.1393 -0.9668  0.2976
 1059TIP3    H224593   2.991   0.714   5.537  0.0023  0.0643  0.6725
 1060TIP3   OH224594   0.716   5.695  15.844  0.6898 -0.0518  0.0736
 1060TIP3    H124595   0.723   5.720  15.936 -0.7736  1.0811 -0.1032
 1060TIP3    H224596   0.639   5.638  15.842  0.6467  0.0307 -0.4670
 1061TIP3   OH224597   6.059   5.871   4.640 -0.1966  0.2561 -0.3034
 1061TIP3    H124598   6.085   5.956   4.605 -0.9832  1.3707  1.7270
 1061TIP3    H224599   5.968   5.860   4.612  0.1418 -0.2808 -1.2112
 1062TIP3   OH224600   0.360   6.177  15.311  0.2674  0.9037  0.5966
 1062TIP3    H124601   0.288   6.147  15.367  0.0690  1.7573  0.8100
 1062TIP3    H224602   0.320   6.241  15.252  0.6766  0.7338  0.1302
 1063TIP3   OH224603   3.280   3.117  13.070  0.3428 -0.4650  0.1391
 1063TIP3    H124604   3.322   3.047  13.121  0.7096 -0.1164  0.3196
 1063TIP3    H224605   3.282   3.193  13.128  0.7674 -0.0645 -0.3922
 1064TIP3   OH224606   4.486   1.626   3.127 -0.6055 -0.4125  0.1718
 1064TIP3    H124607   4.560   1.575   3.159  0.1542  0.7030  0.2407
 1064TIP3    H224608   4.521   1.672   3.050 -1.9878 -1.9545 -1.4157
 1065TIP3   OH224609   1.775   6.564   1.838 -0.1830 -0.3562  0.1328
 1065TIP3    H124610   1.803   6.611   1.759  0.4345  1.3327  1.3239
 1065TIP3    H224611   1.684   6.539   1.821 -0.2415  0.5176 -0.8753
 1066TIP3   OH224612   2.339   4.302   5.882 -0.7730  0.1056 -0.5460
 1066TIP3    H124613   2.408   4.236   5.890  0.8471  1.8268  0.2625
 1066TIP3    H224614   2.368   4.373   5.939 -2.2882  1.6774 -1.6807
 1067TIP3   OH224615   2.149   0.322  11.458 -0.6189  0.0193 -0.8376
 1067TIP3    H124616   2.161   0.361  11.545  0.1604 -0.2808 -0.8068
 1067TIP3    H224617   2.160   0.395  11.397 -2.3760  0.4763 -0.6392
 1068TIP3   OH224618   1.357   3.070  16.690 -0.2370  0.4042 -0.6718
 1068TIP3    H124619   1.315   3.147  16.651 -0.2709  0.5748 -0.2926
 1068TIP3    H224620   1.325   2.996  16.638 -0.9854  0.5351 -0.3976
 1069TIP3   OH224621   4.652   2.481  10.517 -0.2810  0.7938 -0.6232
 1069TIP3    H124622   4.672   2.503  10.426  0.8983  0.8610 -0.3642
 1069TIP3    H224623   4.738   2.466  10.557 -0.8435 -0.1574  0.2492
 1070TIP3   OH224624   2.920   0.875   0.177  0.3668 -0.5362 -0.5393
 1070TIP3    H124625   2.853   0.809   0.159  0.2162 -0.1097 -1.5961
 1070TIP3    H224626   2.875   0.941   0.230 -0.7031  0.8818 -3.1428
 1071TIP3   OH224627   5.264   1.439  15.065 -0.2311  0.3749 -0.4310
 1071TIP3    H124628   5.351   1.477  15.055 -0.9768  1.3789 -3.9467
 1071TIP3    H224629   5.221   1.495  15.129  0.7576  1.6531 -0.8609
 1072TIP3   OH224630   3.222   5.117   4.688 -0.2919  0.1372 -0.0670
 1072TIP3    H124631   3.249   5.194   4.739  0.4647  1.1026 -1.8708
 1072TIP3    H224632   3.305   5.079   4.657 -0.7296 -0.5746 -0.3757
 1073TIP3   OH224633   0.778   1.043  14.590  0.4604  0.0353 -0.0656
 1073TIP3    H124634   0.786   1.139  14.590 -0.9830  0.1601 -0.3869
 1073TIP3    H224635   0.708   1.025  14.652 -0.1163 -0.7399 -0.9388
 1074TIP3   OH224636   1.111   4.163   2.088 -0.3000  0.7089  0.1692
 1074TIP3    H124637   1.100   4.240   2.144 -1.6842 -0.0716  0.9903
 1074TIP3    H224638   1.033   4.110   2.103  1.1795 -1.4573  0.5462
 1075TIP3   OH224639   3.720   2.995   3.329 -0.8902 -0.1646 -0.6488
 1075TIP3    H124640   3.697   2.996   3.236 -1.1487  2.2022 -0.5903
 1075TIP3    H224641   3.637   3.007   3.374 -0.5504  0.4389 -0.1750
 1076TIP3   OH224642   4.681   2.828   6.251 -0.6269  0.1209 -0.4594
 1076TIP3    H124643   4.587   2.808   6.249 -0.2031 -1.9769 -0.7035
 1076TIP3    H224644   4.723   2.744   6.271  1.2901  0.6898 -1.9597
 1077TIP3   OH224645   0.011   2.521   5.927 -0.2378 -0.3869 -0.0721
 1077TIP3    H124646   0.085   2.465   5.954  0.8992  0.8993 -0.4927
 1077TIP3    H224647  -0.047   2.462   5.879 -0.7421 -2.0075  2.3883
 1078TIP3   OH224648   6.130   6.479  14.199  0.3318  0.2402  0.3893
 1078TIP3    H124649   6.077   6.550  14.236  0.2657  0.0385  0.6838
 1078TIP3    H224650   6.219   6.501  14.224  0.2451 -0.1041  1.0131
 1079TIP3   OH224651   3.093   5.935   2.600 -0.2068  0.4375 -0.4732
 1079TIP3    H124652   3.020   5.960   2.656 -0.6013 -2.0397  0.1917
 1079TIP3    H224653   3.065   5.962   2.512 -1.7751 -0.1487 -0.1831
 1080TIP3   OH224654   3.777   4.400  13.719 -0.2531 -0.1992  0.1458
 1080TIP3    H124655   3.825   4.372  13.798 -1.5227  0.2154  1.0772
 1080TIP3    H224656   3.793   4.494  13.713 -1.2514  0.0206  0.6985
 1081TIP3   OH224657   3.301   5.285  16.456 -0.3056  0.2720 -0.2943
 1081TIP3    H124658   3.247   5.346  16.505  0.0368  0.8590 -0.6489
 1081TIP3    H224659   3.250   5.204  16.454 -0.0277  0.0114  1.6502
 1082TIP3   OH224660   2.548   0.767   0.615  0.0983 -0.2561 -0.3872
 1082TIP3    H124661   2.579   0.769   0.525 -0.6424 -2.1227 -0.7063
 1082TIP3    H224662   2.513   0.854   0.631 -0.4592 -0.1442 -2.1520
 1083TIP3   OH224663   1.453   5.850   1.275 -0.1989 -0.8609 -0.2937
 1083TIP3    H124664   1.495   5.887   1.197  0.8643  0.2346  0.7617
 1083TIP3    H224665   1.488   5.761   1.281 -1.8714 -1.6749 -2.1999
 1084TIP3   OH224666   3.198   6.548   6.417 -0.3054  0.4255  0.1597
 1084TIP3    H124667   3.148   6.629   6.408 -1.4040 -0.3520 -0.8266
 1084TIP3    H224668   3.268   6.556   6.353 -0.8343  0.2892 -0.4416
 1085TIP3   OH224669   1.616   5.584  15.197 -0.2761 -0.0422  0.3639
 1085TIP3    H124670   1.610   5.558  15.289  0.9162  0.6760  0.6415
 1085TIP3    H224671   1.571   5.668  15.193  0.0695  0.1425  0.3736
 1086TIP3   OH224672   5.182   6.354  13.413  0.2753 -0.3896 -0.4387
 1086TIP3    H124673   5.126   6.431  13.428 -0.3210 -0.7421 -0.8133
 1086TIP3    H224674   5.128   6.280  13.442  1.4384 -0.5455  1.3989
 1087TIP3   OH224675   6.701   1.279   1.590  0.1437 -0.1549 -0.1199
 1087TIP3    H124676   6.714   1.329   1.510 -2.9471  1.9750  0.6076
 1087TIP3    H224677   6.613   1.303   1.618 -1.4642 -5.9362  0.3510
 1088TIP3   OH224678   1.708   2.724   2.751 -0.0771  0.0853  0.4182
 1088TIP3    H124679   1.727   2.815   2.774 -1.1926  0.2378  0.7684
 1088TIP3    H224680   1.786   2.675   2.779  1.0488  1.0914 -0.8693
 1089TIP3   OH224681   4.464   1.083   4.116  0.2039 -0.3945  0.5479
 1089TIP3    H124682   4.530   1.102   4.183  0.5638  1.1203 -0.2372
 1089TIP3    H224683   4.514   1.062   4.038 -0.2362 -0.9658  0.4120
 1090TIP3   OH224684   6.169   6.472  12.335  0.1836 -0.7186 -0.2977
 1090TIP3    H124685   6.189   6.487  12.427 -1.2396 -2.6494  0.3605
 1090TIP3    H224686   6.082   6.509  12.322  0.3049 -0.6094 -0.8135
 1091TIP3   OH224687   1.058   4.259  16.012 -0.5974  0.3661  0.4634
 1091TIP3    H124688   1.017   4.176  15.990 -0.6728  0.2400  1.0628
 1091TIP3    H224689   1.140   4.235  16.054  0.9062  0.6366 -2.2259
 1092TIP3   OH224690   0.751   0.314   1.348  0.1853 -0.6043  0.5037
 1092TIP3    H124691   0.689   0.284   1.415 -1.7998 -0.7894 -1.3844
 1092TIP3    H224692   0.810   0.239   1.335 -0.8218 -1.3887  0.4176
 1093TIP3   OH224693   0.482   2.547   1.058 -0.1006  0.0173 -0.2533
 1093TIP3    H124694   0.498   2.462   1.016 -0.9215 -0.3049  0.0733
 1093TIP3    H224695   0.387   2.548   1.073  0.0578  0.5576  0.6847
 1094TIP3   OH224696   0.036   2.235  10.424  0.3041 -0.2773  0.2122
 1094TIP3    H124697   0.043   2.169  10.493  0.4904 -0.7371 -0.2313
 1094TIP3    H224698   0.124   2.272  10.417  0.2968 -0.2625  0.2003
 1095TIP3   OH224699   5.063   0.361  13.016 -1.1395 -0.6028 -0.2305
 1095TIP3    H124700   4.982   0.312  13.006 -1.5139  0.2395 -1.4853
 1095TIP3    H224701   5.081   0.395  12.928 -0.1811  0.3926  0.3437
 1096TIP3   OH224702   0.910   4.813   4.656  0.1116 -0.2201  0.4676
 1096TIP3    H124703   0.975   4.768   4.711  0.2762  0.2074  0.6312
 1096TIP3    H224704   0.864   4.743   4.611  0.0049 -0.5756  1.1218
 1097TIP3   OH224705   4.962   5.870  14.753 -0.4490  0.1300  0.1689
 1097TIP3    H124706   5.046   5.902  14.720 -0.2053 -1.6807 -1.0952
 1097TIP3    H224707   4.899   5.893  14.684 -0.8652  0.9078  0.8133
 1098TIP3   OH224708   1.441   3.907   0.661  0.1181  0.0410  0.3945
 1098TIP3    H124709   1.470   3.873   0.746 -0.2651  1.9105  1.3113
 1098TIP3    H224710   1.504   3.976   0.640  0.1002 -0.2858 -0.7668
 1099TIP3   OH224711   6.108   3.907  12.265 -0.2077 -1.0551  0.1883
 1099TIP3    H124712   6.040   3.975  12.258  1.4521  0.7583  1.3046
 1099TIP3    H224713   6.137   3.893  12.175 -0.7992 -0.5650 -0.0854
 1100TIP3   OH224714   4.479   3.507   0.009  0.3086 -0.1109  0.2360
 1100TIP3    H124715   4.559   3.542  -0.031 -0.6628  3.1319  0.9459
 1100TIP3    H224716   4.446   3.580   0.063 -3.1190 -1.3793 -0.0476
 1101TIP3   OH224717   5.094   0.655   3.712 -0.5138 -0.1661 -0.7392
 1101TIP3    H124718   5.018   0.598   3.709 -0.8553  0.2174  0.4304
 1101TIP3    H224719   5.060   0.743   3.694 -0.4586  0.0878  0.3151
 1102TIP3   OH224720   5.629   0.241  13.498  0.1773 -0.6174  0.7825
 1102TIP3    H124721   5.596   0.300  13.430 -1.2044 -0.1070  1.8725
 1102TIP3    H224722   5.662   0.165  13.450 -2.0540 -0.8861 -0.4156
 1103TIP3   OH224723   2.428   2.927  12.828 -0.4501  0.0765  0.1887
 1103TIP3    H124724   2.365   2.887  12.767 -1.7975  2.9190 -0.3881
 1103TIP3    H224725   2.397   2.900  12.915 -1.4323 -0.0052 -0.1716
 1104TIP3   OH224726   6.634   2.821  12.712  0.3922  0.1524 -0.2545
 1104TIP3    H124727   6.582   2.796  12.789  1.3809 -1.0983  0.0468
 1104TIP3    H224728   6.649   2.738  12.666  0.4001  0.7972 -1.4162
 1105TIP3   OH224729   1.348   5.999  16.414  0.3022  0.3654  0.4892
 1105TIP3    H124730   1.431   5.953  16.430  1.2992  2.3148  1.0149
 1105TIP3    H224731   1.369   6.091  16.427 -1.9682  0.8799  0.6163
 1106TIP3   OH224732   3.997   1.041   3.173  0.2563  0.2940 -0.1155
 1106TIP3    H124733   3.934   0.970   3.186 -1.4000  1.6167 -0.7672
 1106TIP3    H224734   3.995   1.057   3.079  1.0050  0.8974 -0.0349
 1107TIP3   OH224735   5.897   0.571   1.294 -0.6976 -0.2117  0.0173
 1107TIP3    H124736   5.974   0.518   1.316  0.0254  0.9142  0.2143
 1107TIP3    H224737   5.912   0.599   1.204 -0.4219  0.7982  0.3750
 1108TIP3   OH224738   1.452   5.666   3.042 -0.4570 -0.1625  0.2404
 1108TIP3    H124739   1.380   5.725   3.021 -0.1143 -0.2659 -1.2841
 1108TIP3    H224740   1.510   5.716   3.098  0.2331  1.2350 -1.6750
 1109TIP3   OH224741   5.916   2.770  11.799  0.1644 -0.1664  0.2538
 1109TIP3    H124742   6.002   2.784  11.760  1.1588 -1.6502  1.8700
 1109TIP3    H224743   5.855   2.805  11.734  1.8929 -0.5323 -1.6253
 1110TIP3   OH224744   3.888   1.788  12.340 -0.1747  0.4719  0.5245
 1110TIP3    H124745   3.810   1.833  12.307  0.4795  1.3322  0.1371
 1110TIP3    H224746   3.863   1.696  12.341 -1.1758  0.7315  0.3281
 1111TIP3   OH224747   3.246   4.116   0.658 -0.2405 -0.2121 -0.6771
 1111TIP3    H124748   3.201   4.185   0.707 -4.3091 -0.2631 -4.0178
 1111TIP3    H224749   3.300   4.163   0.594 -0.9826 -0.0831 -1.2205
 1112TIP3   OH224750   3.215   2.197  15.067  0.0075  0.3464 -0.2660
 1112TIP3    H124751   3.146   2.205  15.134  0.8644 -0.2332  0.6889
 1112TIP3    H224752   3.173   2.229  14.987 -1.5040 -0.3503  0.2195
 1113TIP3   OH224753   4.472   1.331   3.317  0.4170  0.3025 -0.0950
 1113TIP3    H124754   4.498   1.297   3.403  0.7448 -0.7683 -0.6038
 1113TIP3    H224755   4.427   1.413   3.336 -0.4495 -0.4511  1.1763
 1114TIP3   OH224756   0.677   6.460  15.621 -0.1823  0.3604  0.6866
 1114TIP3    H124757   0.745   6.467  15.687  1.3370  0.9451 -0.9066
 1114TIP3    H224758   0.655   6.551  15.600 -0.1239  0.1813 -0.1545
 1115TIP3   OH224759   5.421   4.091   4.341  0.1676  0.4559  0.2695
 1115TIP3    H124760   5.392   4.011   4.385  0.4791 -0.2632 -0.7968
 1115TIP3    H224761   5.413   4.160   4.407  1.4113 -0.7322  1.6786
 1116TIP3   OH224762   0.823   6.467   2.876  0.4258  0.1697 -0.5048
 1116TIP3    H124763   0.807   6.374   2.860 -0.5212  0.3252 -0.4717
 1116TIP3    H224764   0.786   6.483   2.963  0.0024  0.7316 -0.7904
 1117TIP3   OH224765   2.275   2.694   6.097  0.1631  0.1576  0.4924
 1117TIP3    H124766   2.194   2.646   6.081  0.3334 -0.0660  0.2815
 1117TIP3    H224767   2.296   2.676   6.188 -0.0166  0.2006  0.5420
 1118TIP3   OH224768   6.435   1.673   5.688 -0.2079 -0.3287 -0.5148
 1118TIP3    H124769   6.387   1.725   5.752  2.2719  1.5203 -0.0795
 1118TIP3    H224770   6.454   1.591   5.733 -0.1268  0.2148  0.4591
 1119TIP3   OH224771   3.538   5.228  11.160 -0.1045 -0.3312 -0.5154
 1119TIP3    H124772   3.443   5.235  11.169 -0.3345 -2.2274 -1.2503
 1119TIP3    H224773   3.555   5.134  11.158  2.0024 -0.0500  1.7246
 1120TIP3   OH224774   3.251   4.194  16.105  0.2667 -0.3327  0.3612
 1120TIP3    H124775   3.237   4.278  16.149  1.0889  0.9432 -1.7812
 1120TIP3    H224776   3.167   4.175  16.063  0.8164  0.6576 -1.2167
 1121TIP3   OH224777   0.932   0.488  13.304 -0.3979 -0.0022 -0.0395
 1121TIP3    H124778   0.908   0.396  13.291 -0.0559 -0.1136  0.1107
 1121TIP3    H224779   0.986   0.510  13.228 -0.7999  0.1903 -0.2736
 1122TIP3   OH224780   6.314   0.683   2.442 -0.3025 -0.1654 -0.5948
 1122TIP3    H124781   6.369   0.701   2.365  0.1991 -2.1811 -0.7258
 1122TIP3    H224782   6.335   0.754   2.503  0.8985  0.2567 -1.4690
 1123TIP3   OH224783   3.139   4.349  13.786 -0.3234 -0.5126 -0.2632
 1123TIP3    H124784   3.197   4.374  13.857 -1.2099  0.5237  0.1012
 1123TIP3    H224785   3.104   4.264  13.812 -2.1400  0.7150  1.4877
 1124TIP3   OH224786   1.457   0.370   5.023  1.0911 -0.0497 -0.1350
 1124TIP3    H124787   1.365   0.388   5.001  0.2668 -0.7284  2.5319
 1124TIP3    H224788   1.495   0.338   4.941 -1.3394 -0.8445 -1.0193
 1125TIP3   OH224789   0.562   2.099   2.644 -0.0068 -0.5717  0.0410
 1125TIP3    H124790   0.655   2.102   2.619 -0.0727 -2.5295 -0.5337
 1125TIP3    H224791   0.516   2.084   2.562 -0.8158  0.1859  0.3583
 1126TIP3   OH224792   0.986   2.961  16.235 -0.3479 -0.3362  0.2565
 1126TIP3    H124793   0.912   2.911  16.201  0.1005 -2.3728  2.1412
 1126TIP3    H224794   1.045   2.895  16.272  0.5479  1.5359  2.2995
 1127TIP3   OH224795   6.786   0.726  16.620  0.1896 -0.0565  0.2841
 1127TIP3    H124796   6.742   0.657  16.670 -0.6550  0.6603  0.5370
 1127TIP3    H224797   6.714   0.777  16.582  0.8019  1.0576  0.6168
 1128TIP3   OH224798   0.744   0.920  13.068 -0.6467 -0.1128 -0.1681
 1128TIP3    H124799   0.742   0.937  12.974 -1.9909 -1.3364 -0.3810
 1128TIP3    H224800   0.722   0.827  13.075 -0.1439 -0.1171  1.3295
 1129TIP3   OH224801   4.483   4.923   1.942 -0.0862 -0.1124  0.2420
 1129TIP3    H124802   4.474   5.016   1.923  2.5254 -0.2560 -1.9648
 1129TIP3    H224803   4.557   4.918   2.002  0.5835 -0.8738 -0.6440
 1130TIP3   OH224804   3.616   3.233   2.641  0.0714  0.5911  0.1471
 1130TIP3    H124805   3.539   3.276   2.604 -0.1237 -0.4257 -0.6577
 1130TIP3    H224806   3.670   3.304   2.675 -1.3193  1.2981  0.8994
 1131TIP3   OH224807   0.443   3.897   0.969  0.6653 -0.0264 -0.3790
 1131TIP3    H124808   0.510   3.865   0.908  0.3297 -2.7371  0.5783
 1131TIP3    H224809   0.406   3.974   0.926  2.5023 -0.1119 -2.1964
 1132TIP3   OH224810   4.080   4.642  12.777 -0.1298 -0.4685  0.2088
 1132TIP3    H124811   4.147   4.650  12.844 -1.8589  1.5955  1.7456
 1132TIP3    H224812   4.009   4.592  12.819 -0.6935 -0.2920 -0.5144
 1133TIP3   OH224813   5.757   5.568   4.745  0.4483  0.5948  0.3573
 1133TIP3    H124814   5.849   5.540   4.746  0.2685  0.0148  0.7521
 1133TIP3    H224815   5.735   5.583   4.837 -0.7664 -2.3150  0.5994
 1134TIP3   OH224816   6.698   6.528   5.489 -0.3254 -0.3085 -0.4007
 1134TIP3    H124817   6.755   6.472   5.542  0.7012  1.4078  0.3255
 1134TIP3    H224818   6.722   6.507   5.398  1.4031  0.3138 -0.1032
 1135TIP3   OH224819   0.965   3.049  15.531 -0.0342 -0.1487  0.1892
 1135TIP3    H124820   0.976   3.142  15.547 -0.4624 -0.6873  4.0864
 1135TIP3    H224821   0.878   3.028  15.566  0.5628 -2.2162  0.5437
 1136TIP3   OH224822   1.522   1.695  11.221  0.2074  0.5289  0.2417
 1136TIP3    H124823   1.610   1.695  11.183  0.0943  1.9516 -0.0644
 1136TIP3    H224824   1.492   1.785  11.210 -0.9543  0.2576  1.1220
 1137TIP3   OH224825   1.435   0.961   2.578  0.2116 -1.3905  0.2009
 1137TIP3    H124826   1.512   0.922   2.618 -1.1064 -2.4987  1.7384
 1137TIP3    H224827   1.398   1.017   2.646 -0.3478 -0.8611 -0.5220
 1138TIP3   OH224828   4.451   1.898  14.289  0.1031 -0.1640 -0.0063
 1138TIP3    H124829   4.409   1.817  14.319  0.6981 -0.3038  0.4666
 1138TIP3    H224830   4.538   1.870  14.262 -0.6227 -0.1343 -2.4316
 1139TIP3   OH224831   5.105   6.423  16.500  0.8005 -0.3740 -0.5135
 1139TIP3    H124832   5.063   6.432  16.414  1.8698  0.9567 -0.9072
 1139TIP3    H224833   5.101   6.511  16.538  0.9026 -0.8146  0.5452
 1140TIP3   OH224834   3.236   2.266  15.357 -0.2612  0.4076  0.2598
 1140TIP3    H124835   3.193   2.328  15.415  0.3256 -1.1924  2.4838
 1140TIP3    H224836   3.318   2.309  15.333 -0.0219  0.6633  1.4825
 1141TIP3   OH224837   4.353   4.977   2.672 -0.1170  0.1666 -0.1272
 1141TIP3    H124838   4.334   5.039   2.742 -0.6680 -0.4606  0.2828
 1141TIP3    H224839   4.374   5.032   2.596 -0.8813  0.8524  0.1555
 1142TIP3   OH224840   4.398   2.081  11.125 -0.8656  0.2032  0.0286
 1142TIP3    H124841   4.383   2.065  11.218 -2.8891  1.9541  0.0336
 1142TIP3    H224842   4.469   2.146  11.123 -0.1394 -0.5727  0.3009
 1143TIP3   OH224843   6.103   5.373  14.775 -0.0593  0.1095 -0.9063
 1143TIP3    H124844   6.076   5.305  14.837 -0.9797  2.7861  1.7408
 1143TIP3    H224845   6.175   5.418  14.819  0.5585  0.8610 -2.6523
 1144TIP3   OH224846   3.835   1.217  13.051 -0.3959 -0.0900 -0.6401
 1144TIP3    H124847   3.878   1.303  13.055 -0.5958  0.0847 -2.0026
 1144TIP3    H224848   3.902   1.155  13.080  1.3557 -0.0094 -4.1664
 1145TIP3   OH224849   5.378   1.814  13.400  0.2234  0.2351 -0.2665
 1145TIP3    H124850   5.372   1.796  13.306  1.2062  0.5149 -0.3869
 1145TIP3    H224851   5.424   1.737  13.436 -2.8389 -1.3375  0.4609
 1146TIP3   OH224852   0.985   6.144   0.953 -0.2294 -0.2473  0.2988
 1146TIP3    H124853   1.029   6.113   1.032  0.2779 -0.6264 -0.1289
 1146TIP3    H224854   1.002   6.075   0.888  2.2799  1.6786 -1.1590
 1147TIP3   OH224855   6.086   3.770  14.960 -0.0959  0.0818  0.0399
 1147TIP3    H124856   6.069   3.729  14.875  1.8083  0.9720 -0.7969
 1147TIP3    H224857   6.164   3.726  14.993  0.8873  1.7250 -0.0301
 1148TIP3   OH224858   5.038   0.515   4.657  0.5941  0.2162  0.4111
 1148TIP3    H124859   5.127   0.519   4.622 -0.0445  0.2123 -1.2462
 1148TIP3    H224860   5.018   0.422   4.661  1.4503  0.0824  2.9122
 1149TIP3   OH224861   5.781   3.812  12.086  0.1315  0.4631 -0.6424
 1149TIP3    H124862   5.721   3.885  12.097  0.9601  1.2870 -1.5574
 1149TIP3    H224863   5.795   3.780  12.175 -2.3193 -0.3038 -0.4883
 1150TIP3   OH224864   6.121   5.834  15.410  0.6683 -0.5443  0.0992
 1150TIP3    H124865   6.096   5.926  15.403  0.6567 -0.5587 -0.0418
 1150TIP3    H224866   6.058   5.797  15.473  1.9507  0.0058  1.7247
 1151TIP3   OH224867   4.536   0.008  10.853 -0.3749 -0.4187 -0.4274
 1151TIP3    H124868   4.478  -0.067  10.867 -0.2861 -0.1571  1.4417
 1151TIP3    H224869   4.480   0.074  10.812 -0.9711 -0.7865 -0.2128
 1152TIP3   OH224870   0.347   0.436  13.586  0.4073 -0.3680 -0.1159
 1152TIP3    H124871   0.379   0.391  13.664 -0.6727 -1.0699 -0.0786
 1152TIP3    H224872   0.287   0.374  13.544 -1.4224  1.1667  0.1544
 1153TIP3   OH224873   0.224   4.021   5.096  0.0280  0.7017 -0.2917
 1153TIP3    H124874   0.213   3.988   5.007 -1.1899 -0.1982  0.1698
 1153TIP3    H224875   0.310   4.063   5.096 -0.5608  1.9574 -2.2625
 1154TIP3   OH224876   6.371   1.245   0.518 -0.5460  0.1464  1.0691
 1154TIP3    H124877   6.452   1.281   0.553  0.3473 -0.8939  0.0926
 1154TIP3    H224878   6.323   1.322   0.486  0.6195  0.6318  0.4732
 1155TIP3   OH224879   1.383   6.756  15.295 -0.2164 -0.2605  0.8009
 1155TIP3    H124880   1.444   6.830  15.286 -0.8313  0.2954  1.1432
 1155TIP3    H224881   1.439   6.682  15.318  0.2466  0.4559  2.0747
 1156TIP3   OH224882   0.317   1.771   5.129 -0.7184 -0.1715  0.1976
 1156TIP3    H124883   0.229   1.810   5.127 -0.9423 -0.5257  2.2497
 1156TIP3    H224884   0.375   1.841   5.097 -1.5301  0.6452  0.4998
 1157TIP3   OH224885   6.385   1.469  13.582  0.8475  0.4340 -0.1174
 1157TIP3    H124886   6.322   1.417  13.532  1.5635 -0.5054 -0.0409
 1157TIP3    H224887   6.333   1.541  13.618 -0.0981 -0.0913 -0.4222
 1158TIP3   OH224888   2.513   4.762   5.502 -0.5507  0.4362 -0.1674
 1158TIP3    H124889   2.585   4.699   5.494 -0.3854  0.5320  0.4761
 1158TIP3    H224890   2.533   4.830   5.438 -0.4980  0.0511 -0.5589
 1159TIP3   OH224891   2.348   1.910   2.355  0.6893 -0.5428  0.3738
 1159TIP3    H124892   2.293   1.869   2.422 -0.0955  1.2166  0.8284
 1159TIP3    H224893   2.398   1.837   2.318 -0.3411 -1.8452  1.4698
 1160TIP3   OH224894   6.717   6.350  14.286 -0.1211 -0.2333  0.3278
 1160TIP3    H124895   6.655   6.286  14.250  0.4223 -0.5117 -0.1170
 1160TIP3    H224896   6.733   6.319  14.375  1.6528 -1.8450 -0.5204
 1161TIP3   OH224897   4.336   5.600   1.091 -0.2765  0.1897  0.5271
 1161TIP3    H124898   4.257   5.620   1.041 -1.8128 -1.6265  2.1067
 1161TIP3    H224899   4.306   5.540   1.159  2.7480 -1.6863  0.2991
 1162TIP3   OH224900   1.946   4.643   1.297 -0.1241  0.2907 -0.4028
 1162TIP3    H124901   2.030   4.640   1.343 -0.1954  1.3093 -0.2108
 1162TIP3    H224902   1.969   4.665   1.207  0.0033 -1.5810 -0.8551
 1163TIP3   OH224903   4.268   0.344  13.674 -0.0302  0.2438 -0.4196
 1163TIP3    H124904   4.295   0.332  13.583  1.1381  1.8853 -0.3161
 1163TIP3    H224905   4.180   0.306  13.678  0.7174 -1.6912 -1.7086
 1164TIP3   OH224906   6.628   6.000  16.582  0.3949  0.2129 -0.0556
 1164TIP3    H124907   6.692   5.985  16.513  0.6144  0.7557  0.0172
 1164TIP3    H224908   6.623   5.917  16.630  1.1341  0.2021  0.0119
 1165TIP3   OH224909   1.578   2.392   2.337  0.4403  0.2332 -0.5510
 1165TIP3    H124910   1.629   2.442   2.401 -1.1524  1.0941  0.0981
 1165TIP3    H224911   1.492   2.382   2.379  1.1924 -4.5665  0.1170
 1166TIP3   OH224912   1.454   4.370  13.539  0.9353  0.2075  0.0445
 1166TIP3    H124913   1.522   4.387  13.474 -0.2840  0.6103 -1.1456
 1166TIP3    H224914   1.447   4.275  13.542  1.3252  0.1743 -0.0583
 1167TIP3   OH224915   0.863   1.356  15.472 -0.1293 -1.0847  0.4221
 1167TIP3    H124916   0.934   1.367  15.409 -0.1335 -1.5060  0.3404
 1167TIP3    H224917   0.791   1.318  15.421 -0.6771  0.0350  0.3370
 1168TIP3   OH224918   5.317   1.754   5.077  0.2252  0.3803  0.0657
 1168TIP3    H124919   5.351   1.678   5.030  0.3256  0.0394  0.6860
 1168TIP3    H224920   5.223   1.739   5.083 -0.0203  1.2078 -1.4407
 1169TIP3   OH224921   3.445   6.519  14.388 -0.0408 -0.0228  0.0380
 1169TIP3    H124922   3.421   6.431  14.417  0.3349 -0.3380 -0.5755
 1169TIP3    H224923   3.380   6.577  14.429 -1.5880 -0.8057 -1.2302
 1170TIP3   OH224924   1.983   1.655  17.056  0.1990 -0.0865  0.5530
 1170TIP3    H124925   1.919   1.717  17.019 -0.1234  0.2989  1.6948
 1170TIP3    H224926   1.933   1.574  17.067 -0.8248  0.8680  3.6118
 1171TIP3   OH224927   0.761   4.884   4.902  0.1084 -0.1007 -0.5824
 1171TIP3    H124928   0.769   4.799   4.946 -1.8046 -0.5989 -1.1390
 1171TIP3    H224929   0.843   4.894   4.854  0.9660 -0.9438  0.6666
 1172TIP3   OH224930   1.894   4.437   3.087 -0.0488  0.4658  0.6342
 1172TIP3    H124931   1.801   4.462   3.083  0.4833  2.9168  2.1865
 1172TIP3    H224932   1.926   4.450   2.998 -0.4139  3.0563  0.8345
 1173TIP3   OH224933   2.706   3.201  11.323  0.2963  0.2589 -0.2323
 1173TIP3    H124934   2.645   3.263  11.283  2.1983  2.5935  0.3550
 1173TIP3    H224935   2.676   3.194  11.414  0.7966  1.3158  0.0259
 1174TIP3   OH224936   4.365   5.316   5.046 -1.1895  0.1797  0.2701
 1174TIP3    H124937   4.384   5.269   5.128 -0.5613  0.3667  0.2267
 1174TIP3    H224938   4.450   5.345   5.014 -1.2417 -1.4290 -1.3885
 1175TIP3   OH224939   2.473   4.104  11.012 -0.2416 -0.0640 -0.1235
 1175TIP3    H124940   2.433   4.121  10.927 -1.5221 -2.2875 -0.0161
 1175TIP3    H224941   2.523   4.183  11.032 -0.9871  0.9974 -2.3304
 1176TIP3   OH224942   2.006   3.667  11.690  0.1319 -0.2737  0.0749
 1176TIP3    H124943   1.978   3.631  11.605 -1.4944  1.4129 -0.1312
 1176TIP3    H224944   1.924   3.696  11.731  1.1980  1.3755  1.0689
 1177TIP3   OH224945   1.136   1.732   1.211 -0.2531 -0.2089  0.2814
 1177TIP3    H124946   1.213   1.682   1.185 -0.5910 -0.5918  0.0267
 1177TIP3    H224947   1.146   1.743   1.306  0.1645 -0.1755  0.2339
 1178TIP3   OH224948   3.324   0.808  13.355  0.0930 -0.5270  0.0455
 1178TIP3    H124949   3.312   0.831  13.447  0.6825  0.7740 -0.1928
 1178TIP3    H224950   3.418   0.816  13.340  0.1433 -1.7619 -0.4194
 1179TIP3   OH224951   0.972   4.664   3.373  0.5656  0.3922 -0.0246
 1179TIP3    H124952   0.996   4.710   3.454  2.2429 -1.0216  0.3306
 1179TIP3    H224953   0.877   4.657   3.377  0.5337  1.2904  1.3087
 1180TIP3   OH224954   1.504   0.538   6.254 -0.0621  0.2706 -1.1088
 1180TIP3    H124955   1.505   0.462   6.196 -1.1966 -0.2465 -0.4611
 1180TIP3    H224956   1.471   0.609   6.199 -0.5602 -0.0831 -1.2780
 1181TIP3   OH224957   0.318   0.717  12.105  0.7501  0.3087 -0.0531
 1181TIP3    H124958   0.254   0.771  12.059  1.2478  1.3473  0.4730
 1181TIP3    H224959   0.328   0.758  12.191 -0.2614 -1.6933  1.0451
 1182TIP3   OH224960   6.186   5.476  12.036  0.0186 -0.5695 -0.4294
 1182TIP3    H124961   6.175   5.402  11.976 -0.9956 -0.6543 -0.1633
 1182TIP3    H224962   6.152   5.551  11.987 -0.6005 -0.5997 -0.0581
 1183TIP3   OH224963   6.762   1.414   3.439 -0.5853  1.0148  0.1688
 1183TIP3    H124964   6.780   1.349   3.507  1.3680 -0.3843 -1.5967
 1183TIP3    H224965   6.791   1.497   3.477 -3.1654  0.9284  2.4828
 1184TIP3   OH224966   4.689   1.795   2.145 -0.7863  0.6269 -0.4204
 1184TIP3    H124967   4.750   1.760   2.081  0.1833 -0.5426  1.1010
 1184TIP3    H224968   4.627   1.847   2.094  1.9553  2.5481 -1.9119
 1185TIP3   OH224969   0.317   2.082   1.510 -0.5533  0.3429 -0.4960
 1185TIP3    H124970   0.377   2.153   1.486  0.0951 -0.4041 -1.1035
 1185TIP3    H224971   0.368   2.026   1.569 -0.9064  0.1173 -0.4060
 1186TIP3   OH224972   4.266   0.732   3.419  0.3542  0.0025  0.3940
 1186TIP3    H124973   4.257   0.814   3.371  0.4795  0.0729  0.4913
 1186TIP3    H224974   4.188   0.681   3.394  0.0590  0.3217  0.6614
 1187TIP3   OH224975   5.169   3.558   1.108  0.5132  0.4186  0.5228
 1187TIP3    H124976   5.201   3.470   1.126  1.1653  0.5875  0.2182
 1187TIP3    H224977   5.200   3.577   1.019 -2.7993 -0.4712 -0.8909
 1188TIP3   OH224978   0.835   4.128   3.778  0.1580 -0.5735  0.4180
 1188TIP3    H124979   0.851   4.133   3.873 -1.6780  1.9592  0.6482
 1188TIP3    H224980   0.898   4.189   3.740  0.8927 -1.5880 -0.0003
 1189TIP3   OH224981   6.281   3.475   2.198 -0.4035  0.2195 -0.2729
 1189TIP3    H124982   6.242   3.497   2.283 -0.3533  0.8135 -0.3968
 1189TIP3    H224983   6.368   3.441   2.219  0.1664  1.6970 -0.1584
 1190TIP3   OH224984   3.112   5.303   1.163  0.2660 -0.0402 -0.1368
 1190TIP3    H124985   3.184   5.269   1.215  0.1463 -0.2996 -0.1372
 1190TIP3    H224986   3.113   5.250   1.083  0.6577  0.5804 -0.5432
 1191TIP3   OH224987   0.195   4.652  12.779 -0.1061  0.6454  0.6607
 1191TIP3    H124988   0.255   4.578  12.787  0.4255  0.8882 -0.9437
 1191TIP3    H224989   0.142   4.648  12.859  0.7065 -0.7514  1.1526
 1192TIP3   OH224990   1.281   2.421   2.722  0.0410 -0.2410 -0.0332
 1192TIP3    H124991   1.340   2.496   2.729  0.1726 -0.3979  0.5001
 1192TIP3    H224992   1.205   2.445   2.774 -0.7654  0.3423 -1.4504
 1193TIP3   OH224993   1.028   1.833   2.768 -0.1154  0.3746 -0.2579
 1193TIP3    H124994   1.076   1.751   2.780 -2.0308 -0.9089 -1.1213
 1193TIP3    H224995   0.977   1.844   2.849 -0.0962  0.5567 -0.2693
 1194TIP3   OH224996   5.707   3.810   2.070 -0.2981 -0.5872  0.4724
 1194TIP3    H124997   5.635   3.840   2.126 -1.3516 -0.3211 -0.9956
 1194TIP3    H224998   5.738   3.890   2.028 -1.6435 -1.2169 -1.7657
 1195TIP3   OH224999   0.061   0.212   0.059 -0.4017  0.3709  0.5507
 1195TIP3    H125000   0.084   0.160   0.136  0.0676  0.8619  0.7522
 1195TIP3    H225001  -0.030   0.238   0.074 -0.4126  0.1996  0.7866
 1196TIP3   OH225002   4.948   1.988   3.744 -0.3425  0.5720  0.9576
 1196TIP3    H125003   4.925   2.024   3.830  1.2019 -1.3288  2.2332
 1196TIP3    H225004   4.882   1.920   3.728 -1.4781  1.8864 -0.0534
 1197TIP3   OH225005   1.221   1.934   2.581 -0.3398  0.4852  0.2075
 1197TIP3    H125006   1.150   1.908   2.640 -0.5463  1.3063  0.3289
 1197TIP3    H225007   1.178   1.983   2.511 -0.0176  0.0733 -0.2820
 1198TIP3   OH225008   6.470   2.270   2.400 -0.0888  0.2473  0.4511
 1198TIP3    H125009   6.457   2.215   2.322  0.7735  0.7062 -0.0268
 1198TIP3    H225010   6.421   2.226   2.469 -0.1274 -0.6508 -0.1398
 1199TIP3   OH225011   6.374   1.959   3.284 -0.1002 -0.0717 -0.2265
 1199TIP3    H125012   6.450   1.965   3.227 -0.3573 -0.6549 -0.6445
 1199TIP3    H225013   6.336   2.046   3.284  1.5490  0.6831  1.3702
 1200TIP3   OH225014   5.549   0.342   6.124 -0.7937 -0.5263 -0.0533
 1200TIP3    H125015   5.573   0.260   6.168 -0.0906 -0.2086  0.1554
 1200TIP3    H225016   5.487   0.315   6.056 -0.6290 -1.2211  0.0675
 1201TIP3   OH225017   1.061   6.531   0.410  0.0116  0.3087 -0.1232
 1201TIP3    H125018   1.033   6.622   0.420 -0.1677  0.5665 -2.5739
 1201TIP3    H225019   1.000   6.494   0.346  2.9895 -0.1422 -2.8712
 1202TIP3   OH225020   6.370   3.737   4.879 -0.1376 -0.0368  0.1051
 1202TIP3    H125021   6.454   3.777   4.854 -0.0454 -0.4360 -0.2284
 1202TIP3    H225022   6.353   3.673   4.810 -2.5044  2.5586 -1.8596
 1203TIP3   OH225023   6.603   1.509   4.695 -0.2095  0.2834 -0.0641
 1203TIP3    H125024   6.533   1.537   4.755  0.4044  3.5028 -0.7464
 1203TIP3    H225025   6.572   1.426   4.660 -2.3831  0.2420  1.7990
 1204TIP3   OH225026   1.488   1.915   1.016 -0.0546 -0.0542  0.2695
 1204TIP3    H125027   1.501   2.000   0.974  1.3240 -1.1979 -1.7034
 1204TIP3    H225028   1.401   1.921   1.055 -0.8781  1.4862 -1.7233
 1205TIP3   OH225029   4.037   4.122   5.922 -0.0546  0.5218 -0.2541
 1205TIP3    H125030   4.044   4.036   5.881  1.0240  0.0578  0.8897
 1205TIP3    H225031   3.989   4.175   5.858 -0.9253 -0.9786 -0.8715
 1206TIP3   OH225032   1.193   1.013  16.213 -0.4183 -0.1462  0.3101
 1206TIP3    H125033   1.271   0.978  16.169 -0.5146 -0.9706  0.7775
 1206TIP3    H225034   1.215   1.013  16.306 -0.5180  0.8073  0.3328
 1207TIP3   OH225035   1.271   2.780  12.842  0.3418 -0.0218 -0.0259
 1207TIP3    H125036   1.205   2.713  12.824 -1.4054  1.8838 -0.8891
 1207TIP3    H225037   1.244   2.817  12.926  1.0332 -0.0903  0.2238
 1208TIP3   OH225038   2.894   4.878  12.323 -0.0445 -0.0332  0.1650
 1208TIP3    H125039   2.823   4.816  12.339  1.0050 -0.6494  2.8032
 1208TIP3    H225040   2.870   4.956  12.373 -0.5001  1.0787 -1.7290
 1209TIP3   OH225041   5.850   3.538   3.688  0.0107 -0.4125 -0.0274
 1209TIP3    H125042   5.822   3.589   3.612  1.9138  1.7423  0.6729
 1209TIP3    H225043   5.783   3.553   3.754 -0.2269 -0.0609 -0.3478
 1210TIP3   OH225044   2.908   4.737   1.266 -0.0308  0.5824  0.2971
 1210TIP3    H125045   2.947   4.769   1.347  0.5423  0.9130 -0.1094
 1210TIP3    H225046   2.851   4.807   1.237 -1.1794 -0.0255  1.0562
 1211TIP3   OH225047   3.226   0.449  16.214 -0.0535 -0.3917  0.8095
 1211TIP3    H125048   3.275   0.407  16.284 -2.1530 -1.1485  1.8906
 1211TIP3    H225049   3.183   0.377  16.168 -0.0721  0.2375 -0.1811
 1212TIP3   OH225050   1.378   0.801   4.286  0.5931 -0.2573  0.3329
 1212TIP3    H125051   1.452   0.773   4.339  0.9671 -1.3295 -0.7421
 1212TIP3    H225052   1.408   0.880   4.242  0.1682  0.8391  1.9380
 1213TIP3   OH225053   0.811   6.032  14.780  0.7543 -0.2534  0.2512
 1213TIP3    H125054   0.901   6.009  14.803  1.0446 -0.5090 -1.0819
 1213TIP3    H225055   0.756   5.974  14.833  1.2875  1.6390  2.9918
 1214TIP3   OH225056   0.312   0.041   1.631 -0.0688  0.0227  0.0748
 1214TIP3    H125057   0.376  -0.030   1.620 -1.3959 -1.3911  1.2246
 1214TIP3    H225058   0.356   0.104   1.688  0.9410 -0.0960 -0.5518
 1215TIP3   OH225059   5.947   5.251   1.325  0.0562 -0.1513  0.1290
 1215TIP3    H125060   5.870   5.251   1.382 -1.7045  0.5658 -2.1705
 1215TIP3    H225061   6.017   5.285   1.380 -1.3446 -0.4821  2.1767
 1216TIP3   OH225062   0.485   5.339   2.219  0.9407  0.2646 -0.1149
 1216TIP3    H125063   0.419   5.294   2.165  2.5716 -0.2398 -1.7527
 1216TIP3    H225064   0.448   5.340   2.307  0.0298 -2.6078 -0.4274
 1217TIP3   OH225065   2.343   1.902   3.051 -0.1277  0.3786  0.0622
 1217TIP3    H125066   2.381   1.814   3.046  0.3156  0.5647  0.1091
 1217TIP3    H225067   2.397   1.947   3.116 -1.2302  0.2476  1.0813
 1218TIP3   OH225068   2.115   4.633   4.110 -0.0785  0.0621 -0.0671
 1218TIP3    H125069   2.122   4.588   4.026 -0.2523  0.9624 -0.5666
 1218TIP3    H225070   2.069   4.571   4.167 -2.7387  0.6246 -1.5124
 1219TIP3   OH225071   2.941   1.058   5.531 -0.6340 -0.5908 -0.0664
 1219TIP3    H125072   2.948   1.053   5.627 -0.6652 -2.3564 -0.1451
 1219TIP3    H225073   2.966   0.971   5.501 -1.7968 -0.4020 -1.6048
 1220TIP3   OH225074   4.655   3.932  14.928 -0.9034  0.2025 -0.3804
 1220TIP3    H125075   4.605   3.914  14.848 -1.4416  1.1498 -0.2489
 1220TIP3    H225076   4.596   3.908  14.999 -1.4638  2.0549 -0.2101
 1221TIP3   OH225077   1.600   3.775  16.257  0.0583  0.0675 -0.1981
 1221TIP3    H125078   1.616   3.755  16.349  0.5562  0.1722 -0.2587
 1221TIP3    H225079   1.509   3.806  16.254  0.4283  1.2538  0.4504
 1222TIP3   OH225080   0.034   3.438  15.357 -0.0937  0.2906 -0.6595
 1222TIP3    H125081  -0.050   3.453  15.315 -0.0089 -0.1853 -1.0060
 1222TIP3    H225082   0.081   3.521  15.347 -0.9155  0.9019  0.4722
 1223TIP3   OH225083   3.695   5.605   4.153  0.2849  0.2025  0.3863
 1223TIP3    H125084   3.727   5.696   4.149  0.0323  0.3347  1.2186
 1223TIP3    H225085   3.709   5.571   4.065  2.4516  0.3567  0.6521
 1224TIP3   OH225086   2.308   2.387   4.318  0.0639  0.3027 -0.0343
 1224TIP3    H125087   2.360   2.308   4.329  0.2634  0.0620 -2.3237
 1224TIP3    H225088   2.282   2.412   4.406  1.4769 -1.3166  0.8651
 1225TIP3   OH225089   1.520   4.151  15.798 -0.2587 -0.1945 -0.1459
 1225TIP3    H125090   1.550   4.220  15.856  0.9081  0.3962 -1.4144
 1225TIP3    H225091   1.468   4.196  15.731 -2.0649 -0.9359  0.7486
 1226TIP3   OH225092   0.643   5.799   5.055 -0.8277  0.0104 -0.3984
 1226TIP3    H125093   0.616   5.760   4.972 -1.9957  2.1281 -1.0643
 1226TIP3    H225094   0.583   5.873   5.067  0.7823  1.0922  1.2056
 1227TIP3   OH225095   0.904   6.104   4.544  0.3912 -0.4054 -0.0004
 1227TIP3    H125096   0.870   6.132   4.629 -0.8143  0.4046 -0.7368
 1227TIP3    H225097   0.901   6.009   4.547  0.1237 -0.3764  0.7845
 1228TIP3   OH225098   1.846   5.649   3.363 -0.0376  0.1343 -0.2608
 1228TIP3    H125099   1.875   5.706   3.292  0.7040 -0.5128 -0.4772
 1228TIP3    H225100   1.770   5.694   3.400  0.7570  1.4409 -0.1935
 1229TIP3   OH225101   0.259   3.357   1.983  0.0118 -0.5831 -0.4074
 1229TIP3    H125102   0.301   3.395   1.906  1.5156 -0.3487  0.5029
 1229TIP3    H225103   0.166   3.358   1.963  0.2327  1.2773 -1.4281
 1230TIP3   OH225104   6.549   1.660   1.341  0.2587  0.1668 -0.0012
 1230TIP3    H125105   6.509   1.660   1.427 -2.1208  1.9443 -1.0652
 1230TIP3    H225106   6.514   1.738   1.297  3.3721  0.7267 -1.6889
 1231TIP3   OH225107   6.078   1.743  17.229 -0.2597  0.3913  0.0604
 1231TIP3    H125108   6.162   1.700  17.213  0.1562  1.5411 -1.0104
 1231TIP3    H225109   6.032   1.686  17.290  2.5094  1.2107  3.0697
 1232TIP3   OH225110   1.497   0.509   0.020  0.3136  0.0319  0.2289
 1232TIP3    H125111   1.516   0.470   0.105 -0.7598 -1.1722 -0.0621
 1232TIP3    H225112   1.582   0.538  -0.013  1.0355 -1.4036  0.7815
 1233TIP3   OH225113   6.617   2.078   2.885 -0.0214 -0.1716 -0.1613
 1233TIP3    H125114   6.686   2.143   2.893 -1.7617  1.5805  1.3580
 1233TIP3    H225115   6.558   2.113   2.818 -0.7828 -0.3195  0.4151
 1234TIP3   OH225116   0.581   5.947   2.736 -0.1893 -0.2069  0.3296
 1234TIP3    H125117   0.553   6.029   2.778  1.8035  0.3951  0.5167
 1234TIP3    H225118   0.539   5.949   2.650 -0.9880  0.5141  0.7285
 1235TIP3   OH225119   4.531   3.158   0.434 -0.1997 -0.1473  0.4718
 1235TIP3    H125120   4.585   3.082   0.454 -0.0918 -0.1132  0.3054
 1235TIP3    H225121   4.489   3.180   0.517 -1.6696 -1.5369  0.1215
 1236TIP3   OH225122   5.573   1.249   2.782 -0.1831 -0.4676 -0.5023
 1236TIP3    H125123   5.588   1.231   2.874 -0.4051 -1.3950 -0.6397
 1236TIP3    H225124   5.629   1.324   2.762 -2.2279  1.5327  1.0623
 1237TIP3   OH225125   5.508   1.808   5.574  0.5844  0.0760 -0.6216
 1237TIP3    H125126   5.542   1.858   5.649  0.5691 -0.3852 -0.3025
 1237TIP3    H225127   5.556   1.841   5.499  2.5848 -1.3520 -0.0164
 1238TIP3   OH225128   6.486   4.674  12.176  0.0471 -0.6785 -0.2236
 1238TIP3    H125129   6.494   4.760  12.135 -0.4128 -0.7708 -0.5059
 1238TIP3    H225130   6.410   4.681  12.233  1.4799 -0.1207  1.6901
 1239TIP3   OH225131   0.308   5.127   6.469 -0.0116 -0.3027 -0.5687
 1239TIP3    H125132   0.290   5.195   6.404  0.6131  2.4121  2.0354
 1239TIP3    H225133   0.369   5.067   6.425 -1.7670 -0.0815 -3.4226
 1240TIP3   OH225134   4.315   1.017  13.547 -0.4169  0.3961  0.5903
 1240TIP3    H125135   4.318   0.924  13.524 -2.1523  0.4397  0.0907
 1240TIP3    H225136   4.332   1.019  13.641 -1.8701 -0.5930  0.9029
 1241TIP3   OH225137   6.191   6.622   3.514  0.4149 -0.1914 -0.1422
 1241TIP3    H125138   6.100   6.648   3.497  0.3436 -1.0870 -1.1996
 1241TIP3    H225139   6.238   6.648   3.435  0.8767 -0.6803 -0.0264
 1242TIP3   OH225140   1.188   2.873  16.563  0.4143 -0.6701 -0.0645
 1242TIP3    H125141   1.158   2.811  16.497 -1.6817 -0.8956  1.0500
 1242TIP3    H225142   1.200   2.820  16.642  0.7884 -0.0473  0.2995
 1243TIP3   OH225143   4.800   0.957  14.730  0.3432  0.7961  0.0727
 1243TIP3    H125144   4.822   0.928  14.642  0.4982  2.2342 -0.3822
 1243TIP3    H225145   4.778   1.050  14.720 -2.8979  0.2019  1.0219
 1244TIP3   OH225146   6.233   4.639   0.575  0.2367 -0.1665 -0.1693
 1244TIP3    H125147   6.261   4.718   0.530  0.3329  0.0469  0.2624
 1244TIP3    H225148   6.219   4.666   0.666  3.2269 -1.2555  0.6806
 1245TIP3   OH225149   6.500   3.671   2.821  0.0800  0.0229  0.0802
 1245TIP3    H125150   6.426   3.730   2.833  1.7457  2.0684  0.6383
 1245TIP3    H225151   6.517   3.635   2.908 -2.1815 -2.9213 -0.6066
 1246TIP3   OH225152   2.486   1.661  15.676 -0.1044 -0.2341  0.4965
 1246TIP3    H125153   2.571   1.673  15.633  0.3191 -0.7038  1.1693
 1246TIP3    H225154   2.507   1.662  15.770 -0.4487 -2.9026  0.6562
 1247TIP3   OH225155   6.706   4.986   2.520  0.4659 -0.3878  0.2925
 1247TIP3    H125156   6.695   5.081   2.524  1.3123 -0.3457  2.0068
 1247TIP3    H225157   6.761   4.964   2.596  0.7396 -2.1803 -0.3818
 1248TIP3   OH225158   3.230   5.253  11.194  0.4128  0.3294  0.1595
 1248TIP3    H125159   3.233   5.300  11.277  0.6891  0.3715  0.1244
 1248TIP3    H225160   3.206   5.320  11.130 -1.1976  0.0139  0.4183
 1249TIP3   OH225161   5.523   2.180  16.090 -0.2660  0.3170 -0.1221
 1249TIP3    H125162   5.482   2.192  16.004 -0.7744 -0.1101  0.0609
 1249TIP3    H225163   5.479   2.244  16.146  1.0222  1.5646 -0.4915
 1250TIP3   OH225164   5.232   6.773   5.382 -0.4464  0.3212  0.1912
 1250TIP3    H125165   5.160   6.798   5.324 -0.5688  0.7597  0.5325
 1250TIP3    H225166   5.276   6.856   5.401  1.3648 -0.1684 -1.6495
 1251TIP3   OH225167   2.508   2.381  12.086 -0.3400  0.1344 -0.3771
 1251TIP3    H125168   2.477   2.311  12.144  0.5397 -0.1741 -0.2714
 1251TIP3    H225169   2.487   2.462  12.132 -0.5643 -0.0856 -0.0922
 1252TIP3   OH225170   3.301   1.367   5.459  0.1930  0.4804  0.4917
 1252TIP3    H125171   3.361   1.301   5.425 -0.6486 -0.1641  0.2516
 1252TIP3    H225172   3.357   1.442   5.480  1.2621 -0.5608  1.4491
 1253TIP3   OH225173   1.856   5.888   3.237 -0.5912  0.0636  0.6563
 1253TIP3    H125174   1.859   5.984   3.243 -1.1649  0.1914 -0.8684
 1253TIP3    H225175   1.767   5.869   3.207 -0.2575 -0.9193  0.2861
 1254TIP3   OH225176   5.681   0.348  16.229 -0.4109 -0.0149 -0.1627
 1254TIP3    H125177   5.772   0.337  16.258 -0.5938 -3.5639 -0.6494
 1254TIP3    H225178   5.685   0.332  16.135 -1.3051  1.4630 -0.4517
 1255TIP3   OH225179   6.567   1.686  12.260  0.4732  0.3902  0.0351
 1255TIP3    H125180   6.505   1.722  12.196 -0.0891  1.0682  0.9457
 1255TIP3    H225181   6.623   1.760  12.282  0.1577  0.3672  0.9233
 1256TIP3   OH225182   6.484   3.727  11.746  0.3717 -0.2489  0.6449
 1256TIP3    H125183   6.483   3.819  11.718 -1.0393  0.0394  1.5856
 1256TIP3    H225184   6.563   3.691  11.707  0.3869  1.0999 -0.6137
 1257TIP3   OH225185   6.657   0.245  16.649  0.4490 -0.1686  0.4030
 1257TIP3    H125186   6.565   0.257  16.624  0.5578  1.2466  0.6353
 1257TIP3    H225187   6.706   0.302  16.590  1.1241 -0.4715  0.6658
 1258TIP3   OH225188   3.698   5.902   3.199  0.2023 -0.6476  0.2369
 1258TIP3    H125189   3.684   5.965   3.270  0.5539 -1.5389  1.1082
 1258TIP3    H225190   3.627   5.838   3.210  1.0829 -1.5626  0.6534
 1259TIP3   OH225191   6.545   6.348  11.121  0.5629 -0.1916  0.0825
 1259TIP3    H125192   6.626   6.392  11.093  0.8075 -1.4463 -1.2462
 1259TIP3    H225193   6.553   6.343  11.216  1.3986  0.9277  0.0944
 1260TIP3   OH225194   4.904   5.047  11.490  0.0951  0.4897  0.5651
 1260TIP3    H125195   4.914   5.071  11.398  1.9172 -2.5344 -0.0802
 1260TIP3    H225196   4.853   4.966  11.489 -0.8475  1.0260  2.3086
 1261TIP3   OH225197   5.251   2.409   2.852 -0.3511  0.7735 -0.1097
 1261TIP3    H125198   5.290   2.387   2.937 -0.7412  4.2096  1.0225
 1261TIP3    H225199   5.167   2.364   2.852  0.3016 -0.4847  0.6482
 1262TIP3   OH225200   4.244   0.791  12.542 -0.1855  0.1178  0.1457
 1262TIP3    H125201   4.278   0.710  12.503 -1.3343  0.1320 -0.9159
 1262TIP3    H225202   4.288   0.797  12.626 -0.4945 -1.9155  0.4754
 1263TIP3   OH225203   2.490   1.314  12.438 -0.1627 -0.3252  0.4067
 1263TIP3    H125204   2.544   1.318  12.360 -0.6420  1.7613  0.1422
 1263TIP3    H225205   2.541   1.263  12.501  0.0391 -2.3878 -1.3826
 1264TIP3   OH225206   1.210   6.100  14.601 -0.1541  0.0476  0.0497
 1264TIP3    H125207   1.282   6.144  14.556 -0.8415  0.5491 -0.5893
 1264TIP3    H225208   1.131   6.139  14.563 -0.7837 -1.5934 -0.3901
 1265TIP3   OH225209   0.638   1.912  13.079  0.0101  0.5131  0.5675
 1265TIP3    H125210   0.699   1.838  13.083 -2.0787 -1.6110 -3.6475
 1265TIP3    H225211   0.566   1.887  13.137  0.4423  0.3975  1.0597
 1266TIP3   OH225212   0.294   1.117   0.393 -0.0204 -0.2561 -0.5107
 1266TIP3    H125213   0.349   1.063   0.449  1.2730  0.3191 -1.2211
 1266TIP3    H225214   0.337   1.202   0.391 -0.8504  0.1591 -1.1885
 1267TIP3   OH225215   6.079   4.081  16.269 -0.3816 -0.2294  0.3192
 1267TIP3    H125216   6.145   4.085  16.200 -3.2275 -1.8690 -2.6600
 1267TIP3    H225217   6.102   4.003  16.319  1.6031  0.8637  1.1316
 1268TIP3   OH225218   3.253   6.281   1.515 -0.0223  0.1148  0.0613
 1268TIP3    H125219   3.228   6.347   1.579 -2.7906  0.1309 -0.9770
 1268TIP3    H225220   3.231   6.197   1.555 -2.5497  0.1590 -1.1199
 1269TIP3   OH225221   1.745   2.599   3.176 -0.1738 -0.0031 -0.0276
 1269TIP3    H125222   1.726   2.679   3.223  1.3531 -0.3185  1.1710
 1269TIP3    H225223   1.753   2.532   3.244  1.6201 -0.5585 -0.7636
 1270TIP3   OH225224   3.784   3.223  14.827 -0.0899  0.5034 -0.7663
 1270TIP3    H125225   3.799   3.200  14.735  0.7876  1.7887 -0.9457
 1270TIP3    H225226   3.854   3.179  14.874  0.0390  0.6606 -0.8128
 1271TIP3   OH225227   4.167   6.291  11.957  0.3769 -0.8577 -0.4830
 1271TIP3    H125228   4.105   6.225  11.988 -0.2475 -0.4469 -0.8325
 1271TIP3    H225229   4.126   6.327  11.878 -0.9785  2.3695  1.5917
 1272TIP3   OH225230   4.550   2.518  12.885  0.3673 -0.2556  0.1031
 1272TIP3    H125231   4.558   2.561  12.801  1.9506  0.0392  0.3977
 1272TIP3    H225232   4.630   2.467  12.895  0.7199  0.6108  1.9377
 1273TIP3   OH225233   5.536   0.086   2.093  0.2032  0.0744  0.7917
 1273TIP3    H125234   5.442   0.103   2.088  0.1168 -0.7647 -0.7131
 1273TIP3    H225235   5.575   0.146   2.030  0.9252  1.9691  2.9561
 1274TIP3   OH225236   2.482   3.741  11.150  0.6274 -0.5819  0.2265
 1274TIP3    H125237   2.502   3.812  11.211  0.8330 -0.2280 -0.2484
 1274TIP3    H225238   2.444   3.785  11.074  0.0335 -1.0548  0.2422
 1275TIP3   OH225239   0.403   4.294   1.563  0.2079  0.2817 -0.3159
 1275TIP3    H125240   0.495   4.280   1.587  0.4853  2.9452  0.2849
 1275TIP3    H225241   0.362   4.324   1.644 -0.9904  0.0239 -0.8218
 1276TIP3   OH225242   3.212   5.896  13.221  0.1981  0.3618 -0.7718
 1276TIP3    H125243   3.287   5.883  13.163 -1.0672 -0.0993 -2.3388
 1276TIP3    H225244   3.145   5.836  13.189 -0.5197  0.0183  1.2422
 1277TIP3   OH225245   2.681   5.606   2.294  0.3134 -0.3304 -0.2090
 1277TIP3    H125246   2.760   5.579   2.340  0.5375 -1.2205 -1.0956
 1277TIP3    H225247   2.675   5.700   2.310  0.8321 -0.4827  0.9389
 1278TIP3   OH225248   4.220   1.868   6.315 -0.4095  0.4650 -0.0977
 1278TIP3    H125249   4.145   1.921   6.289 -0.2363  0.2954 -0.9344
 1278TIP3    H225250   4.215   1.790   6.260  0.9246  0.8867 -0.8407
 1279TIP3   OH225251   0.704   3.266   1.396  0.8118  0.1209  0.4256
 1279TIP3    H125252   0.667   3.218   1.471  1.8082  1.6283  1.9204
 1279TIP3    H225253   0.771   3.321   1.435  2.3112 -0.0981 -1.8054
 1280TIP3   OH225254   5.001   2.626   1.173 -0.4537  0.0361  0.3273
 1280TIP3    H125255   5.087   2.665   1.186 -1.0775  2.1671 -1.5985
 1280TIP3    H225256   4.941   2.683   1.222 -0.9991 -0.3331  0.0997
 1281TIP3   OH225257   0.832   5.338   0.849  0.0646  0.1033  0.2352
 1281TIP3    H125258   0.910   5.363   0.899 -1.4155  0.2747  2.5036
 1281TIP3    H225259   0.824   5.405   0.782  0.9041  1.0493  1.0638
 1282TIP3   OH225260   4.500   2.200  11.634  0.0408  0.7907  0.3552
 1282TIP3    H125261   4.426   2.259  11.644 -0.8165 -0.3696  1.1173
 1282TIP3    H225262   4.509   2.158  11.721  3.0977  2.6441  1.0086
 1283TIP3   OH225263   4.543   5.433   0.976  0.2333  0.0500  0.4299
 1283TIP3    H125264   4.483   5.499   1.010  0.5734 -0.0205  1.1663
 1283TIP3    H225265   4.524   5.354   1.026 -0.9391 -0.7373 -1.1945
 1284TIP3   OH225266   4.953   1.216  14.470  0.4603 -0.3081  0.3703
 1284TIP3    H125267   4.977   1.304  14.499  0.6262  0.0171 -0.7338
 1284TIP3    H225268   4.888   1.187  14.533  1.6758 -0.0818  1.7639
 1285TIP3   OH225269   5.026   0.692   2.651  0.0107 -0.0071 -0.1120
 1285TIP3    H125270   4.939   0.661   2.627 -0.2442 -0.0632  0.8538
 1285TIP3    H225271   5.010   0.760   2.716  0.7466 -1.7725  1.9982
 1286TIP3   OH225272   3.979   4.069  14.375  0.0691 -0.1102 -0.1953
 1286TIP3    H125273   3.983   3.977  14.349 -0.2704  0.0497 -0.8334
 1286TIP3    H225274   3.886   4.085  14.389  0.1282  0.1460 -0.1027
 1287TIP3   OH225275   1.368   6.403  11.393 -0.5294  0.4801  0.3911
 1287TIP3    H125276   1.301   6.418  11.325 -2.1734 -3.6889  0.9888
 1287TIP3    H225277   1.337   6.453  11.468  0.3762  3.6784 -1.2525
 1288TIP3   OH225278   5.582   1.820  15.299  0.4355  0.1181  0.7145
 1288TIP3    H125279   5.644   1.781  15.361  1.7005  0.2333 -0.4635
 1288TIP3    H225280   5.561   1.750  15.239  0.9968  0.6274 -0.0885
 1289TIP3   OH225281   1.054   5.855   1.144 -0.4014  0.2746  0.4791
 1289TIP3    H125282   1.089   5.821   1.062 -1.8961 -2.9352  1.0736
 1289TIP3    H225283   1.069   5.784   1.208  1.4806  3.0209  3.2095
 1290TIP3   OH225284   0.050   3.455   0.310 -0.0402  0.1724  0.3740
 1290TIP3    H125285   0.108   3.423   0.241  0.1986  0.3733  0.4818
 1290TIP3    H225286  -0.022   3.391   0.312 -0.1070  0.2246 -0.1383
 1291TIP3   OH225287   5.228   3.913  12.425  0.3152  0.1951  0.5627
 1291TIP3    H125288   5.156   3.976  12.416 -1.3895 -1.5018  2.0157
 1291TIP3    H225289   5.278   3.922  12.343 -1.3428  1.6194 -0.3241
 1292TIP3   OH225290   5.032   3.824   4.420  0.2223  0.2820 -0.4630
 1292TIP3    H125291   5.064   3.908   4.455  0.6762 -0.3907  0.7418
 1292TIP3    H225292   5.108   3.766   4.424 -0.6228 -0.7597  0.5690
 1293TIP3   OH225293   3.404   4.784  15.332  0.1452  0.3140 -0.8716
 1293TIP3    H125294   3.426   4.733  15.253  0.9024 -0.8329  0.0570
 1293TIP3    H225295   3.320   4.749  15.360  0.6769 -0.4855 -0.2196
 1294TIP3   OH225296   6.091   4.190  16.709 -0.4389  0.1124  0.2130
 1294TIP3    H125297   6.026   4.259  16.701 -0.2173  0.4140  0.9237
 1294TIP3    H225298   6.043   4.117  16.749 -0.0998  0.7016  1.7415
 1295TIP3   OH225299   0.066   0.866  14.273  0.1642  0.2721  0.7293
 1295TIP3    H125300  -0.017   0.889  14.316 -1.4899 -1.9573 -1.1280
 1295TIP3    H225301   0.039   0.823  14.191  3.1744 -0.4847  0.0917
 1296TIP3   OH225302   2.928   5.852  13.356 -0.1254  0.0729  0.1263
 1296TIP3    H125303   2.857   5.914  13.337 -1.9620 -1.7791  0.7810
 1296TIP3    H225304   2.904   5.773  13.308  2.0654 -0.2451 -0.4972
 1297TIP3   OH225305   2.436   3.986   1.889 -0.0566 -0.2159 -0.3211
 1297TIP3    H125306   2.434   3.966   1.795  0.8417  2.1524 -0.8824
 1297TIP3    H225307   2.526   4.015   1.905 -0.0687 -1.1027  1.3797
 1298TIP3   OH225308   1.374   4.712  11.127 -0.3957  0.4081  0.0394
 1298TIP3    H125309   1.420   4.769  11.189 -2.0593  0.8142  0.9177
 1298TIP3    H225310   1.388   4.754  11.042  0.9439  0.4648  0.2766
 1299TIP3   OH225311   5.221   4.979  13.342  0.0280  0.3607  0.5285
 1299TIP3    H125312   5.248   4.939  13.259 -0.1157  0.2289  0.5428
 1299TIP3    H225313   5.126   4.983  13.336 -0.1195 -1.2399  1.3928
 1300TIP3   OH225314   3.347   3.177   2.314  0.1645  0.6138 -0.4277
 1300TIP3    H125315   3.442   3.190   2.310  0.0066  1.3673 -2.4935
 1300TIP3    H225316   3.333   3.128   2.395  2.5243 -1.2296 -1.0675
 1301TIP3   OH225317   5.537   1.012   0.206  0.0484 -0.4762  0.4565
 1301TIP3    H125318   5.601   1.069   0.164 -2.0086  1.8333  0.3659
 1301TIP3    H225319   5.521   0.943   0.141  1.2350 -0.1851 -0.1573
 1302TIP3   OH225320   0.109   0.693   5.484  0.3344 -0.4831 -0.0659
 1302TIP3    H125321   0.150   0.608   5.470  1.8882 -0.0562  1.7301
 1302TIP3    H225322   0.105   0.732   5.397  0.4172 -2.0110 -0.7782
 1303TIP3   OH225323   1.504   5.438  14.678  0.3215 -0.1210 -0.1877
 1303TIP3    H125324   1.593   5.404  14.664  0.8754  1.2065 -0.0483
 1303TIP3    H225325   1.509   5.482  14.763 -0.2462  0.6768 -0.5623
 1304TIP3   OH225326   0.583   0.930   0.248 -0.1059  0.1383 -0.4337
 1304TIP3    H125327   0.526   0.973   0.184  2.0309  2.0014 -1.1460
 1304TIP3    H225328   0.582   0.989   0.324  0.7173  0.1009 -0.3929
 1305TIP3   OH225329   4.855   6.217  13.312 -0.0526 -0.3899  0.2045
 1305TIP3    H125330   4.807   6.165  13.377 -2.3498 -0.0682 -1.1634
 1305TIP3    H225331   4.834   6.308  13.335 -3.3804 -0.3097 -2.6794
 1306TIP3   OH225332   2.958   4.678  15.124 -0.1415  0.5111  0.2215
 1306TIP3    H125333   2.918   4.617  15.062  1.8512 -0.0115 -0.5912
 1306TIP3    H225334   3.047   4.645  15.137  0.3063  2.0737  1.3708
 1307TIP3   OH225335   5.206   5.465  15.897 -0.5039  0.2316 -0.9324
 1307TIP3    H125336   5.158   5.382  15.902 -0.0957  0.0418  0.2150
 1307TIP3    H225337   5.285   5.444  15.848 -0.9377  0.2159 -1.6278
 1308TIP3   OH225338   4.024   2.422  13.234  0.2324 -0.6274  0.1737
 1308TIP3    H125339   4.077   2.500  13.249 -0.4836  0.2416 -1.6665
 1308TIP3    H225340   4.088   2.355  13.208  0.6332 -0.0817 -0.2714
 1309TIP3   OH225341   1.109   1.648  13.352 -0.0688  0.2244  0.1940
 1309TIP3    H125342   1.036   1.654  13.415  0.1601 -1.4275  0.6350
 1309TIP3    H225343   1.102   1.560  13.316  1.0339  0.4628 -0.6152
 1310TIP3   OH225344   6.111   1.053   5.579 -0.0740 -0.3035 -0.3586
 1310TIP3    H125345   6.063   1.123   5.623 -0.1489 -0.8778  0.4748
 1310TIP3    H225346   6.196   1.050   5.623  0.1979 -0.2621 -0.8702
 1311TIP3   OH225347   5.069   5.012   2.919  0.1313  0.1529  0.0973
 1311TIP3    H125348   5.004   5.033   2.851  1.3236  1.2329 -0.7308
 1311TIP3    H225349   5.153   5.032   2.878  0.9991 -1.2501  1.1554
 1312TIP3   OH225350   2.674   4.871  16.773 -0.9225  0.4385 -0.0461
 1312TIP3    H125351   2.694   4.792  16.723 -0.3547 -0.3143  1.3595
 1312TIP3    H225352   2.759   4.910  16.793 -1.0533 -0.2641  1.9304
 1313TIP3   OH225353   2.539   2.477  15.634 -1.1236  0.4978  0.1595
 1313TIP3    H125354   2.506   2.521  15.712 -1.5848 -0.2385  0.3845
 1313TIP3    H225355   2.471   2.412  15.612 -0.2218 -0.4529  0.1351
 1314TIP3   OH225356   6.631   4.057   2.415  0.3545  0.5131  0.1721
 1314TIP3    H125357   6.595   4.069   2.503  1.8395  1.2387  0.6911
 1314TIP3    H225358   6.606   4.136   2.368 -0.7015 -0.0110 -0.1508
 1315TIP3   OH225359   2.849   1.196  11.148  0.6530 -0.6861 -0.0907
 1315TIP3    H125360   2.858   1.176  11.054  1.2916 -0.4351 -0.0872
 1315TIP3    H225361   2.939   1.191  11.182  0.5074 -0.1502  0.3828
 1316TIP3   OH225362   0.145   2.559  15.855  0.1817 -0.3241  0.3263
 1316TIP3    H125363   0.239   2.574  15.849 -0.0986  0.6138 -2.5176
 1316TIP3    H225364   0.114   2.627  15.915  1.1929 -0.1793  0.6967
 1317TIP3   OH225365   2.781   4.450  12.426 -0.3215 -0.3726  0.5821
 1317TIP3    H125366   2.727   4.375  12.454 -0.9304 -0.3461 -0.4630
 1317TIP3    H225367   2.857   4.410  12.384  0.7223 -0.4126  2.5006
 1318TIP3   OH225368   6.458   0.274   1.172  0.5144  0.4007  0.6225
 1318TIP3    H125369   6.427   0.308   1.089 -1.3657  0.0727  1.1602
 1318TIP3    H225370   6.534   0.329   1.194  0.8904  0.6176 -1.1796
 1319TIP3   OH225371   5.961   6.313   1.634  0.3604 -0.4175 -1.3310
 1319TIP3    H125372   6.024   6.379   1.604 -0.7049  1.8263  1.1902
 1319TIP3    H225373   5.877   6.346   1.603 -0.0091 -1.5030 -1.4937
 1320TIP3   OH225374   3.458   4.582   0.792 -0.5794  0.4667  0.2722
 1320TIP3    H125375   3.386   4.589   0.729 -0.7652  1.0616  0.5540
 1320TIP3    H225376   3.491   4.493   0.779  0.2592  1.0135 -1.6064
 1321TIP3   OH225377   4.899   1.848  13.806  0.2582 -0.2524  0.2934
 1321TIP3    H125378   4.816   1.894  13.817  0.1140  0.2453 -2.5147
 1321TIP3    H225379   4.875   1.759  13.781  0.5629  0.0153 -0.9728
 1322TIP3   OH225380   4.483   5.296  13.873 -0.5130  0.6575 -0.3869
 1322TIP3    H125381   4.482   5.311  13.779  2.7265  0.7801 -0.4620
 1322TIP3    H225382   4.541   5.365  13.908  0.8276 -1.2526  1.2871
 1323TIP3   OH225383   1.680   0.867   5.969 -0.1044 -0.4758  0.2131
 1323TIP3    H125384   1.605   0.809   5.980 -0.1615 -0.3255  0.6128
 1323TIP3    H225385   1.669   0.934   6.037  0.8644 -0.9620  0.8649
 1324TIP3   OH225386   3.886   1.357  17.037  0.2087 -0.1864 -0.5728
 1324TIP3    H125387   3.800   1.394  17.053 -0.3652 -0.6927 -2.4106
 1324TIP3    H225388   3.947   1.417  17.081 -0.8172  2.0889 -2.1682
 1325TIP3   OH225389   1.248   3.785  16.712  0.3600 -0.2809  0.0358
 1325TIP3    H125390   1.234   3.870  16.671  0.3660  0.7383  2.0616
 1325TIP3    H225391   1.199   3.723  16.657 -0.8525  1.2430 -0.6378
 1326TIP3   OH225392   2.216   1.313   0.808 -0.5934  0.1684  0.0532
 1326TIP3    H125393   2.157   1.313   0.733  0.4536  1.9776 -0.8037
 1326TIP3    H225394   2.299   1.278   0.774  0.0191  1.4032  0.2354
 1327TIP3   OH225395   0.755   5.535   4.867  0.0653  0.0341 -0.1323
 1327TIP3    H125396   0.800   5.545   4.951  0.1454 -1.7131  0.0453
 1327TIP3    H225397   0.663   5.549   4.888  0.1894  0.5629  0.0703
 1328TIP3   OH225398   0.775   4.875   1.264  0.6135 -0.0874 -0.1768
 1328TIP3    H125399   0.835   4.947   1.284 -0.0745  0.3421  0.4130
 1328TIP3    H225400   0.758   4.884   1.170  1.0553  0.1113 -0.2407
 1329TIP3   OH225401   3.405   6.078  10.921 -0.3283 -0.1500  0.4368
 1329TIP3    H125402   3.339   6.018  10.955  0.7729 -0.4213  2.1355
 1329TIP3    H225403   3.354   6.153  10.887 -1.5686 -1.0368  0.3165
 1330TIP3   OH225404   5.411   2.628  15.243  0.4221  0.2772 -0.0577
 1330TIP3    H125405   5.427   2.660  15.155  1.9075  0.0730  0.1244
 1330TIP3    H225406   5.359   2.697  15.285  0.2989  0.6834 -0.8752
 1331TIP3   OH225407   3.299   6.309  16.185 -0.2082 -0.0629  0.2501
 1331TIP3    H125408   3.390   6.283  16.174 -0.1907  0.1795 -0.2393
 1331TIP3    H225409   3.249   6.232  16.157 -0.1511 -0.0496  0.1052
 1332TIP3   OH225410   2.505   5.065  11.671  0.6852 -0.4385  0.0285
 1332TIP3    H125411   2.452   5.142  11.651  2.1873  1.2543  2.2970
 1332TIP3    H225412   2.577   5.069  11.607 -0.1192 -0.8893 -0.9132
 1333TIP3   OH225413   4.050   3.875   5.802 -0.2595 -0.0620  0.1618
 1333TIP3    H125414   3.957   3.874   5.780 -0.1170  0.7733 -0.5222
 1333TIP3    H225415   4.086   3.797   5.760 -0.7806 -0.8147  1.0754
 1334TIP3   OH225416   1.807   2.932  11.909 -0.0263 -0.0244  0.3586
 1334TIP3    H125417   1.819   2.990  11.984 -2.9668  0.3155  0.5864
 1334TIP3    H225418   1.895   2.926  11.870  1.0644  1.6103  2.4637
 1335TIP3   OH225419   0.878   3.964  12.916 -0.0068  0.5124 -0.2610
 1335TIP3    H125420   0.793   3.923  12.900  0.6896 -1.7113  1.4152
 1335TIP3    H225421   0.934   3.933  12.845 -0.0789  0.3981 -0.2675
 1336TIP3   OH225422   3.328   4.144   1.921  0.6471 -0.0765 -0.1561
 1336TIP3    H125423   3.289   4.103   1.999  0.3927  2.5831  1.1690
 1336TIP3    H225424   3.254   4.185   1.876  0.6678 -2.3086 -2.2878
 1337TIP3   OH225425   0.332   4.320   3.704  0.1097 -0.4514  0.2858
 1337TIP3    H125426   0.424   4.298   3.689  0.6829  0.7453  1.9773
 1337TIP3    H225427   0.287   4.290   3.625  1.8218 -1.7889 -0.2122
 1338TIP3   OH225428   1.244   6.737  12.819  0.1810  0.1046  0.9283
 1338TIP3    H125429   1.192   6.736  12.899 -0.5840  0.8598  0.4619
 1338TIP3    H225430   1.309   6.806  12.833  1.1746 -0.9654  1.5845
 1339TIP3   OH225431   2.104   4.151  12.033  0.0489 -0.5387 -0.2516
 1339TIP3    H125432   2.138   4.190  12.114  1.9822  1.4096 -1.9422
 1339TIP3    H225433   2.171   4.170  11.967 -2.2864 -0.5604 -2.7133
 1340TIP3   OH225434   0.414   5.028   0.071  0.2690 -0.1158 -0.4603
 1340TIP3    H125435   0.491   4.973   0.081  0.8991  1.0867  1.4960
 1340TIP3    H225436   0.342   4.976   0.107  0.6042 -0.2378  0.0301
 1341TIP3   OH225437   0.030   2.252  13.644  0.9821 -0.4170  0.1483
 1341TIP3    H125438   0.010   2.344  13.660 -0.1668 -0.3596 -1.5171
 1341TIP3    H225439   0.048   2.247  13.550 -0.6987 -2.1847 -0.1247
 1342TIP3   OH225440   3.348   2.688   4.036  0.3983  0.5846 -0.0280
 1342TIP3    H125441   3.397   2.609   4.059  0.1411  0.5804  0.5029
 1342TIP3    H225442   3.280   2.657   3.976  0.4375  0.4384  0.0018
 1343TIP3   OH225443   4.495   6.177  14.185  0.2179 -0.1044 -0.6392
 1343TIP3    H125444   4.410   6.143  14.212  0.3889  0.5887  0.8238
 1343TIP3    H225445   4.482   6.207  14.095 -0.4663 -2.1244 -1.2315
 1344TIP3   OH225446   4.092   2.905  16.803  0.1493 -0.1996  0.5269
 1344TIP3    H125447   4.108   2.825  16.753 -0.7284  0.3450 -0.6481
 1344TIP3    H225448   4.141   2.892  16.885 -0.2027 -2.0528  0.4841
 1345TIP3   OH225449   3.660   5.426  11.975  0.2200  1.2607 -0.0639
 1345TIP3    H125450   3.708   5.353  12.015  1.0815  1.3836 -0.8567
 1345TIP3    H225451   3.601   5.456  12.044 -2.8309 -2.5378 -0.8159
 1346TIP3   OH225452   1.080   0.341  13.593  0.4628 -0.0547 -0.2005
 1346TIP3    H125453   1.150   0.302  13.542 -1.1712 -1.0408 -1.7411
 1346TIP3    H225454   1.118   0.422  13.628  2.4887 -0.8043 -0.6051
 1347TIP3   OH225455   3.113   0.822  17.202  0.3224  0.1896  0.0613
 1347TIP3    H125456   3.101   0.874  17.122 -0.2048  0.0171  0.0310
 1347TIP3    H225457   3.052   0.860  17.265  1.9563  1.4596  0.9398
 1348TIP3   OH225458   3.088   6.165  11.664 -0.2283  0.3554 -0.3141
 1348TIP3    H125459   3.177   6.180  11.695  0.2631 -2.3602 -0.2654
 1348TIP3    H225460   3.031   6.199  11.733  0.7665  1.2511  0.0691
 1349TIP3   OH225461   1.079   5.621  14.815  0.0681  0.1556  0.0714
 1349TIP3    H125462   1.022   5.621  14.738 -0.3363 -1.1718  0.3412
 1349TIP3    H225463   1.127   5.538  14.809  0.2040  0.1484  1.1127
 1350TIP3   OH225464   3.949   4.564   2.625  0.1700  0.4713 -0.8338
 1350TIP3    H125465   3.856   4.549   2.608  0.6205 -0.6005 -2.4217
 1350TIP3    H225466   3.950   4.623   2.700 -1.8280  1.7395 -1.7597
 1351TIP3   OH225467   1.646   0.004   5.916 -0.0608 -0.3889  0.2261
 1351TIP3    H125468   1.587  -0.010   5.990 -1.3755  1.4715 -0.4338
 1351TIP3    H225469   1.732  -0.023   5.949 -0.9066 -1.1556  1.8844
 1352TIP3   OH225470   2.419   3.763  12.752 -0.4448 -0.1374 -0.1476
 1352TIP3    H125471   2.347   3.701  12.741  0.2056 -0.9874  0.3999
 1352TIP3    H225472   2.441   3.790  12.663 -1.7028  0.4382 -0.2990
 1353TIP3   OH225473   3.833   3.790  12.412  0.1810  0.1968 -0.1261
 1353TIP3    H125474   3.784   3.816  12.333  0.5554 -0.4015 -0.5578
 1353TIP3    H225475   3.925   3.802  12.388  0.3091 -0.4205  0.0727
 1354TIP3   OH225476   5.202   6.346  15.245 -0.0924  0.4814 -0.3290
 1354TIP3    H125477   5.213   6.274  15.183  0.0843 -0.3230  0.6113
 1354TIP3    H225478   5.157   6.306  15.320  1.8583  0.8305  1.0921
 1355TIP3   OH225479   2.955   5.943   4.276 -0.0854 -1.1971  0.1839
 1355TIP3    H125480   2.955   5.860   4.324 -1.0662 -0.3309  1.7309
 1355TIP3    H225481   3.044   5.977   4.286 -0.0892 -1.3587  0.8281
 1356TIP3   OH225482   0.868   5.668  13.860 -0.0848  0.2987  0.2665
 1356TIP3    H125483   0.878   5.762  13.875  1.2560  0.3584 -0.8909
 1356TIP3    H225484   0.857   5.631  13.948  0.7492  1.3742  0.8412
 1357TIP3   OH225485   2.357   4.216  15.538 -0.0287  0.0781  0.0463
 1357TIP3    H125486   2.330   4.127  15.561  0.6766  0.3437  1.9447
 1357TIP3    H225487   2.275   4.261  15.518 -0.5048 -0.6348  0.3478
 1358TIP3   OH225488   0.518   2.358   6.200 -0.7561  0.6026  0.1701
 1358TIP3    H125489   0.468   2.352   6.281 -0.6483  0.6204  0.2389
 1358TIP3    H225490   0.600   2.313   6.220 -0.3100  1.5097  0.4007
 1359TIP3   OH225491   1.347   3.236   1.453  1.2584 -0.4382  0.1047
 1359TIP3    H125492   1.375   3.145   1.444  0.8266 -0.4911 -0.7375
 1359TIP3    H225493   1.265   3.241   1.405 -0.0891 -0.2283  2.3820
 1360TIP3   OH225494   5.851   6.005   5.255 -0.3519 -0.4919  0.1827
 1360TIP3    H125495   5.796   5.927   5.250  0.6837 -1.2283  0.1400
 1360TIP3    H225496   5.802   6.072   5.208 -0.2953 -1.6917 -1.6258
 1361TIP3   OH225497   0.523   5.164  15.541 -0.0744  0.2259 -0.8669
 1361TIP3    H125498   0.486   5.244  15.505  0.1608  1.3422  1.2784
 1361TIP3    H225499   0.447   5.112  15.568 -0.1989  1.1294  0.6083
 1362TIP3   OH225500   3.143   3.162  10.901 -0.1730  0.5254 -0.2229
 1362TIP3    H125501   3.096   3.124  10.827  0.5763 -2.7673  0.8727
 1362TIP3    H225502   3.231   3.180  10.868 -0.1009 -0.1237 -0.3974
 1363TIP3   OH225503   5.799   6.771   2.428 -0.1687  0.2651 -0.1317
 1363TIP3    H125504   5.721   6.767   2.483 -0.5133 -1.3301 -0.7117
 1363TIP3    H225505   5.775   6.830   2.356 -0.3522  0.8697  0.4193
 1364TIP3   OH225506   2.246   0.427   2.159 -0.2577 -0.3336  0.0613
 1364TIP3    H125507   2.206   0.501   2.114  0.5693 -0.1267 -0.3533
 1364TIP3    H225508   2.337   0.428   2.130  0.0765 -0.7182  1.0796
 1365TIP3   OH225509   6.190   0.759  12.232 -0.1431  0.5051  0.4333
 1365TIP3    H125510   6.129   0.689  12.256 -0.6306  1.0282  0.7420
 1365TIP3    H225511   6.193   0.815  12.309  1.2819  0.1095  0.6846
 1366TIP3   OH225512   3.115   6.165  17.073 -0.3138 -0.5394 -0.1258
 1366TIP3    H125513   3.156   6.142  17.156 -1.8358 -0.4472  0.6709
 1366TIP3    H225514   3.074   6.249  17.088 -1.4854 -1.0041 -0.6476
 1367TIP3   OH225515   4.203   1.806  14.136 -0.2105  0.7005  0.0485
 1367TIP3    H125516   4.250   1.846  14.210  0.4823  0.7318 -0.3998
 1367TIP3    H225517   4.162   1.880  14.092 -0.9265  0.6402  0.6118
 1368TIP3   OH225518   2.476   5.897  17.147 -0.1347 -0.5285  0.1820
 1368TIP3    H125519   2.422   5.925  17.072  0.8799 -0.5183 -0.5476
 1368TIP3    H225520   2.490   5.977  17.197  0.7630 -0.1735 -0.6304
 1369TIP3   OH225521   1.290   2.434  15.653 -0.0043  0.1678  0.6198
 1369TIP3    H125522   1.328   2.414  15.567 -0.3390 -2.9546  1.1338
 1369TIP3    H225523   1.335   2.514  15.681 -0.6022  1.7935 -2.8580
 1370TIP3   OH225524   4.327   3.417   4.729 -0.2691  0.3904 -0.2189
 1370TIP3    H125525   4.403   3.360   4.743 -1.4506 -0.9890  0.7734
 1370TIP3    H225526   4.321   3.425   4.633 -0.3009 -1.4744 -0.3961
 1371TIP3   OH225527   4.289   0.624  14.923 -0.5056 -0.1084  0.2939
 1371TIP3    H125528   4.381   0.645  14.905 -0.8404  1.6363  0.5468
 1371TIP3    H225529   4.254   0.702  14.965 -1.8060 -1.2118  1.3135
 1372TIP3   OH225530   4.077   1.660   4.437  0.7339  0.1641 -0.1665
 1372TIP3    H125531   4.168   1.676   4.465  1.7408 -1.8868 -2.1418
 1372TIP3    H225532   4.048   1.745   4.403  1.9967  0.7804  0.2537
 1373TIP3   OH225533   3.897   4.229   6.595 -0.0581  0.4130  0.1407
 1373TIP3    H125534   3.873   4.168   6.665 -1.2071  0.6098 -0.0711
 1373TIP3    H225535   3.854   4.194   6.517 -1.4995  1.9818  0.2043
 1374TIP3   OH225536   6.233   6.012   0.438  0.3942  0.3509 -0.0963
 1374TIP3    H125537   6.140   6.032   0.446  0.1163 -0.6308 -0.8274
 1374TIP3    H225538   6.272   6.093   0.406 -0.1656  0.8399  0.4467
 1375TIP3   OH225539   3.054   4.855   5.681  0.7584 -0.0174  0.0149
 1375TIP3    H125540   2.978   4.799   5.667  0.5504 -0.0627  1.2709
 1375TIP3    H225541   3.059   4.865   5.776  2.4797 -0.2212 -0.0455
 1376TIP3   OH225542   5.844   1.032  14.626  0.2051 -0.1796  0.1826
 1376TIP3    H125543   5.782   1.101  14.601 -1.2015 -1.2918  0.5460
 1376TIP3    H225544   5.882   1.002  14.544  0.4374  0.6643 -0.0212
 1377TIP3   OH225545   6.754   1.449   3.038  0.4091 -0.4803  0.4059
 1377TIP3    H125546   6.744   1.543   3.029 -1.3212 -0.7349 -0.5397
 1377TIP3    H225547   6.807   1.438   3.117  0.6277  1.2670  0.5256
 1378TIP3   OH225548   3.612   0.988   2.956 -0.3856  0.4150  0.6541
 1378TIP3    H125549   3.691   1.041   2.942 -0.8809  0.7809 -0.8049
 1378TIP3    H225550   3.558   1.042   3.014 -1.6035  2.2906 -2.1184
 1379TIP3   OH225551   2.735   0.495   5.322 -0.4137  0.6198 -0.2428
 1379TIP3    H125552   2.828   0.513   5.337 -0.5585  0.9818  0.2245
 1379TIP3    H225553   2.690   0.574   5.351 -0.7878  0.9087 -1.5888
 1380TIP3   OH225554   5.870   2.967  12.608 -0.4869 -0.5555  0.4843
 1380TIP3    H125555   5.916   3.005  12.682 -0.9562  0.9593  0.0062
 1380TIP3    H225556   5.939   2.927  12.555 -0.1625 -1.7764  1.7825
 1381TIP3   OH225557   1.009   2.536  17.159  0.0522  0.0420 -0.8878
 1381TIP3    H125558   0.959   2.600  17.209  0.5888  0.3604 -0.7640
 1381TIP3    H225559   0.980   2.548  17.069  0.6692  0.9404 -0.9701
 1382TIP3   OH225560   0.794   1.443   4.952  0.7330  0.1193 -0.7181
 1382TIP3    H125561   0.818   1.527   4.991  0.0885  0.2512 -0.5979
 1382TIP3    H225562   0.855   1.432   4.879  2.1837 -0.3018  0.5403
 1383TIP3   OH225563   0.014   3.010   0.872  0.3755  0.1995  0.1304
 1383TIP3    H125564   0.080   3.073   0.843  0.0743 -0.1599 -1.4153
 1383TIP3    H225565  -0.066   3.061   0.884  0.3437  0.2583 -0.3141
 1384TIP3   OH225566   5.968   1.788   4.159  0.2302  0.3934  0.0460
 1384TIP3    H125567   5.886   1.744   4.135  0.5706 -0.0959 -0.2283
 1384TIP3    H225568   5.963   1.873   4.114  0.2428  0.0360 -0.6362
 1385TIP3   OH225569   5.643   1.784  15.619  0.5196  0.5494  0.3321
 1385TIP3    H125570   5.709   1.773  15.551  0.1401  1.4789 -0.1923
 1385TIP3    H225571   5.614   1.695  15.640  1.0526  0.2272 -0.3022
 1386TIP3   OH225572   2.995   6.430   2.137  0.6760  0.3468 -0.1317
 1386TIP3    H125573   3.022   6.485   2.064  2.2378  0.1647  0.2994
 1386TIP3    H225574   3.063   6.443   2.203  1.3191 -2.4341 -0.1918
 1387TIP3   OH225575   4.665   0.862  13.202  0.5269  0.3511  0.6327
 1387TIP3    H125576   4.591   0.805  13.179 -0.2524  0.4485  2.8379
 1387TIP3    H225577   4.737   0.830  13.147 -0.6028 -1.0756 -0.0528
 1388TIP3   OH225578   1.797   6.361  12.891  0.8286  0.4702  0.0895
 1388TIP3    H125579   1.828   6.316  12.812  0.6116  0.0504  0.2426
 1388TIP3    H225580   1.841   6.315  12.963 -0.4005 -0.3469  0.3292
 1389TIP3   OH225581   5.631   2.389   0.663 -0.1048  0.2653 -0.4405
 1389TIP3    H125582   5.582   2.420   0.587  0.9590 -0.3473 -1.3782
 1389TIP3    H225583   5.713   2.356   0.628  0.1583 -0.5709  0.9135
 1390TIP3   OH225584   4.620   5.928  14.404 -0.0438 -0.2931 -0.8872
 1390TIP3    H125585   4.608   6.013  14.447  2.2030 -0.2902 -0.1922
 1390TIP3    H225586   4.615   5.948  14.310 -1.0355  0.3350 -0.7191
 1391TIP3   OH225587   5.688   2.831   1.467  0.5597  0.1407  0.1712
 1391TIP3    H125588   5.644   2.874   1.394 -1.3255 -2.4203 -0.3015
 1391TIP3    H225589   5.757   2.892   1.494 -1.8789  3.3017 -0.5029
 1392TIP3   OH225590   3.341   5.406  11.757  0.6838 -0.3657  0.1372
 1392TIP3    H125591   3.364   5.366  11.840  1.1595  0.4470  0.3966
 1392TIP3    H225592   3.398   5.483  11.749  1.2108 -0.8812 -1.3069
 1393TIP3   OH225593   5.579   6.631  14.571 -0.5938  0.2351  0.0723
 1393TIP3    H125594   5.508   6.601  14.628  0.8585 -0.3545  1.5971
 1393TIP3    H225595   5.604   6.554  14.521  0.4722 -0.1344  1.1538
 1394TIP3   OH225596   2.840   2.141  16.489 -0.4906 -0.6653 -0.1792
 1394TIP3    H125597   2.845   2.214  16.427 -0.1115  0.3305  1.0060
 1394TIP3    H225598   2.783   2.173  16.559  0.8040 -0.9769  1.0427
 1395TIP3   OH225599   6.405   0.012  13.482 -0.1999 -0.1113 -0.4687
 1395TIP3    H125600   6.352  -0.045  13.427 -0.9395 -0.2521  0.3829
 1395TIP3    H225601   6.342   0.052  13.543  0.5827  0.1501  0.1815
 1396TIP3   OH225602   1.471   0.591  15.974  0.6874  0.3630  0.7487
 1396TIP3    H125603   1.507   0.549  15.896  2.0907 -0.4150  1.7744
 1396TIP3    H225604   1.526   0.668  15.987  1.9892 -0.7999  2.2985
 1397TIP3   OH225605   5.053   6.140  16.969  0.3932 -0.2332  0.1213
 1397TIP3    H125606   4.973   6.192  16.973 -0.8001 -2.0068  0.1693
 1397TIP3    H225607   5.118   6.192  17.016 -0.5456  1.5472 -0.5201
 1398TIP3   OH225608   3.928   1.001  10.250 -0.1488 -0.3342 -0.2047
 1398TIP3    H125609   3.833   1.002  10.240  0.1912 -1.1223 -4.4953
 1398TIP3    H225610   3.945   1.054  10.328 -3.9893  1.4867 -0.5031
 1399TIP3   OH225611   6.128   4.720  13.744  0.2567 -0.2869  0.0788
 1399TIP3    H125612   6.041   4.758  13.738  1.0007  1.4180 -0.0814
 1399TIP3    H225613   6.167   4.761  13.821  0.7947 -1.3219  0.3744
 1400TIP3   OH225614   4.292   1.424   5.259  0.3355  0.0471  0.4567
 1400TIP3    H125615   4.342   1.460   5.187 -1.2090  0.1329 -0.6041
 1400TIP3    H225616   4.222   1.488   5.275 -0.7855 -1.1329  0.3823
 1401TIP3   OH225617   2.183   0.216   0.271 -0.4365 -0.0320  0.7644
 1401TIP3    H125618   2.250   0.149   0.274  0.5730  0.9569  0.5295
 1401TIP3    H225619   2.108   0.178   0.317  0.5065 -0.8897  1.5904
 1402TIP3   OH225620   4.516   2.329  10.904 -0.0354 -0.0036 -0.1074
 1402TIP3    H125621   4.544   2.300  10.817 -2.8056 -0.4777 -0.8776
 1402TIP3    H225622   4.578   2.288  10.964  1.1790 -0.6623 -1.7665
 1403TIP3   OH225623   5.651   1.574  11.806 -0.4712 -0.5798  0.1079
 1403TIP3    H125624   5.614   1.506  11.750 -2.7523  0.6433  0.0852
 1403TIP3    H225625   5.591   1.580  11.881 -1.0425  2.2678 -0.5072
 1404TIP3   OH225626   2.763   4.355  11.079  0.1744  1.0377 -0.2449
 1404TIP3    H125627   2.853   4.356  11.048  0.4845 -1.1820  0.5174
 1404TIP3    H225628   2.770   4.356  11.174 -0.5710 -0.5704 -0.1658
 1405TIP3   OH225629   6.454   5.051   0.597 -0.3225 -0.8296 -0.4149
 1405TIP3    H125630   6.529   4.992   0.605  0.5273  0.0945 -1.3648
 1405TIP3    H225631   6.479   5.129   0.647 -0.8233 -0.6842 -0.3870
 1406TIP3   OH225632   1.885   3.489  16.017 -0.1682  0.6699  0.2663
 1406TIP3    H125633   1.943   3.454  16.084  0.1511  1.0225  0.1723
 1406TIP3    H225634   1.938   3.492  15.937 -1.1192 -1.6629 -0.5129
 1407TIP3   OH225635   6.567   6.250   5.782  0.4548  0.4919 -0.3206
 1407TIP3    H125636   6.595   6.182   5.842  0.0138  1.4252  0.9718
 1407TIP3    H225637   6.495   6.294   5.828  0.5492  1.6319 -1.2450
 1408TIP3   OH225638   0.942   5.717   2.968 -0.0726  0.2020  0.2281
 1408TIP3    H125639   0.895   5.778   3.025  0.2340  1.0880 -0.4700
 1408TIP3    H225640   0.914   5.740   2.880 -1.2421 -1.7572  0.0391
 1409TIP3   OH225641   3.654   4.979  14.652  0.5599 -0.4617  0.2460
 1409TIP3    H125642   3.595   5.027  14.595 -0.2615 -0.7581  0.8338
 1409TIP3    H225643   3.677   4.901  14.602  0.2958 -0.4434  0.0939
 1410TIP3   OH225644   4.351   2.368  11.831  0.3419 -0.3522 -0.2158
 1410TIP3    H125645   4.442   2.341  11.844  0.4593  0.0989 -0.0785
 1410TIP3    H225646   4.322   2.397  11.918 -0.7994 -3.0575  0.3582
 1411TIP3   OH225647   4.214   5.682   6.958  0.3433  0.1839 -0.3409
 1411TIP3    H125648   4.273   5.742   6.913 -0.8004  0.1845 -1.8733
 1411TIP3    H225649   4.255   5.596   6.948  0.8593  0.4008 -0.0795
 1412TIP3   OH225650   0.786   5.223  15.721  0.3276 -0.1324 -0.0806
 1412TIP3    H125651   0.848   5.294  15.704  0.4028  0.0924  1.1051
 1412TIP3    H225652   0.722   5.229  15.651  0.0085  1.4630  0.3425
 1413TIP3   OH225653   0.278   5.046  11.677  0.0253  0.0505 -0.1345
 1413TIP3    H125654   0.314   4.963  11.708  0.9628  0.7627  0.7437
 1413TIP3    H225655   0.184   5.040  11.696  0.2875 -0.2948  1.1195
 1414TIP3   OH225656   1.166   5.452  10.814  0.0909  0.1460 -0.4269
 1414TIP3    H125657   1.133   5.523  10.759 -1.8142 -0.2122  0.2291
 1414TIP3    H225658   1.219   5.398  10.755  2.5914  2.7257 -0.6813
 1415TIP3   OH225659   1.650   6.315  10.677 -0.0936 -0.3309 -0.1423
 1415TIP3    H125660   1.587   6.387  10.677  0.6319  0.3045 -0.3806
 1415TIP3    H225661   1.599   6.239  10.647 -0.5961  0.3058 -0.9138
 1416TIP3   OH225662   2.786   1.115  16.763  0.2472 -0.0707 -0.4976
 1416TIP3    H125663   2.861   1.169  16.788  0.4809 -0.2249 -0.8559
 1416TIP3    H225664   2.718   1.137  16.826  0.8780 -0.5660  0.3646
 1417TIP3   OH225665   0.991   3.629   4.400 -0.1143  0.3256  0.2807
 1417TIP3    H125666   1.044   3.632   4.320  0.3844  0.0195  0.5951
 1417TIP3    H225667   0.953   3.716   4.406 -0.5244  0.2079 -0.5403
 1418TIP3   OH225668   0.718   4.861  12.295  0.0621  0.0475  0.1997
 1418TIP3    H125669   0.762   4.896  12.372 -1.0279  0.0070  0.8549
 1418TIP3    H225670   0.639   4.914  12.285 -1.3049 -1.8012  0.8605
 1419TIP3   OH225671   0.105   2.028   2.189 -0.1793  0.3324  0.5904
 1419TIP3    H125672   0.070   2.057   2.273 -2.2053  0.1278 -0.1436
 1419TIP3    H225673   0.028   2.024   2.132  0.7888 -1.8377 -0.6252
 1420TIP3   OH225674   0.553   0.649  14.331 -0.8128  0.4178 -0.3178
 1420TIP3    H125675   0.566   0.738  14.364 -0.5619  0.3542 -0.2409
 1420TIP3    H225676   0.630   0.634  14.275 -0.5057 -0.0052  0.2218
 1421TIP3   OH225677   0.447   6.409  14.340 -0.3562  0.0719 -0.6137
 1421TIP3    H125678   0.451   6.392  14.246  2.4750 -0.7615 -0.3865
 1421TIP3    H225679   0.477   6.500  14.349  0.1638 -0.1119 -0.4617
 1422TIP3   OH225680   2.568   5.838  12.108 -0.5010 -0.5458  0.4592
 1422TIP3    H125681   2.489   5.885  12.134 -2.3781 -2.5971 -1.3897
 1422TIP3    H225682   2.572   5.763  12.167 -0.2761 -0.7847  0.1360
 1423TIP3   OH225683   2.370   5.416   5.720 -0.2931  0.4717 -0.2840
 1423TIP3    H125684   2.433   5.345   5.732 -1.7953 -0.7491  0.7695
 1423TIP3    H225685   2.385   5.474   5.795  0.2128  0.6891 -0.5543
 1424TIP3   OH225686   1.740   6.018  16.619 -0.6751 -0.1498 -0.0888
 1424TIP3    H125687   1.690   6.097  16.641 -1.3911 -0.7055  0.3273
 1424TIP3    H225688   1.793   6.043  16.544 -1.1263  0.6387 -0.1507
 1425TIP3   OH225689   2.264   4.372  13.749  0.2674 -0.2449 -0.4468
 1425TIP3    H125690   2.264   4.282  13.781  0.4435  0.6646  2.2416
 1425TIP3    H225691   2.344   4.379  13.697  0.8450 -1.3190  0.2723
 1426TIP3   OH225692   3.990   6.036   5.620  0.5322 -0.1386  0.3694
 1426TIP3    H125693   3.924   6.070   5.681 -2.1431 -2.1738 -1.2292
 1426TIP3    H225694   3.983   6.093   5.543 -0.4217 -1.1637 -0.3388
 1427TIP3   OH225695   1.927   0.158  14.261 -0.4343  0.1459 -0.7680
 1427TIP3    H125696   1.964   0.159  14.349  0.8777  0.0028 -1.2999
 1427TIP3    H225697   1.847   0.210  14.268 -0.6626 -0.3762  0.6368
 1428TIP3   OH225698   4.092   4.076   4.518  0.1454  0.0461  0.3883
 1428TIP3    H125699   4.089   3.981   4.506 -1.3820 -0.0168  1.1459
 1428TIP3    H225700   4.117   4.088   4.609 -3.7339  0.2627  1.5206
 1429TIP3   OH225701   3.748   5.130  12.793  0.2064  0.4569  0.3791
 1429TIP3    H125702   3.746   5.111  12.699  1.1200 -0.6964  0.5880
 1429TIP3    H225703   3.741   5.045  12.835  1.0125  0.8604  1.3548
 1430TIP3   OH225704   1.611   3.686   3.193 -0.1776 -0.1468 -0.6136
 1430TIP3    H125705   1.660   3.724   3.119 -2.7872  1.5556 -1.5182
 1430TIP3    H225706   1.554   3.621   3.152 -0.3224 -0.5099  0.1668
 1431TIP3   OH225707   2.294   2.148   5.222 -0.1821 -0.0316  0.7803
 1431TIP3    H125708   2.324   2.071   5.172 -1.9451  1.2130 -2.3261
 1431TIP3    H225709   2.370   2.207   5.222 -1.2141  1.4944 -3.7399
 1432TIP3   OH225710   0.315   1.482   4.906  0.0595 -0.1461  0.1030
 1432TIP3    H125711   0.403   1.518   4.899 -0.4119  0.4759 -3.9052
 1432TIP3    H225712   0.258   1.558   4.895 -0.9901 -0.6328  2.0737
 1433TIP3   OH225713   1.096   1.239   1.675 -0.2512 -0.0828  0.2702
 1433TIP3    H125714   1.137   1.156   1.700 -2.3217 -1.9366 -2.1214
 1433TIP3    H225715   1.168   1.294   1.647  1.1611 -1.1076  1.7857
 1434TIP3   OH225716   0.577   0.843  12.362  0.1505  0.1308  0.7095
 1434TIP3    H125717   0.584   0.750  12.343 -0.5938  0.5399 -1.8092
 1434TIP3    H225718   0.659   0.881  12.331 -0.0896  0.4856  0.4978
 1435TIP3   OH225719   6.326   0.636  14.991  0.5891 -0.3783  0.2347
 1435TIP3    H125720   6.381   0.604  15.063 -0.1234  3.0755  2.4082
 1435TIP3    H225721   6.238   0.642  15.028 -0.5696 -2.1259 -2.0872
 1436TIP3   OH225722   3.695   3.649  15.916 -0.1097 -0.1629 -0.1308
 1436TIP3    H125723   3.745   3.720  15.877  1.1535 -1.3503 -0.7207
 1436TIP3    H225724   3.704   3.663  16.011 -1.2427  1.3830 -0.2361
 1437TIP3   OH225725   6.273   3.275   2.461  0.6018 -0.2356  0.0686
 1437TIP3    H125726   6.245   3.237   2.544 -0.0541  0.7948  0.3347
 1437TIP3    H225727   6.297   3.200   2.407  0.5793 -0.9405  1.0255
 1438TIP3   OH225728   6.614   5.150   1.496  0.0107 -0.5082  0.0994
 1438TIP3    H125729   6.622   5.063   1.535  1.6823 -0.7595 -0.7431
 1438TIP3    H225730   6.668   5.206   1.552 -0.6975 -0.1074  0.3764
 1439TIP3   OH225731   4.455   0.299  10.418  0.2659 -0.2550  0.4753
 1439TIP3    H125732   4.540   0.295  10.461 -0.5288  0.7303  2.1836
 1439TIP3    H225733   4.411   0.218  10.443  0.5824 -0.6495 -0.2090
 1440TIP3   OH225734   1.607   5.092   5.142 -0.7031 -0.1290 -0.1584
 1440TIP3    H125735   1.554   5.096   5.221 -1.1113 -2.1412 -0.2914
 1440TIP3    H225736   1.696   5.075   5.173 -0.7584 -0.3097 -0.0981
 1441TIP3   OH225737   0.250   2.537  12.369 -0.6990 -0.0162  0.5741
 1441TIP3    H125738   0.222   2.465  12.312 -2.3272 -1.5258  3.1898
 1441TIP3    H225739   0.327   2.502  12.415 -0.8006  0.3382  1.0176
 1442TIP3   OH225740   5.093   0.162  13.826  0.3318 -0.7442 -0.1710
 1442TIP3    H125741   5.095   0.191  13.917 -2.8318 -1.4165  0.1366
 1442TIP3    H225742   5.134   0.233  13.778 -1.8714  1.5718  1.2826
 1443TIP3   OH225743   4.020   6.787  11.382  0.1838 -0.1931 -0.1465
 1443TIP3    H125744   3.977   6.829  11.456 -0.3409 -0.2735 -0.4090
 1443TIP3    H225745   3.992   6.836  11.305  0.6149 -0.1993 -0.3118
 1444TIP3   OH225746   2.048   4.718   3.380  0.5493 -0.0343  0.1934
 1444TIP3    H125747   2.092   4.784   3.326  1.2370  1.0968  2.1223
 1444TIP3    H225748   1.961   4.755   3.397 -0.4234 -1.2927 -1.7686
 1445TIP3   OH225749   1.513   1.007   1.455 -0.3999  0.2888  0.0196
 1445TIP3    H125750   1.568   0.953   1.512 -0.5135  2.6804  2.5141
 1445TIP3    H225751   1.425   0.970   1.464  0.1229 -1.2912 -1.1268
 1446TIP3   OH225752   3.592   5.155  17.203  0.0928 -0.0008 -1.2089
 1446TIP3    H125753   3.575   5.169  17.110  0.0218 -0.5444 -1.2808
 1446TIP3    H225754   3.514   5.189  17.247  0.5977  1.2686 -1.2710
 1447TIP3   OH225755   4.464   0.727  15.810  0.1043 -0.2071  0.1972
 1447TIP3    H125756   4.516   0.792  15.857 -0.0587  0.1128 -0.0657
 1447TIP3    H225757   4.376   0.765  15.806 -0.3379 -1.0630  1.2826
 1448TIP3   OH225758   2.482   6.317   4.005 -0.0435 -0.7592  0.2006
 1448TIP3    H125759   2.493   6.281   4.092  0.0503  0.8644  0.8736
 1448TIP3    H225760   2.395   6.358   4.007  0.4969  0.4137 -0.0462
 1449TIP3   OH225761   2.827   0.316  17.105  0.0398 -0.2356  0.1231
 1449TIP3    H125762   2.823   0.221  17.105  1.4621 -0.3353  1.7614
 1449TIP3    H225763   2.864   0.339  17.020 -0.8494 -1.1211 -0.4973
 1450TIP3   OH225764   0.661   0.529   2.486 -0.4884  0.1585 -0.5314
 1450TIP3    H125765   0.695   0.463   2.426 -2.0221  0.6351 -1.9759
 1450TIP3    H225766   0.656   0.485   2.571  0.3909 -0.9615 -1.0547
 1451TIP3   OH225767   3.485   3.635   1.499 -1.0642  0.5801  0.0863
 1451TIP3    H125768   3.418   3.622   1.432 -0.3789 -0.0822 -0.4863
 1451TIP3    H225769   3.536   3.710   1.468 -0.7871  0.3131 -0.1144
 1452TIP3   OH225770   4.406   6.663  16.286 -0.4797 -0.6657  0.1129
 1452TIP3    H125771   4.424   6.705  16.202 -1.0205 -0.9748 -0.1619
 1452TIP3    H225772   4.311   6.651  16.287 -0.4602 -0.7897  0.7077
 1453TIP3   OH225773   1.233   3.054   2.518  0.0162  0.3625  0.5866
 1453TIP3    H125774   1.187   3.006   2.450  0.4613 -0.8161  1.0994
 1453TIP3    H225775   1.266   2.986   2.577  0.2219  1.3232  1.6028
 1454TIP3   OH225776   5.312   2.631   0.168  0.2729 -0.1729 -0.8272
 1454TIP3    H125777   5.384   2.571   0.187 -0.8527 -1.0374  0.8227
 1454TIP3    H225778   5.350   2.698   0.112  2.0300 -1.3589 -1.0659
 1455TIP3   OH225779   2.127   2.225   1.646  0.2497  0.1681 -0.1804
 1455TIP3    H125780   2.201   2.228   1.707 -0.4727  0.0335  0.7120
 1455TIP3    H225781   2.053   2.256   1.698 -0.0365  1.7721 -1.4887
 1456TIP3   OH225782   6.728   0.757  11.375 -0.5509 -0.0877 -0.1547
 1456TIP3    H125783   6.659   0.815  11.406 -0.0073  0.0864  0.7572
 1456TIP3    H225784   6.778   0.811  11.313 -0.8882 -0.0332 -0.3811
 1457TIP3   OH225785   0.435   0.226  17.209 -0.6775  0.7462 -0.6431
 1457TIP3    H125786   0.402   0.204  17.296 -0.5821  0.2591 -0.7277
 1457TIP3    H225787   0.463   0.143  17.173  0.2669  1.1048 -0.7345
 1458TIP3   OH225788   0.527   0.351  12.616 -0.0100 -0.3815  0.0373
 1458TIP3    H125789   0.527   0.259  12.644 -0.0909  0.2163  2.1025
 1458TIP3    H225790   0.494   0.399  12.692  1.6830  1.5546 -0.4130
 1459TIP3   OH225791   3.309   0.948   1.423  0.3723 -0.2588  0.4664
 1459TIP3    H125792   3.297   0.880   1.357  1.6923 -0.5171  0.4659
 1459TIP3    H225793   3.242   1.013   1.403 -0.4297 -1.2117  0.0182
 1460TIP3   OH225794   2.758   5.319   3.262 -0.2314 -0.0339  0.4106
 1460TIP3    H125795   2.671   5.350   3.237 -0.3102 -1.5678 -1.3307
 1460TIP3    H225796   2.780   5.368   3.341 -1.4620  2.4546 -0.7615
 1461TIP3   OH225797   2.599   6.048   0.244 -0.3337 -0.1773 -0.2901
 1461TIP3    H125798   2.589   6.095   0.161  1.0585 -1.9314 -1.4867
 1461TIP3    H225799   2.691   6.060   0.268 -0.4939 -0.4942  0.5146
 1462TIP3   OH225800   3.089   3.495   0.644  0.4109 -0.0471 -0.3685
 1462TIP3    H125801   3.029   3.525   0.712  1.3708  0.2636  0.3679
 1462TIP3    H225802   3.079   3.400   0.643  1.2269 -0.1656  1.0426
 1463TIP3   OH225803   3.356   6.297  16.940 -0.1009 -0.5072 -0.0592
 1463TIP3    H125804   3.395   6.222  16.897  1.2151  1.0439 -1.6486
 1463TIP3    H225805   3.292   6.331  16.877  0.3049  0.5224  0.0696
 1464TIP3   OH225806   4.845   2.550  16.575 -0.6295 -0.1648 -0.0502
 1464TIP3    H125807   4.759   2.511  16.592 -0.6000 -0.6476 -0.9657
 1464TIP3    H225808   4.877   2.503  16.498  0.0322  0.6825 -0.2962
 1465TIP3   OH225809   5.178   5.575   4.602 -0.2026 -0.7487  0.1429
 1465TIP3    H125810   5.177   5.581   4.507  0.1772 -0.8341  0.1303
 1465TIP3    H225811   5.270   5.559   4.624 -0.5295 -2.3975  0.4236
 1466TIP3   OH225812   1.316   2.636   1.382 -0.1949 -0.2560 -1.2794
 1466TIP3    H125813   1.378   2.699   1.419 -1.0654  0.6854 -1.4087
 1466TIP3    H225814   1.316   2.564   1.445 -0.6826  0.7532 -0.1097
 1467TIP3   OH225815   6.700   3.288   6.220  0.4463 -0.4527  0.0389
 1467TIP3    H125816   6.664   3.266   6.305 -1.4616  0.0228 -0.6107
 1467TIP3    H225817   6.795   3.287   6.232  0.1774  1.6236  2.6874
 1468TIP3   OH225818   4.951   5.697  13.090 -0.0280  0.4577  0.5949
 1468TIP3    H125819   5.029   5.743  13.061  0.7723 -0.5585  1.1282
 1468TIP3    H225820   4.981   5.638  13.159 -0.8259 -1.5821 -0.7328
 1469TIP3   OH225821   4.764   3.993   4.880  0.4005 -0.3229  0.2778
 1469TIP3    H125822   4.761   4.086   4.860  2.0086 -0.1586  0.7216
 1469TIP3    H225823   4.794   3.952   4.798 -1.1056 -0.5482 -0.1711
 1470TIP3   OH225824   6.613   2.517   6.263  0.4246  0.0651 -0.7510
 1470TIP3    H125825   6.563   2.471   6.195  0.9523  0.1318 -1.1845
 1470TIP3    H225826   6.673   2.573   6.215  2.2733 -1.4537 -0.2475
 1471TIP3   OH225827   0.082   3.275  11.008 -0.2244  0.2952  0.5411
 1471TIP3    H125828   0.056   3.328  10.933 -2.3380  0.6446  1.4893
 1471TIP3    H225829   0.005   3.273  11.064  0.2467 -2.7019  1.1487
 1472TIP3   OH225830   0.620   0.965  15.946 -0.1995 -0.1652  0.5628
 1472TIP3    H125831   0.573   0.936  16.025  1.8494 -1.9329  1.2100
 1472TIP3    H225832   0.676   0.890  15.923  0.3337  0.8797 -1.7115
 1473TIP3   OH225833   5.464   0.980   1.116 -0.2237 -0.3093  0.2852
 1473TIP3    H125834   5.447   0.937   1.032 -0.0997 -0.5338  0.3745
 1473TIP3    H225835   5.523   0.921   1.162 -1.6018 -1.0037  1.2109
 1474TIP3   OH225836   6.046   0.989  12.115  0.1761  0.1308 -0.2067
 1474TIP3    H125837   6.080   0.967  12.202 -3.1460 -0.3449  1.0353
 1474TIP3    H225838   6.063   0.911  12.062  1.2133  0.0017  0.2979
 1475TIP3   OH225839   6.748   4.047   1.590 -0.0968  0.0955 -0.0775
 1475TIP3    H125840   6.741   4.137   1.621 -0.1985 -0.0888  0.4278
 1475TIP3    H225841   6.832   4.016   1.623  0.3753  0.3100 -1.0454
 1476TIP3   OH225842   6.032   3.962  16.874 -0.4407  0.2626 -0.3274
 1476TIP3    H125843   6.005   3.887  16.926 -1.8645  0.9627 -0.0294
 1476TIP3    H225844   6.044   4.033  16.937 -0.7601  0.7317 -0.7843
 1477TIP3   OH225845   6.593   3.166  14.313  0.1550 -0.0059  0.2091
 1477TIP3    H125846   6.678   3.183  14.271  0.7132 -1.2772  0.7946
 1477TIP3    H225847   6.579   3.241  14.370 -0.6780  1.8459 -2.3174
 1478TIP3   OH225848   4.375   1.739  16.197 -0.2291  0.2097  0.1225
 1478TIP3    H125849   4.457   1.713  16.239 -0.0360 -0.4769 -0.6750
 1478TIP3    H225850   4.388   1.721  16.104 -0.8703  1.1624 -0.1662
 1479TIP3   OH225851   3.890   1.454  16.063  0.3027  0.5143 -0.2048
 1479TIP3    H125852   3.836   1.533  16.059 -0.3689  0.0782  0.0989
 1479TIP3    H225853   3.830   1.386  16.095  1.2553  0.2158  0.9852
 1480TIP3   OH225854   5.755   3.561   4.614  0.9640  0.1764 -0.5066
 1480TIP3    H125855   5.739   3.649   4.649 -0.5017  0.0380 -0.7786
 1480TIP3    H225856   5.838   3.569   4.566  0.4487  1.6194 -1.2006
 1481TIP3   OH225857   4.387   5.616  13.084 -0.0594 -0.4293  0.2149
 1481TIP3    H125858   4.398   5.649  12.995  1.5999 -1.4828  0.0050
 1481TIP3    H225859   4.336   5.535  13.073 -1.4752  0.4173  0.4243
 1482TIP3   OH225860   2.500   0.394  13.850  0.1034  0.0608  0.2869
 1482TIP3    H125861   2.473   0.368  13.938 -2.8644  0.2020 -0.5366
 1482TIP3    H225862   2.507   0.311  13.802 -0.2692  0.1379  0.1051
 1483TIP3   OH225863   6.618   5.560  11.169  0.0887  0.3898 -0.1900
 1483TIP3    H125864   6.565   5.635  11.142  0.7841  1.0744  0.3719
 1483TIP3    H225865   6.568   5.484  11.138 -0.9701  1.0496 -0.1134
 1484TIP3   OH225866   5.427   5.688   5.251  0.4359  0.1403  0.3852
 1484TIP3    H125867   5.369   5.732   5.189  1.1282  0.2141 -0.2218
 1484TIP3    H225868   5.389   5.602   5.263  0.5584 -0.0429 -0.5221
 1485TIP3   OH225869   0.902   2.365   0.100 -0.7409 -0.3951 -0.1730
 1485TIP3    H125870   0.939   2.409   0.024  0.3587 -1.5228 -0.3052
 1485TIP3    H225871   0.900   2.433   0.168 -1.1202  0.4359 -1.0059
 1486TIP3   OH225872   5.672   0.202   2.314 -0.1215  0.2961 -0.5407
 1486TIP3    H125873   5.641   0.143   2.245  0.7171 -1.9357  0.9417
 1486TIP3    H225874   5.595   0.252   2.339 -1.4729 -1.9808 -0.0481
 1487TIP3   OH225875   0.336   6.031  16.989  0.2462  0.6811  0.0316
 1487TIP3    H125876   0.348   5.995  17.077  1.8897 -0.2555 -0.5609
 1487TIP3    H225877   0.337   5.954  16.931 -1.0540  1.2581 -0.8056
 1488TIP3   OH225878   0.190   3.905  11.311  0.2348  0.4543 -0.2716
 1488TIP3    H125879   0.160   3.996  11.303  0.3118  0.5551  0.5426
 1488TIP3    H225880   0.110   3.853  11.306  0.0764  0.6329  0.3163
 1489TIP3   OH225881   0.847   4.446   2.660  0.2331  0.2973 -0.2187
 1489TIP3    H125882   0.824   4.418   2.748  0.3142  0.8575 -0.0153
 1489TIP3    H225883   0.887   4.533   2.672  0.3719  0.3170 -0.7887
 1490TIP3   OH225884   2.097   2.470  12.305 -0.1606 -0.0953  0.0681
 1490TIP3    H125885   2.042   2.405  12.262 -0.7426  0.5977 -0.2415
 1490TIP3    H225886   2.065   2.554  12.273  1.1480  0.3102 -0.1903
 1491TIP3   OH225887   0.289   3.520  13.516 -0.2674  0.2321  0.5150
 1491TIP3    H125888   0.284   3.608  13.478  1.0787  0.6423  1.2735
 1491TIP3    H225889   0.198   3.499  13.538 -0.5187  1.7354  1.0004
 1492TIP3   OH225890   5.668   5.807   0.658 -0.1599 -0.0344 -0.2235
 1492TIP3    H125891   5.737   5.761   0.609  0.0600 -0.6622  0.6585
 1492TIP3    H225892   5.614   5.848   0.590  1.6744  1.3522 -0.8926
 1493TIP3   OH225893   2.655   2.474   1.051  0.5023 -0.3288 -0.0494
 1493TIP3    H125894   2.655   2.497   0.958 -0.8693  0.7009  0.1832
 1493TIP3    H225895   2.699   2.389   1.054  1.8217  0.2674 -1.4601
 1494TIP3   OH225896   1.215   5.298  11.127  0.3175  0.1182 -0.3994
 1494TIP3    H125897   1.156   5.373  11.124  1.5995  1.1675  0.0066
 1494TIP3    H225898   1.224   5.272  11.035 -2.0141 -1.0754 -0.3311
 1495TIP3   OH225899   4.356   1.762  12.445 -0.0450 -0.2808  0.0756
 1495TIP3    H125900   4.408   1.842  12.441  0.8835 -0.9344 -1.5128
 1495TIP3    H225901   4.363   1.733  12.536  1.0660  0.4945  0.2441
 1496TIP3   OH225902   0.532   4.339   1.876  1.3392 -0.1130  0.2206
 1496TIP3    H125903   0.621   4.372   1.866  1.7953 -2.0121 -2.4958
 1496TIP3    H225904   0.511   4.299   1.791 -1.5380 -1.0414  1.2975
 1497TIP3   OH225905   4.664   3.458   5.995 -0.1526 -0.0482  0.2557
 1497TIP3    H125906   4.583   3.467   6.046 -0.9466  0.0638 -0.9881
 1497TIP3    H225907   4.683   3.548   5.967 -0.4415 -0.2868 -0.7138
 1498TIP3   OH225908   5.623   5.411  13.735  0.8126  0.0459  0.1499
 1498TIP3    H125909   5.678   5.349  13.783  1.1670 -0.1400 -0.4986
 1498TIP3    H225910   5.548   5.359  13.707  0.7337  0.0929  0.2717
 1499TIP3   OH225911   2.202   1.221   4.264 -0.1875  0.1802 -0.1779
 1499TIP3    H125912   2.266   1.179   4.321 -1.4530 -0.8619  0.4917
 1499TIP3    H225913   2.235   1.206   4.175 -0.1229 -1.3890  0.1039
 1500TIP3   OH225914   0.908   1.689   5.108 -0.2014 -0.8547 -0.2506
 1500TIP3    H125915   0.973   1.698   5.038 -0.5631  0.4193 -0.4228
 1500TIP3    H225916   0.960   1.667   5.186  0.4246  0.0480 -0.4117
 1501TIP3   OH225917   4.074   3.102   1.579  0.5429 -0.0293  0.5816
 1501TIP3    H125918   4.035   3.180   1.617  0.0544 -0.1826  0.4057
 1501TIP3    H225919   4.064   3.035   1.646  1.6589  0.2513  1.0341
 1502TIP3   OH225920   5.193   2.134  12.565  0.0723 -0.4701  0.4191
 1502TIP3    H125921   5.141   2.074  12.619  0.8380 -1.1028  0.4637
 1502TIP3    H225922   5.274   2.146  12.614  0.7592 -1.0177 -0.5530
 1503TIP3   OH225923   2.689   3.603   3.657 -0.0853  0.2298  0.1550
 1503TIP3    H125924   2.740   3.528   3.687 -2.0206 -0.9235  0.6736
 1503TIP3    H225925   2.711   3.611   3.564 -0.4205 -1.4671 -0.0920
 1504TIP3   OH225926   6.110   6.193  12.294  0.3015 -0.2787  0.2094
 1504TIP3    H125927   6.151   6.279  12.286 -0.7007  0.2028  0.1173
 1504TIP3    H225928   6.133   6.148  12.213 -0.6976  0.5895 -0.5863
 1505TIP3   OH225929   4.129   5.148   5.623  0.1239 -0.7106  0.2772
 1505TIP3    H125930   4.171   5.065   5.601 -0.1072 -0.5180 -0.9317
 1505TIP3    H225931   4.036   5.129   5.624  0.1027 -0.5968  0.5753
 1506TIP3   OH225932   3.543   3.746  12.561 -0.3186  0.1687  0.5467
 1506TIP3    H125933   3.631   3.750  12.522  0.0588 -1.8793  1.1133
 1506TIP3    H225934   3.488   3.795  12.500  1.3185  1.9830  0.4833
 1507TIP3   OH225935   3.976   1.453   1.527 -0.5882  0.3021 -0.4131
 1507TIP3    H125936   3.892   1.459   1.572 -0.6759 -0.0404 -0.5287
 1507TIP3    H225937   4.009   1.366   1.550 -0.0405  0.6226  0.0285
 1508TIP3   OH225938   0.135   4.598  11.612 -0.4014 -0.4124 -0.0072
 1508TIP3    H125939   0.095   4.666  11.666  1.1105 -0.9924  1.9090
 1508TIP3    H225940   0.141   4.522  11.669  0.8553 -1.1732 -1.1071
 1509TIP3   OH225941   6.099   0.976  15.560  0.3146 -0.0380 -0.2217
 1509TIP3    H125942   6.147   1.055  15.585 -0.6233  0.8541 -1.1555
 1509TIP3    H225943   6.052   0.949  15.639  1.4641 -0.2786  0.3881
 1510TIP3   OH225944   1.913   4.631   4.571 -1.0907 -0.1658 -0.4883
 1510TIP3    H125945   1.941   4.716   4.536 -1.5836  1.9051  3.7486
 1510TIP3    H225946   1.994   4.582   4.582 -0.6166  0.3842 -1.4776
 1511TIP3   OH225947   6.042   5.496  10.906 -0.4291  0.3256 -0.1264
 1511TIP3    H125948   5.960   5.521  10.863 -0.0040  0.9323 -0.5755
 1511TIP3    H225949   6.029   5.521  10.998 -0.1804  1.7926 -0.4834
 1512TIP3   OH225950   0.968   3.737  14.204  0.5543 -0.7565  0.1248
 1512TIP3    H125951   1.026   3.692  14.143  1.6805  0.4373  0.2949
 1512TIP3    H225952   0.997   3.707  14.290  2.2981  1.3683  0.3295
 1513TIP3   OH225953   0.244   6.506   4.669 -0.0599  0.2876 -0.0487
 1513TIP3    H125954   0.247   6.464   4.755 -2.1892  0.2789  0.0363
 1513TIP3    H225955   0.285   6.591   4.682 -1.5652  0.8268  1.3071
 1514TIP3   OH225956   1.325   1.414   5.262 -0.3997  0.0290 -0.6169
 1514TIP3    H125957   1.399   1.473   5.274 -0.7557  0.2996  0.2690
 1514TIP3    H225958   1.348   1.336   5.312 -0.8709  0.2622 -0.0282
 1515TIP3   OH225959   6.117   6.123  17.191  0.0089  0.1778 -0.2823
 1515TIP3    H125960   6.087   6.060  17.257 -0.7413  0.1737 -0.6187
 1515TIP3    H225961   6.052   6.193  17.194  1.3160  1.3845  0.7060
 1516TIP3   OH225962   2.576   4.221   5.082  0.1791  0.5095  0.2469
 1516TIP3    H125963   2.580   4.257   5.170  0.5084  2.7655 -0.6743
 1516TIP3    H225964   2.635   4.275   5.030  0.7738 -1.4168 -1.1674
 1517TIP3   OH225965   3.679   3.986   1.112  0.0712 -0.5632  0.0121
 1517TIP3    H125966   3.617   4.048   1.150  3.9162  3.5470 -0.1511
 1517TIP3    H225967   3.638   3.961   1.029 -3.2270 -1.2024  1.7176
 1518TIP3   OH225968   6.520   3.592   4.273 -0.1349 -0.6767 -0.2521
 1518TIP3    H125969   6.573   3.642   4.335  0.1601 -0.6898 -0.4874
 1518TIP3    H225970   6.561   3.505   4.272 -0.4513 -0.8257 -0.0817
 1519TIP3   OH225971   3.907   0.053   3.996 -0.2729  0.3607  0.2508
 1519TIP3    H125972   3.961   0.096   3.930  0.3746 -0.9662 -0.1050
 1519TIP3    H225973   3.829   0.024   3.949  0.1721 -0.5525  0.0466
 1520TIP3   OH225974   0.642   1.308  16.999  0.0675  0.0138 -0.1506
 1520TIP3    H125975   0.597   1.274  17.077  1.9035 -1.0117  0.4831
 1520TIP3    H225976   0.615   1.400  16.995 -0.3523 -0.0112  1.4976
 1521TIP3   OH225977   2.532   0.357   2.724 -0.5265 -0.1114  0.4042
 1521TIP3    H125978   2.446   0.349   2.765 -0.6437 -0.6724  0.0592
 1521TIP3    H225979   2.576   0.275   2.746 -1.2213 -1.1869 -2.0184
 1522TIP3   OH225980   3.103   0.163  13.022  0.6392  0.2908  0.2940
 1522TIP3    H125981   3.106   0.076  13.060  2.5805 -0.5567 -1.6728
 1522TIP3    H225982   3.025   0.162  12.965  1.3676 -0.5918 -0.6946
 1523TIP3   OH225983   6.306   4.460   5.920 -0.1300  0.0389 -0.4352
 1523TIP3    H125984   6.364   4.471   5.995  0.5394  0.9137 -1.0713
 1523TIP3    H225985   6.222   4.435   5.958 -0.0335  1.3543  0.6724
 1524TIP3   OH225986   3.305   3.908   1.618  0.0565  0.4637 -0.1180
 1524TIP3    H125987   3.243   3.898   1.690 -0.4756  0.5750 -0.5520
 1524TIP3    H225988   3.381   3.952   1.656 -0.4892  1.1032  0.2262
 1525TIP3   OH225989   6.512   3.238   0.676 -0.1126 -0.3890 -0.1405
 1525TIP3    H125990   6.550   3.239   0.763  0.1523 -1.8510 -0.2229
 1525TIP3    H225991   6.428   3.282   0.686  1.2453  2.2893  0.1817
 1526TIP3   OH225992   0.644   6.222   4.972 -0.2069 -0.3076  0.6799
 1526TIP3    H125993   0.576   6.170   5.014 -0.7231 -0.4200 -0.2701
 1526TIP3    H225994   0.596   6.280   4.913  0.5090 -0.2441  0.1551
 1527TIP3   OH225995   1.207   1.407  16.964  0.4636 -0.6711 -0.2464
 1527TIP3    H125996   1.280   1.447  16.917 -0.3626  0.2673 -0.7438
 1527TIP3    H225997   1.139   1.395  16.898  0.2876 -1.9013  0.1318
 1528TIP3   OH225998   4.324   4.803  14.860 -0.8079 -0.0083  0.7725
 1528TIP3    H125999   4.347   4.881  14.909 -1.5055 -0.2017  1.4078
 1528TIP3    H226000   4.229   4.797  14.867 -0.6417 -1.5847  1.7362
 1529TIP3   OH226001   3.600   3.391  15.254 -0.0193  0.2096 -0.1122
 1529TIP3    H126002   3.550   3.452  15.199  0.1780 -1.4858 -2.2149
 1529TIP3    H226003   3.568   3.304  15.229  2.5011 -0.7840 -0.0211
 1530TIP3   OH226004   0.277   2.788  11.570  0.0685 -0.0934 -0.5145
 1530TIP3    H126005   0.231   2.705  11.556  0.1457 -0.1559 -0.4080
 1530TIP3    H226006   0.354   2.763  11.622  0.8176 -0.1541 -1.6471
 1531TIP3   OH226007   4.348   2.787   1.304  0.0367 -0.1007 -0.3054
 1531TIP3    H126008   4.375   2.745   1.386 -0.2691 -1.6304 -0.9704
 1531TIP3    H226009   4.253   2.797   1.312  0.2700  1.7626  0.4239
 1532TIP3   OH226010   5.588   0.763   1.687  0.0185 -0.2978  0.2603
 1532TIP3    H126011   5.533   0.803   1.620 -0.6755 -2.7883 -0.7388
 1532TIP3    H226012   5.674   0.754   1.645  0.0883 -0.1441  0.3703
 1533TIP3   OH226013   4.229   1.112   4.585  0.0678 -0.2409  0.3617
 1533TIP3    H126014   4.291   1.093   4.655  0.6230  1.6665  0.4031
 1533TIP3    H226015   4.144   1.119   4.630  0.3603  0.5848  0.7855
 1534TIP3   OH226016   6.745   3.607   2.578 -0.3034  0.8282  0.2049
 1534TIP3    H126017   6.785   3.574   2.658  0.3002  0.3875 -0.2753
 1534TIP3    H226018   6.795   3.566   2.508 -1.5732  0.2920 -0.3975
 1535TIP3   OH226019   2.381   1.050   2.933  1.1901 -0.6431 -0.2269
 1535TIP3    H126020   2.421   1.013   2.855  0.5647 -0.6451 -0.5483
 1535TIP3    H226021   2.376   1.144   2.916  0.6542 -0.6960 -0.3744
 1536TIP3   OH226022   6.365   4.513   2.856 -0.3187 -0.3751  0.0330
 1536TIP3    H126023   6.313   4.583   2.815  1.0935 -0.4185 -1.9081
 1536TIP3    H226024   6.363   4.534   2.950 -2.0709  0.7949 -0.2384
 1537TIP3   OH226025   3.578   4.559  14.810 -0.5961  0.4451 -0.1069
 1537TIP3    H126026   3.643   4.605  14.757 -2.4056  2.1160 -0.9609
 1537TIP3    H226027   3.544   4.490  14.752 -0.4978  0.3946 -0.1036
 1538TIP3   OH226028   6.321   1.188   0.916 -0.3086 -0.2854  0.9059
 1538TIP3    H126029   6.367   1.269   0.894 -1.0625  0.1260  0.8180
 1538TIP3    H226030   6.339   1.175   1.009 -0.7012  0.3194  1.0655
 1539TIP3   OH226031   1.394   0.688  14.221  0.6958  0.1565  1.0928
 1539TIP3    H126032   1.370   0.776  14.195  2.0358  0.6102  1.3485
 1539TIP3    H226033   1.329   0.663  14.287 -1.0970  0.0361 -0.6594
 1540TIP3   OH226034   0.236   4.365   0.179 -0.5208  0.0122  0.2857
 1540TIP3    H126035   0.278   4.445   0.148  0.2110 -1.0704 -1.5586
 1540TIP3    H226036   0.152   4.361   0.132  0.3783 -1.3799 -1.2619
 1541TIP3   OH226037   4.432   0.658  13.971 -0.4141 -0.0072  0.4609
 1541TIP3    H126038   4.359   0.655  14.032 -0.0945  0.5734  0.8737
 1541TIP3    H226039   4.472   0.744  13.984  0.2583 -0.2624  0.1479
 1542TIP3   OH226040   5.458   2.763  13.428  0.1215  0.0035 -0.0113
 1542TIP3    H126041   5.454   2.773  13.523  0.1896  0.1675 -0.0276
 1542TIP3    H226042   5.543   2.722  13.412  1.2750  2.4305 -0.2330
 1543TIP3   OH226043   0.373   5.323   3.045  0.0567  0.7550 -0.0276
 1543TIP3    H126044   0.465   5.334   3.023  0.0311  1.0482  0.0105
 1543TIP3    H226045   0.330   5.305   2.962  0.8580 -4.2604  0.5063
 1544TIP3   OH226046   5.567   2.334   2.326  0.2201 -0.2054 -0.1253
 1544TIP3    H126047   5.506   2.314   2.255 -0.0791  1.1168 -0.2471
 1544TIP3    H226048   5.651   2.346   2.283  0.8638 -3.2123  0.1609
 1545TIP3   OH226049   3.696   0.573  16.897 -0.2032  0.0160 -0.3216
 1545TIP3    H126050   3.749   0.652  16.888 -1.9704  1.3547  0.8359
 1545TIP3    H226051   3.751   0.512  16.946  0.6714  0.9975 -0.0796
 1546TIP3   OH226052   1.993   2.768   5.177 -0.0497  0.3277 -0.4416
 1546TIP3    H126053   2.057   2.821   5.129 -0.0225  0.5265 -0.1872
 1546TIP3    H226054   1.993   2.684   5.131  0.3168  0.3617 -0.5103
 1547TIP3   OH226055   4.275   2.405  16.253 -0.5657 -0.0898  0.2389
 1547TIP3    H126056   4.325   2.436  16.329  1.6887 -1.6453 -0.5585
 1547TIP3    H226057   4.210   2.473  16.237  1.0539  1.8042  1.5581
 1548TIP3   OH226058   0.893   0.667  12.329  0.3724 -0.2198  0.0173
 1548TIP3    H126059   0.810   0.636  12.364  1.0102 -1.7630  0.2111
 1548TIP3    H226060   0.909   0.612  12.252  1.5881 -0.4706  0.4298
 1549TIP3   OH226061   0.326   5.836  15.434 -0.6392  0.0363  0.0981
 1549TIP3    H126062   0.292   5.758  15.477 -0.3633  0.5759  1.3260
 1549TIP3    H226063   0.366   5.803  15.353  0.2729 -1.2129  1.0353
 1550TIP3   OH226064   5.942   0.204  14.371  0.7595 -0.0237 -0.4932
 1550TIP3    H126065   5.992   0.278  14.405  1.4443 -0.2662 -0.9700
 1550TIP3    H226066   5.862   0.202  14.425  1.5552 -0.0375  0.7017
 1551TIP3   OH226067   0.051   1.867  14.350  0.0028  0.1048  0.1125
 1551TIP3    H126068   0.020   1.946  14.393  0.0819  0.5798 -0.6816
 1551TIP3    H226069  -0.026   1.810  14.346  0.4291 -0.6593  2.4451
 1552TIP3   OH226070   1.473   5.924  13.252  0.1307 -0.5303  0.2734
 1552TIP3    H126071   1.425   5.993  13.206 -2.9373 -2.5596  0.3358
 1552TIP3    H226072   1.547   5.970  13.291  0.1728  2.1056 -2.6357
 1553TIP3   OH226073   5.701   5.425   0.314 -0.4767 -0.4932  0.2208
 1553TIP3    H126074   5.720   5.509   0.355  0.8353 -0.5264 -0.3117
 1553TIP3    H226075   5.681   5.446   0.223 -0.7922 -0.6921  0.2414
 1554TIP3   OH226076   4.543   2.253  10.613  1.2472 -0.3192  0.2514
 1554TIP3    H126077   4.569   2.325  10.556  0.9705  0.7377  1.4269
 1554TIP3    H226078   4.465   2.216  10.571  1.6826 -0.2624 -0.6146
 1555TIP3   OH226079   1.376   1.210   2.218 -0.2454  0.0495  0.1014
 1555TIP3    H126080   1.332   1.189   2.136  1.4056  1.0900 -1.0888
 1555TIP3    H226081   1.416   1.128   2.245 -0.2983 -0.1682 -0.4702
 1556TIP3   OH226082   5.207   4.173  16.875  0.1956  0.2510  0.7511
 1556TIP3    H126083   5.295   4.158  16.842  1.0807  0.0822  3.0402
 1556TIP3    H226084   5.218   4.179  16.970 -1.9409  2.5898  0.9167
 1557TIP3   OH226085   1.982   2.853   3.229  0.2502 -0.1068  0.1545
 1557TIP3    H126086   1.982   2.922   3.295  2.1105 -0.0645  0.1353
 1557TIP3    H226087   1.891   2.823   3.225  0.2961 -0.8923  3.5487
 1558TIP3   OH226088   5.316   2.427  11.107 -0.1513 -0.6030  0.0449
 1558TIP3    H126089   5.372   2.479  11.050  0.9230 -0.1599  1.5058
 1558TIP3    H226090   5.263   2.374  11.046 -0.1268  0.9928 -1.3987
 1559TIP3   OH226091   3.304   1.427  11.226  0.0035 -0.2117  0.1947
 1559TIP3    H126092   3.384   1.394  11.187  1.0472  2.5512 -0.1466
 1559TIP3    H226093   3.272   1.355  11.281  1.6592 -2.0237 -1.1682
 1560TIP3   OH226094   2.447   3.650  12.154 -0.8839 -0.1809  0.3680
 1560TIP3    H126095   2.484   3.601  12.080 -0.4392 -0.7670  0.9742
 1560TIP3    H226096   2.444   3.587  12.226  0.7394  0.9553  1.4752
 1561TIP3   OH226097   2.564   0.913   2.357 -0.5816 -0.1030  0.2543
 1561TIP3    H126098   2.547   0.941   2.267  1.6471  1.9230  0.4173
 1561TIP3    H226099   2.506   0.966   2.411 -0.7137 -0.1121  0.1206
 1562TIP3   OH226100   4.062   2.001  14.015 -0.3355 -0.0494 -0.0318
 1562TIP3    H126101   3.990   2.052  14.052 -1.3205 -0.2180 -1.6426
 1562TIP3    H226102   4.134   2.064  14.007 -0.4643  0.2479  1.1042
 1563TIP3   OH226103   5.827   5.031  14.519  0.2018  0.7583 -0.0740
 1563TIP3    H126104   5.806   5.027  14.612 -1.4705 -0.5762 -0.4893
 1563TIP3    H226105   5.812   4.942  14.487 -1.6733  1.7432 -2.1114
 1564TIP3   OH226106   3.491   5.748   2.457  0.5273 -0.4758 -0.2454
 1564TIP3    H126107   3.514   5.814   2.391  1.7660  0.0248  0.6579
 1564TIP3    H226108   3.562   5.684   2.451  0.7121 -0.3592  0.6857
 1565TIP3   OH226109   3.182   0.358   5.102  0.5503 -0.5281  0.2629
 1565TIP3    H126110   3.146   0.333   5.017  0.0623  0.1871  0.2525
 1565TIP3    H226111   3.214   0.448   5.089 -0.7512  0.0914  1.1955
 1566TIP3   OH226112   3.357   2.984   1.506  0.0833  0.0126  0.2233
 1566TIP3    H126113   3.436   2.931   1.507  0.9526  1.2927  0.6741
 1566TIP3    H226114   3.365   3.039   1.428  0.5178  1.4226  1.2396
 1567TIP3   OH226115   5.012   4.645  14.129 -0.2739  0.5046  0.1397
 1567TIP3    H126116   5.034   4.619  14.219  0.1422 -0.5708 -0.2736
 1567TIP3    H226117   4.916   4.639  14.126 -0.2537 -0.0023  0.3508
 1568TIP3   OH226118   2.404   5.523  13.601 -0.1577  0.4672 -0.7683
 1568TIP3    H126119   2.324   5.472  13.606 -1.8785  3.0755 -0.7348
 1568TIP3    H226120   2.471   5.466  13.638 -1.6500 -2.3604 -2.2660
 1569TIP3   OH226121   5.256   2.428   4.291 -0.7901 -0.1779  0.1160
 1569TIP3    H126122   5.218   2.340   4.295 -1.2573 -0.1289 -2.5501
 1569TIP3    H226123   5.214   2.469   4.216  0.4984  1.8324  0.4628
 1570TIP3   OH226124   0.906   2.358   1.649 -0.3563  0.0911  0.6347
 1570TIP3    H126125   0.892   2.294   1.719  0.6815 -1.4748 -0.5588
 1570TIP3    H226126   0.993   2.393   1.666 -1.1688  1.6645  1.6415
 1571TIP3   OH226127   2.693   6.254   0.662 -0.3385  0.0598 -0.1817
 1571TIP3    H126128   2.636   6.183   0.635 -0.0962 -0.5912  0.9949
 1571TIP3    H226129   2.635   6.329   0.673 -1.0446 -0.7278  1.4937
 1572TIP3   OH226130   0.450   2.553  15.229  0.5230  0.3899 -0.1086
 1572TIP3    H126131   0.444   2.634  15.180  0.0953  0.0670 -0.6009
 1572TIP3    H226132   0.421   2.485  15.167 -2.4444  0.2586  1.3154
 1573TIP3   OH226133   3.348   3.265   3.488 -0.2442  0.4878  0.4548
 1573TIP3    H126134   3.358   3.347   3.441 -0.6158  1.0039  1.2539
 1573TIP3    H226135   3.286   3.214   3.436  0.8801  0.2336 -0.6517
 1574TIP3   OH226136   3.859   0.767   3.208 -0.7400 -0.6207 -0.2003
 1574TIP3    H126137   3.856   0.697   3.273 -1.2668 -0.6284 -0.2313
 1574TIP3    H226138   3.780   0.755   3.155 -1.2094  0.4273  0.2508
 1575TIP3   OH226139   0.883   5.249   5.766 -0.0484  0.1131  0.3723
 1575TIP3    H126140   0.850   5.327   5.810 -1.2365 -0.9360  1.3822
 1575TIP3    H226141   0.935   5.283   5.693  0.6564  1.8572  1.6466
 1576TIP3   OH226142   5.744   0.693  12.269  0.4525  0.0522 -0.4098
 1576TIP3    H126143   5.786   0.761  12.322  1.2570 -0.8266  0.0918
 1576TIP3    H226144   5.785   0.611  12.297 -1.4421 -0.8141 -0.0457
 1577TIP3   OH226145   5.148   0.471  11.566 -0.3399  0.2719  0.1690
 1577TIP3    H126146   5.175   0.433  11.482 -2.4365  0.8678 -0.7994
 1577TIP3    H226147   5.221   0.528  11.591  0.2305  0.2303 -1.3505
 1578TIP3   OH226148   4.822   6.477   6.024  0.3649  0.0133  0.3098
 1578TIP3    H126149   4.915   6.454   6.034 -0.1067 -1.6092  1.2788
 1578TIP3    H226150   4.797   6.512   6.109  0.2372  0.9995 -0.1342
 1579TIP3   OH226151   3.729   6.653  12.247 -0.2014  0.8734 -0.3590
 1579TIP3    H126152   3.796   6.585  12.247  2.0236  2.9622 -2.7233
 1579TIP3    H226153   3.719   6.677  12.339  1.4712 -0.2530  0.1377
 1580TIP3   OH226154   1.303   2.498  15.074 -0.8660 -0.0613 -0.1421
 1580TIP3    H126155   1.287   2.593  15.076 -0.9611 -0.0321 -1.7864
 1580TIP3    H226156   1.216   2.459  15.082 -0.6480 -0.0803  2.9246
 1581TIP3   OH226157   4.060   4.838  15.736  0.4340  0.0942 -0.1034
 1581TIP3    H126158   4.148   4.862  15.764  1.0832 -1.4550 -0.7738
 1581TIP3    H226159   4.032   4.910  15.680  1.1150  0.7640  0.4074
 1582TIP3   OH226160   1.947   4.996   0.348  0.4173  0.2004  0.1740
 1582TIP3    H126161   1.864   5.003   0.300  1.7051  0.9191 -2.0104
 1582TIP3    H226162   1.984   4.912   0.320  1.0764  0.5262  0.0532
 1583TIP3   OH226163   3.232   4.440  16.200  0.5451 -0.1769  0.4162
 1583TIP3    H126164   3.161   4.490  16.242 -0.3821 -1.9212  0.9898
 1583TIP3    H226165   3.312   4.485  16.227 -0.3152  1.4723  0.2546
 1584TIP3   OH226166   3.944   4.484   5.199  0.1009  0.0966  0.3545
 1584TIP3    H126167   3.854   4.464   5.226  1.1824 -2.3743  2.2672
 1584TIP3    H226168   3.985   4.519   5.278  1.3691 -0.6893  0.0601
 1585TIP3   OH226169   1.684   3.134  16.493  0.0316 -0.1397  0.1119
 1585TIP3    H126170   1.699   3.181  16.575 -0.0594 -0.2252  0.1772
 1585TIP3    H226171   1.765   3.145  16.444 -0.1049  0.3445 -0.0043
 1586TIP3   OH226172   0.815   1.938  12.111 -0.3566  0.1002 -0.1947
 1586TIP3    H126173   0.723   1.961  12.124 -0.2469 -0.4483  1.6032
 1586TIP3    H226174   0.813   1.875  12.038 -1.2168  1.3519 -1.2707
 1587TIP3   OH226175   1.995   6.404   5.389 -0.3734 -0.0418  0.6696
 1587TIP3    H126176   2.083   6.413   5.425 -0.6115  0.2336  1.1903
 1587TIP3    H226177   1.991   6.471   5.320  0.7172 -1.8043 -1.1685
 1588TIP3   OH226178   6.046   2.277   2.153 -0.0791 -0.6926  0.4921
 1588TIP3    H126179   5.981   2.239   2.212 -1.4992  2.5796  1.1829
 1588TIP3    H226180   6.087   2.347   2.204 -0.8107  1.7315 -2.0780
 1589TIP3   OH226181   1.350   2.200   4.827 -0.0521 -0.5613  0.1009
 1589TIP3    H126182   1.408   2.156   4.888  0.0547 -1.4496 -0.6173
 1589TIP3    H226183   1.398   2.278   4.799 -0.1343 -0.1170  1.1936
 1590TIP3   OH226184   3.088   5.864   6.267 -0.0750 -0.6576  0.4934
 1590TIP3    H126185   2.993   5.850   6.266 -0.2257  0.2737  1.2781
 1590TIP3    H226186   3.125   5.776   6.281 -0.7868 -1.1440 -0.6292
 1591TIP3   OH226187   2.161   4.989   3.021  0.5612 -0.4958 -0.4333
 1591TIP3    H126188   2.114   4.999   3.103  2.4103  0.8973  0.4961
 1591TIP3    H226189   2.172   4.895   3.010  0.4315 -0.6831  0.9888
 1592TIP3   OH226190   2.314   0.513  17.161  0.0016  0.3184 -0.1944
 1592TIP3    H126191   2.301   0.436  17.215 -0.7797  0.7167  0.2034
 1592TIP3    H226192   2.407   0.533  17.168  0.1154 -0.3156  0.0727
 1593TIP3   OH226193   3.316   3.858   0.711 -0.0622  0.1669  0.4174
 1593TIP3    H126194   3.253   3.791   0.683  0.3570  0.8256 -2.2341
 1593TIP3    H226195   3.274   3.941   0.689  0.3668  0.7179  1.6400
 1594TIP3   OH226196   5.998   4.369  10.673 -0.1611 -0.4043  0.2003
 1594TIP3    H126197   5.937   4.354  10.745  1.7009  1.5225  2.2688
 1594TIP3    H226198   5.976   4.457  10.641  3.3744  1.6627  3.0225
 1595TIP3   OH226199   4.644   0.114  12.532  0.1053  0.8671  0.1408
 1595TIP3    H126200   4.621   0.025  12.507  2.2818 -0.7404  3.6166
 1595TIP3    H226201   4.715   0.138  12.472 -1.3539  0.8182 -1.6614
 1596TIP3   OH226202   6.068   4.880  12.303 -0.1713 -0.7800 -0.1806
 1596TIP3    H126203   6.038   4.857  12.391 -0.4995  1.5294  0.3530
 1596TIP3    H226204   6.160   4.852  12.301 -0.2352 -1.0774  0.8149
 1597TIP3   OH226205   3.775   0.926  16.053  0.1168  0.0001 -0.3066
 1597TIP3    H126206   3.800   0.911  16.145 -0.3638  0.7578 -0.0504
 1597TIP3    H226207   3.737   0.843  16.025  0.9894 -0.4940 -0.0602
 1598TIP3   OH226208   6.302   5.508  14.974 -0.4024 -0.4619 -0.1359
 1598TIP3    H126209   6.239   5.491  15.045 -1.6105 -0.5262 -1.1939
 1598TIP3    H226210   6.336   5.595  14.992 -1.0274 -0.3027  0.2822
 1599TIP3   OH226211   6.271   3.712   0.766 -0.0867 -0.1068 -0.1065
 1599TIP3    H126212   6.242   3.669   0.846  0.2432  1.5961  0.9456
 1599TIP3    H226213   6.216   3.675   0.697 -0.8267 -1.0890  0.9995
 1600TIP3   OH226214   0.582   5.732  11.806 -0.1125  0.6744  0.3523
 1600TIP3    H126215   0.561   5.719  11.714 -0.5190  1.6754  0.2964
 1600TIP3    H226216   0.668   5.774  11.805 -0.4469  1.3670  0.3995
 1601TIP3   OH226217   3.015   6.491   2.725  0.5760 -0.1075 -0.2336
 1601TIP3    H126218   3.026   6.405   2.684  0.4466 -1.6056  2.7239
 1601TIP3    H226219   3.104   6.520   2.744  0.6079  0.3285 -1.0210
 1602TIP3   OH226220   6.550   0.319   5.583  0.2026  0.1756 -0.5052
 1602TIP3    H126221   6.567   0.226   5.601  1.8053  0.5760  0.1122
 1602TIP3    H226222   6.468   0.338   5.628  1.5062 -0.1430  2.0784
 1603TIP3   OH226223   2.411   3.888   2.345  0.4086 -0.6940 -0.6357
 1603TIP3    H126224   2.395   3.896   2.251  0.9489  0.3200 -0.6529
 1603TIP3    H226225   2.374   3.804   2.369 -1.9250  0.1148 -1.2969
 1604TIP3   OH226226   6.629   6.248   1.030  0.0380  0.3608 -0.0942
 1604TIP3    H126227   6.654   6.331   1.070  0.6153  0.9029 -1.5559
 1604TIP3    H226228   6.553   6.270   0.977 -0.0257 -0.1299 -0.2024
 1605TIP3   OH226229   4.050   4.502   2.268 -1.0274 -0.1555 -0.1704
 1605TIP3    H126230   4.041   4.596   2.286 -1.2909 -0.0713 -0.7524
 1605TIP3    H226231   4.139   4.481   2.296 -1.1109  0.1787  0.3628
 1606TIP3   OH226232   3.742   3.218  16.599  0.1635  0.2834 -0.3679
 1606TIP3    H126233   3.790   3.295  16.569  1.4869 -0.1205  0.6023
 1606TIP3    H226234   3.811   3.152  16.614 -0.5586  0.0742  2.2508
 1607TIP3   OH226235   4.894   1.265  12.763  0.4503  0.2104  0.2529
 1607TIP3    H126236   4.945   1.346  12.772  0.6120  0.1608 -0.2091
 1607TIP3    H226237   4.953   1.204  12.719  0.1793 -0.0185  0.2021
 1608TIP3   OH226238   5.214   5.388  14.156  0.1282 -0.4480 -0.3791
 1608TIP3    H126239   5.193   5.479  14.177 -0.4473 -0.9042  1.1204
 1608TIP3    H226240   5.142   5.338  14.194  0.7081 -1.5591 -0.7438
 1609TIP3   OH226241   2.758   4.570   4.675 -0.5303  0.5254 -0.3955
 1609TIP3    H126242   2.681   4.608   4.631 -0.6687  2.0196  1.0940
 1609TIP3    H226243   2.722   4.520   4.747 -0.1239  1.2268  0.3050
 1610TIP3   OH226244   4.423   3.302  11.970  0.0419 -0.5732 -0.5691
 1610TIP3    H126245   4.427   3.283  12.064  2.1722 -1.8388 -0.8750
 1610TIP3    H226246   4.462   3.389  11.962  0.6106 -0.8057 -0.3594
 1611TIP3   OH226247   5.363   3.125  13.005  0.3016  0.5480  0.0742
 1611TIP3    H126248   5.384   3.078  13.086 -1.1166  1.3353  0.9212
 1611TIP3    H226249   5.428   3.195  13.001  0.0989  0.7805  0.7703
 1612TIP3   OH226250   1.844   3.078  15.547  0.0122  0.1609 -0.2478
 1612TIP3    H126251   1.848   3.017  15.473  3.9616  0.7058 -0.5845
 1612TIP3    H226252   1.840   3.022  15.624  0.0545 -0.4836 -0.7079
 1613TIP3   OH226253   0.849   0.710  12.684 -0.8708 -0.2889 -0.0188
 1613TIP3    H126254   0.845   0.658  12.603 -0.8422 -0.5385  0.1395
 1613TIP3    H226255   0.896   0.654  12.746  4.7718  2.2864 -1.6579
 1614TIP3   OH226256   3.928   5.148   5.334 -0.0049 -0.2301 -0.1559
 1614TIP3    H126257   3.868   5.169   5.405 -0.2329 -0.2246 -0.3484
 1614TIP3    H226258   3.965   5.063   5.358 -0.4740 -0.4728 -0.2846
 1615TIP3   OH226259   1.388   4.367  14.409  0.5426  0.4921  0.0164
 1615TIP3    H126260   1.343   4.295  14.364 -1.5953  1.4993  0.4781
 1615TIP3    H226261   1.453   4.398  14.345 -0.4759  0.0129 -1.2770
 1616TIP3   OH226262   1.117   1.266   1.277 -0.4085  0.5505 -0.4476
 1616TIP3    H126263   1.132   1.257   1.183  1.1317 -2.6213  0.0557
 1616TIP3    H226264   1.187   1.325   1.307  1.7415 -1.7978 -0.6603
 1617TIP3   OH226265   6.280   6.548  15.871  0.3532  0.1938 -0.1616
 1617TIP3    H126266   6.196   6.503  15.862 -0.9174  2.3023  0.8356
 1617TIP3    H226267   6.327   6.498  15.937 -0.5357 -0.3916  0.0420
 1618TIP3   OH226268   2.780   3.132  15.703 -0.4002  0.2546 -0.3735
 1618TIP3    H126269   2.816   3.091  15.782 -0.1036 -0.6602 -0.9645
 1618TIP3    H226270   2.706   3.076  15.679  0.1816 -0.1090 -1.3521
 1619TIP3   OH226271   1.257   5.815   4.862  0.0457 -0.1140 -0.3382
 1619TIP3    H126272   1.317   5.787   4.931  1.0317 -0.3996 -1.3071
 1619TIP3    H226273   1.204   5.737   4.844 -0.9533  0.2629  0.8288
 1620TIP3   OH226274   1.843   6.416  14.493 -0.2601  0.8005  0.0842
 1620TIP3    H126275   1.767   6.426  14.551  0.2616 -0.5969  1.0306
 1620TIP3    H226276   1.825   6.335  14.444  0.2813  0.8480 -0.1978
 1621TIP3   OH226277   5.383   4.618   1.101  0.3981 -0.0774  0.4311
 1621TIP3    H126278   5.369   4.652   1.190 -2.0493  0.2381 -0.0366
 1621TIP3    H226279   5.334   4.536   1.098 -1.2328  0.9071 -1.2078
 1622TIP3   OH226280   2.721   6.609  16.207 -0.1729  0.4992 -0.2984
 1622TIP3    H126281   2.664   6.545  16.164  1.5210 -1.5970  0.4427
 1622TIP3    H226282   2.735   6.572  16.295  2.5136  0.8108 -0.5609
 1623TIP3   OH226283   3.379   5.948   3.564 -0.1520  0.2649 -0.4167
 1623TIP3    H126284   3.345   5.974   3.478 -2.2485 -2.9823 -0.6156
 1623TIP3    H226285   3.326   5.998   3.627 -0.9275  0.0617 -0.9047
 1624TIP3   OH226286   6.739   5.409  13.857 -0.5720  0.0662 -0.3005
 1624TIP3    H126287   6.680   5.333  13.859  0.1452 -0.5153 -0.8158
 1624TIP3    H226288   6.680   5.485  13.853 -1.3041 -0.4298  0.8642
 1625TIP3   OH226289   5.719   5.244   3.111  0.0440 -0.6994  0.2688
 1625TIP3    H126290   5.661   5.289   3.172  0.7494  1.5028 -0.6482
 1625TIP3    H226291   5.685   5.267   3.024  2.1852  0.5515 -0.2845
 1626TIP3   OH226292   0.781   3.727   6.066  0.6358 -0.4107  0.6335
 1626TIP3    H126293   0.745   3.672   6.135 -1.7767 -0.1895 -0.3849
 1626TIP3    H226294   0.739   3.812   6.078  0.9049 -0.0988 -0.5255
 1627TIP3   OH226295   0.887   3.444   1.477 -0.0223 -0.0149  0.3412
 1627TIP3    H126296   0.903   3.475   1.566  0.9835  0.0821  0.1292
 1627TIP3    H226297   0.873   3.524   1.425  0.2094 -0.0309  0.2535
 1628TIP3   OH226298   0.324   4.572   6.376  0.5043  0.0565  0.3470
 1628TIP3    H126299   0.352   4.536   6.461  1.6068  0.8644  0.3299
 1628TIP3    H226300   0.380   4.527   6.312  0.8288  0.6789  0.1947
 1629TIP3   OH226301   6.757   6.205  13.481  0.1604 -0.2209 -0.0900
 1629TIP3    H126302   6.701   6.196  13.404  0.8647  0.0078 -0.6274
 1629TIP3    H226303   6.753   6.298  13.504  0.3846 -0.1880 -0.1802
 1630TIP3   OH226304   4.283   0.611  16.855  0.6394 -0.0350 -0.1623
 1630TIP3    H126305   4.370   0.572  16.859  0.0860 -1.1486  1.4203
 1630TIP3    H226306   4.256   0.619  16.947  0.2582  2.9899 -0.4764
 1631TIP3   OH226307   0.358   3.036  14.626 -0.2106 -0.0281 -1.0313
 1631TIP3    H126308   0.342   3.059  14.535  0.9647  1.3450 -0.9165
 1631TIP3    H226309   0.313   3.105  14.676  1.1481  0.5747 -0.6227
 1632TIP3   OH226310   5.881   1.192  11.338 -0.1639  0.0917  0.1013
 1632TIP3    H126311   5.821   1.254  11.298  0.8697  0.6224 -0.6440
 1632TIP3    H226312   5.829   1.112  11.350 -0.9259  0.4482 -0.8112
 1633TIP3   OH226313   5.031   4.624  14.680 -0.0528 -0.4173  0.0265
 1633TIP3    H126314   4.951   4.634  14.732 -0.8976  0.1158 -1.3615
 1633TIP3    H226315   5.075   4.709  14.687  0.1795 -0.5678  0.4226
 1634TIP3   OH226316   4.361   6.567   0.332 -0.3053  0.1145 -0.0451
 1634TIP3    H126317   4.353   6.487   0.383  1.0068 -0.1278 -0.2092
 1634TIP3    H226318   4.330   6.544   0.245  0.1705 -0.2480 -0.1202
 1635TIP3   OH226319   0.398   5.722   4.647  0.8534  0.9589  0.2978
 1635TIP3    H126320   0.426   5.720   4.738 -0.9702 -1.9619  0.8468
 1635TIP3    H226321   0.330   5.789   4.644 -2.0306 -1.7855  2.0539
 1636TIP3   OH226322   1.786   1.340  12.829 -0.3932  0.3284  0.1664
 1636TIP3    H126323   1.861   1.281  12.834  1.0975  2.2011  0.6394
 1636TIP3    H226324   1.806   1.398  12.755 -1.5485  0.6278  0.0707
 1637TIP3   OH226325   6.380   0.953   2.558 -0.0033  0.4892  0.6371
 1637TIP3    H126326   6.436   0.961   2.635 -1.3293 -0.5068  1.7330
 1637TIP3    H226327   6.428   0.999   2.489  1.1573  1.4999  2.0693
 1638TIP3   OH226328   6.376   4.133   1.515 -0.1035 -0.1455 -0.2353
 1638TIP3    H126329   6.401   4.100   1.602  0.4222  4.8228  1.6803
 1638TIP3    H226330   6.280   4.129   1.515 -0.0644 -1.6251 -0.1085
 1639TIP3   OH226331   1.383   0.620  16.347 -0.3629 -0.2484 -0.3782
 1639TIP3    H126332   1.387   0.691  16.283  0.0168 -0.5366 -0.6774
 1639TIP3    H226333   1.290   0.598  16.353 -0.5055  0.4056 -0.1336
 1640TIP3   OH226334   4.897   4.887   0.925 -0.4091  0.4375  0.4971
 1640TIP3    H126335   4.984   4.849   0.925 -1.0589 -1.1618 -1.1842
 1640TIP3    H226336   4.848   4.835   0.989  0.0717  1.8617  2.0398
 1641TIP3   OH226337   5.410   1.386   1.387 -0.1650 -0.6086  0.3583
 1641TIP3    H126338   5.338   1.340   1.430  0.1238 -1.2578  0.1615
 1641TIP3    H226339   5.404   1.359   1.295 -0.3847  0.2569  0.1152
 1642TIP3   OH226340   1.167   0.279  15.103 -0.3578 -0.5859 -0.0519
 1642TIP3    H126341   1.165   0.350  15.039  2.4093  0.6646  1.1641
 1642TIP3    H226342   1.151   0.200  15.052 -1.6693  0.7223 -1.7099
 1643TIP3   OH226343   6.391   6.381   4.265 -1.2417 -0.1531  0.5252
 1643TIP3    H126344   6.486   6.374   4.267 -1.3238 -1.7958 -0.4865
 1643TIP3    H226345   6.373   6.448   4.199 -0.7712  0.6065  1.1693
 1644TIP3   OH226346   0.056   6.599  16.658  0.1967 -0.2206  0.3169
 1644TIP3    H126347   0.058   6.574  16.750  0.6097  0.6924  0.5588
 1644TIP3    H226348   0.128   6.549  16.618  0.7044  0.2083  0.6971
 1645TIP3   OH226349   1.364   5.289  15.599  0.0857  0.1463  0.0605
 1645TIP3    H126350   1.370   5.382  15.580  0.7214  0.1074  0.0630
 1645TIP3    H226351   1.455   5.259  15.600 -0.2002 -1.0348 -2.8182
 1646TIP3   OH226352   4.204   4.326   4.144  0.4890 -0.2843  0.7401
 1646TIP3    H126353   4.201   4.270   4.221  0.6239 -1.7370 -0.2888
 1646TIP3    H226354   4.246   4.273   4.077 -1.5993  0.1466 -0.9827
 1647TIP3   OH226355   1.023   2.910   5.502  0.2782  0.3036  0.6969
 1647TIP3    H126356   1.058   2.836   5.454  1.8699  1.4815 -0.0012
 1647TIP3    H226357   0.998   2.874   5.588 -1.4776 -1.5560 -0.5407
 1648TIP3   OH226358   5.695   4.025  12.929 -0.3900 -0.6389  0.3894
 1648TIP3    H126359   5.656   3.954  12.980 -1.2341 -2.0600 -2.1521
 1648TIP3    H226360   5.731   3.983  12.852  3.0507  1.1633  0.9363
 1649TIP3   OH226361   3.980   5.351   0.570  0.7848 -0.4640  0.6574
 1649TIP3    H126362   3.951   5.295   0.642 -1.2579 -2.9057 -1.9452
 1649TIP3    H226363   3.942   5.312   0.492  0.8806  3.5094 -1.5374
 1650TIP3   OH226364   4.589   3.922   0.099 -0.2520 -0.5146 -0.4111
 1650TIP3    H126365   4.511   3.976   0.110 -0.8705 -1.4784 -0.0111
 1650TIP3    H226366   4.654   3.961   0.158 -0.2248  0.6459 -1.1855
 1651TIP3   OH226367   3.419   1.794  10.359  0.1888  0.0902 -0.2194
 1651TIP3    H126368   3.432   1.716  10.304 -0.0279  0.1885 -0.4109
 1651TIP3    H226369   3.462   1.864  10.310  1.4969 -0.1500  0.5575
 1652TIP3   OH226370   0.517   5.803   5.799 -0.2624 -0.3374  0.1957
 1652TIP3    H126371   0.546   5.717   5.830  0.9920 -0.6513 -1.7870
 1652TIP3    H226372   0.503   5.854   5.879 -0.1896 -2.1119  1.3568
 1653TIP3   OH226373   1.275   5.832   1.883  0.6477 -0.8984  0.2051
 1653TIP3    H126374   1.295   5.739   1.896  2.2827 -1.0094 -2.7723
 1653TIP3    H226375   1.296   5.849   1.791  0.6412  2.5064  0.7675
 1654TIP3   OH226376   0.624   1.044   6.019  0.2579 -0.0425 -0.2546
 1654TIP3    H126377   0.615   1.140   6.015  2.9605  0.2798  0.4017
 1654TIP3    H226378   0.590   1.021   6.106  0.8847  0.4834  0.1334
 1655TIP3   OH226379   5.785   2.759   4.012 -0.1013 -0.2035  0.2794
 1655TIP3    H126380   5.714   2.823   4.001 -2.6902 -3.2118 -1.4371
 1655TIP3    H226381   5.746   2.689   4.064  0.9185 -2.8866 -2.4408
 1656TIP3   OH226382   5.912   2.485   0.852  0.3891 -0.0977  0.8230
 1656TIP3    H126383   5.929   2.578   0.864  1.3584 -0.2504  0.7096
 1656TIP3    H226384   5.973   2.442   0.913  1.2079 -0.6965 -0.3919
 1657TIP3   OH226385   2.566   1.894   3.840  0.1747 -0.2418 -0.1157
 1657TIP3    H126386   2.555   1.806   3.802  1.3353  0.1153 -1.3156
 1657TIP3    H226387   2.593   1.948   3.766  3.0921  0.3645  1.3386
 1658TIP3   OH226388   4.915   5.131  14.724 -0.1283  0.2615  0.8446
 1658TIP3    H126389   4.930   5.053  14.671 -1.5301  0.8855 -0.4877
 1658TIP3    H226390   4.829   5.117  14.764  0.5645  0.1563  2.3553
 1659TIP3   OH226391   0.279   2.111   5.269  0.6526  0.4318 -0.2013
 1659TIP3    H126392   0.230   2.069   5.340  0.4020  0.9267 -0.0786
 1659TIP3    H226393   0.268   2.205   5.285  2.0704  0.5462  0.1139
 1660TIP3   OH226394   5.989   5.827   3.959  1.0283  0.3112  0.4384
 1660TIP3    H126395   5.996   5.734   3.983 -0.4880 -0.5158 -2.1066
 1660TIP3    H226396   6.080   5.856   3.947  1.4819 -1.0823  0.4199
 1661TIP3   OH226397   4.238   2.372   3.562 -0.2339 -0.5595 -0.0188
 1661TIP3    H126398   4.327   2.351   3.533 -0.5912 -0.7049 -1.0369
 1661TIP3    H226399   4.201   2.288   3.587 -0.1521 -0.5299  0.1972
 1662TIP3   OH226400   4.381   5.202  14.791 -0.3002  0.5269 -0.9064
 1662TIP3    H126401   4.404   5.248  14.710  2.1941  0.0592 -0.5317
 1662TIP3    H226402   4.304   5.248  14.823  0.0846  2.2628 -2.3236
 1663TIP3   OH226403   3.863   6.772  15.652  0.0310  0.8704  0.5816
 1663TIP3    H126404   3.870   6.677  15.664 -0.2662  0.9776  1.6404
 1663TIP3    H226405   3.790   6.783  15.591  0.4718  0.3970 -0.0461
 1664TIP3   OH226406   3.724   5.582  16.545  0.3132 -0.1581  0.1441
 1664TIP3    H126407   3.728   5.631  16.463 -0.6897  2.0303  1.3283
 1664TIP3    H226408   3.632   5.586  16.570  0.7194 -0.2402  1.6950
 1665TIP3   OH226409   1.833   5.459   6.737 -0.4079 -0.0963 -0.4223
 1665TIP3    H126410   1.874   5.532   6.691  0.4976  0.2476  0.9239
 1665TIP3    H226411   1.885   5.383   6.711 -0.0872  0.0536 -0.2308
 1666TIP3   OH226412   4.462   0.739   5.137 -0.0762  0.5951 -0.3746
 1666TIP3    H126413   4.446   0.817   5.084 -0.8990  0.9391  0.3717
 1666TIP3    H226414   4.481   0.670   5.073 -0.9798  1.0226 -1.1161
 1667TIP3   OH226415   2.814   0.960   3.718  0.2192  0.7246 -0.3848
 1667TIP3    H126416   2.905   0.950   3.744  0.4164 -2.9590 -2.2590
 1667TIP3    H226417   2.814   1.035   3.658  1.5300  2.3740  1.6119
 1668TIP3   OH226418   3.387   5.303   3.341  0.0077 -0.0400  0.3363
 1668TIP3    H126419   3.376   5.392   3.308 -0.3628  0.1553  0.9762
 1668TIP3    H226420   3.481   5.285   3.328 -0.0273  0.2262 -0.3153
 1669TIP3   OH226421   3.194   4.555  14.006 -0.5864 -0.1121 -0.8332
 1669TIP3    H126422   3.206   4.646  14.031 -1.4772 -0.6527  1.7479
 1669TIP3    H226423   3.114   4.555  13.952 -2.5225  0.2591  1.9049
 1670TIP3   OH226424   3.711   0.766  17.134 -0.4859 -0.1454 -0.0204
 1670TIP3    H126425   3.658   0.821  17.192 -0.8465  0.0631 -0.5438
 1670TIP3    H226426   3.675   0.678  17.145 -0.7110 -0.0651 -0.0997
 1671TIP3   OH226427   6.303   0.365   0.599  0.1146  0.1864 -0.1290
 1671TIP3    H126428   6.248   0.302   0.553 -0.2308  1.0969 -0.9633
 1671TIP3    H226429   6.370   0.390   0.536  0.3679  0.5081  0.2617
 1672TIP3   OH226430   0.274   2.543  11.272  0.1179  0.4350 -0.2630
 1672TIP3    H126431   0.299   2.472  11.212 -0.5509 -0.2238  0.2203
 1672TIP3    H226432   0.239   2.611  11.215  1.5516  0.7380 -0.8096
 1673TIP3   OH226433   2.688   0.302   3.573  0.3341 -0.5535 -0.8523
 1673TIP3    H126434   2.720   0.304   3.664  0.1755 -0.9249 -0.7876
 1673TIP3    H226435   2.616   0.364   3.571  1.5919  0.9273 -1.2005
 1674TIP3   OH226436   6.622   0.095   4.762  0.0424  0.5595  0.1942
 1674TIP3    H126437   6.671   0.016   4.740  0.1636  0.5334  0.5599
 1674TIP3    H226438   6.531   0.065   4.767  0.1561  0.3216  0.9136
 1675TIP3   OH226439   0.477   0.686  11.865  0.7275 -0.3125  0.1965
 1675TIP3    H126440   0.508   0.750  11.800  1.9787 -1.4149 -0.3089
 1675TIP3    H226441   0.411   0.734  11.915  0.9713  1.0938 -0.7822
 1676TIP3   OH226442   3.801   6.074  16.508 -0.0109  0.8189 -0.1578
 1676TIP3    H126443   3.780   6.110  16.423 -1.2411  0.1458 -0.1571
 1676TIP3    H226444   3.799   6.149  16.568  1.4299  1.3860 -0.7989
 1677TIP3   OH226445   5.199   0.618   5.932  0.2844 -0.4498  0.1985
 1677TIP3    H126446   5.154   0.672   5.997  1.3124  0.6272  0.0187
 1677TIP3    H226447   5.156   0.532   5.939  0.4075 -0.3771  2.3416
 1678TIP3   OH226448   1.561   3.124  12.147  0.0272  0.0861  0.3860
 1678TIP3    H126449   1.628   3.083  12.092  0.3660  1.8097 -0.5321
 1678TIP3    H226450   1.599   3.123  12.235  1.1943  0.8599 -0.0877
 1679TIP3   OH226451   0.534   3.248   4.776  0.2207 -0.0918 -0.6668
 1679TIP3    H126452   0.579   3.242   4.692  0.7092  0.8738 -0.4847
 1679TIP3    H226453   0.595   3.212   4.839  0.4142  0.4709 -0.5319
 1680TIP3   OH226454   6.782   6.780  12.910  0.0212 -0.5477 -0.2183
 1680TIP3    H126455   6.773   6.690  12.941  3.2156 -0.3555  1.4008
 1680TIP3    H226456   6.858   6.778  12.851  1.5444  1.4813  1.5953
 1681TIP3   OH226457   4.812   5.146   4.309 -0.1337 -0.2985 -0.1903
 1681TIP3    H126458   4.769   5.178   4.229 -0.3264 -0.1685 -0.0340
 1681TIP3    H226459   4.904   5.170   4.298 -0.0078 -1.0178 -0.7523
 1682TIP3   OH226460   4.423   5.643   4.557 -0.5092 -0.3034 -0.3081
 1682TIP3    H126461   4.515   5.632   4.584 -0.5743  1.1197  0.5859
 1682TIP3    H226462   4.378   5.669   4.638 -1.9089 -2.0358 -0.5154
 1683TIP3   OH226463   5.813   4.772   1.952  0.8486 -0.0636 -0.2566
 1683TIP3    H126464   5.735   4.789   2.005  1.8575  1.6405  0.7280
 1683TIP3    H226465   5.787   4.700   1.894 -1.9874  1.5196 -1.0774
 1684TIP3   OH226466   3.503   3.927  11.280  0.1931 -0.2047  0.2126
 1684TIP3    H126467   3.528   3.983  11.206  0.8450 -0.5002  0.2087
 1684TIP3    H226468   3.486   3.841  11.241  0.0955 -0.2487  0.3475
 1685TIP3   OH226469   2.750   3.987  15.050  0.3596  0.2232  0.0507
 1685TIP3    H126470   2.841   4.013  15.052  0.5071 -0.3396  3.1756
 1685TIP3    H226471   2.701   4.069  15.054  0.7283  0.5048 -1.1855
 1686TIP3   OH226472   4.579   3.059   0.012  0.1288 -0.1699  0.1848
 1686TIP3    H126473   4.504   3.090   0.061  0.0659 -0.6725  0.4067
 1686TIP3    H226474   4.561   3.084  -0.079  0.3272  0.9006  0.4431
 1687TIP3   OH226475   5.977   1.540   4.297 -0.1889 -0.6610  0.3756
 1687TIP3    H126476   5.903   1.485   4.272 -0.7401  0.8211 -1.3499
 1687TIP3    H226477   5.980   1.608   4.230  2.5417 -0.5189  0.5854
 1688TIP3   OH226478   6.036   1.661  15.518 -0.1938 -0.6466 -0.0106
 1688TIP3    H126479   6.108   1.602  15.540 -0.4809 -1.0196 -0.0561
 1688TIP3    H226480   6.077   1.746  15.504  0.2383 -0.8604 -0.0405
 1689TIP3   OH226481   3.762   2.692   2.932  0.5470  0.3150  0.1734
 1689TIP3    H126482   3.771   2.606   2.890  0.4642  0.3775  0.0269
 1689TIP3    H226483   3.804   2.682   3.017 -2.0241 -0.7678  1.3857
 1690TIP3   OH226484   0.099   5.377  14.123  0.8841  0.1190  0.0310
 1690TIP3    H126485   0.172   5.439  14.128  0.4023  0.7564 -0.7267
 1690TIP3    H226486   0.069   5.383  14.032  1.0264 -1.4532 -0.1325
 1691TIP3   OH226487   0.298   5.159  11.258 -0.1387 -0.8923  0.0347
 1691TIP3    H126488   0.210   5.165  11.295 -1.3618  0.5135 -2.9015
 1691TIP3    H226489   0.343   5.237  11.289 -0.4712 -0.7815  0.2361
 1692TIP3   OH226490   2.237   2.112  16.960 -0.0110  0.3128 -0.3673
 1692TIP3    H126491   2.188   2.043  16.915 -1.3084  0.5074  0.7269
 1692TIP3    H226492   2.274   2.070  17.038  1.8260  0.0999 -1.3164
 1693TIP3   OH226493   2.443   5.202   1.148 -0.5348  0.4879  0.2582
 1693TIP3    H126494   2.514   5.261   1.122  0.2623 -1.0555 -1.1986
 1693TIP3    H226495   2.428   5.222   1.241  1.1360  1.5269  0.3280
 1694TIP3   OH226496   4.669   5.069   1.202 -0.7400  0.0381 -0.2988
 1694TIP3    H126497   4.759   5.096   1.187 -0.9449 -0.0640 -1.7703
 1694TIP3    H226498   4.654   5.085   1.295  0.8904 -0.2465  0.0136
 1695TIP3   OH226499   5.613   1.843   3.332 -0.2065  0.4133 -0.0131
 1695TIP3    H126500   5.564   1.783   3.275 -0.3210  0.7788 -0.3008
 1695TIP3    H226501   5.578   1.826   3.419 -0.8000  0.6197 -0.2079
 1696TIP3   OH226502   3.695   2.203  12.973 -0.2260  0.0372  0.3473
 1696TIP3    H126503   3.656   2.260  13.040 -0.9924 -2.0714  1.7644
 1696TIP3    H226504   3.619   2.165  12.928  0.2766  0.1883 -0.6277
 1697TIP3   OH226505   3.285   0.920   3.118  0.6421  0.2611 -0.4163
 1697TIP3    H126506   3.290   0.918   3.022 -0.1910 -0.8732 -0.4397
 1697TIP3    H226507   3.322   1.005   3.141 -0.9190  1.3785 -1.8697
 1698TIP3   OH226508   4.364   4.701   0.902  0.0135 -0.3266 -0.5552
 1698TIP3    H126509   4.316   4.765   0.955  1.9293  2.3094 -1.8748
 1698TIP3    H226510   4.452   4.737   0.896  1.3137 -3.4144 -0.9121
 1699TIP3   OH226511   6.050   2.595  16.840 -0.2133 -0.3944  0.2717
 1699TIP3    H126512   6.141   2.612  16.866 -0.2355 -1.0236  0.7604
 1699TIP3    H226513   6.028   2.513  16.883 -0.0426 -1.8189 -2.2713
 1700TIP3   OH226514   5.045   0.729  16.993 -0.1577 -0.0010  0.8554
 1700TIP3    H126515   5.070   0.817  16.965 -0.3164  0.1608  1.2124
 1700TIP3    H226516   4.950   0.729  16.991 -0.1580 -0.1587  0.8613
 1701TIP3   OH226517   6.397   6.731   4.959  0.4249  0.1845  0.0215
 1701TIP3    H126518   6.433   6.794   5.021  0.6509  0.1938 -0.1183
 1701TIP3    H226519   6.469   6.670   4.942  0.4385  0.3138 -0.4053
 1702TIP3   OH226520   4.903   1.797  13.473  0.1318 -0.4267  0.0811
 1702TIP3    H126521   4.968   1.860  13.504  0.0803 -0.6762  0.7057
 1702TIP3    H226522   4.954   1.719  13.450  0.2161 -0.0936 -0.8730
 1703TIP3   OH226523   1.662   5.226  11.437 -0.0274  0.3472  0.3499
 1703TIP3    H126524   1.723   5.300  11.448  0.3512  0.2939 -1.2672
 1703TIP3    H226525   1.611   5.250  11.360  1.1791 -1.8043 -1.1585
 1704TIP3   OH226526   1.583   5.766   4.836 -0.0128 -0.5135  0.5131
 1704TIP3    H126527   1.612   5.832   4.773  1.8730  0.0107  1.8810
 1704TIP3    H226528   1.553   5.693   4.782  1.2025  0.0715 -0.9863
 1705TIP3   OH226529   3.773   2.108  11.043 -0.2942 -0.0149 -0.5262
 1705TIP3    H126530   3.751   2.052  10.969  0.2170 -1.2548  0.2227
 1705TIP3    H226531   3.869   2.104  11.048 -0.2772  0.6711 -0.2679
 1706TIP3   OH226532   3.303   3.941   3.880 -0.0003  0.5944 -0.0403
 1706TIP3    H126533   3.220   3.947   3.833 -0.2327  2.6381  0.5827
 1706TIP3    H226534   3.295   3.861   3.932 -1.6209  0.8003  0.0605
 1707TIP3   OH226535   5.433   3.569  15.300  0.0648 -0.3211 -0.1496
 1707TIP3    H126536   5.366   3.556  15.233  0.7486 -1.8522 -0.5628
 1707TIP3    H226537   5.383   3.580  15.381 -0.7442  0.8333 -0.7939
 1708TIP3   OH226538   5.544   3.821  13.232 -0.0989  0.3118  0.4405
 1708TIP3    H126539   5.586   3.816  13.146 -0.4445  1.8207  0.1563
 1708TIP3    H226540   5.458   3.860  13.214 -0.8655 -0.9620  1.2546
 1709TIP3   OH226541   4.416   5.635   2.585  0.0598 -0.0225 -0.0280
 1709TIP3    H126542   4.492   5.638   2.528  0.1893  0.5529  0.1721
 1709TIP3    H226543   4.425   5.712   2.641  0.3631 -1.0300  1.3309
 1710TIP3   OH226544   2.030   3.827  12.890 -0.3003 -0.4161 -0.0621
 1710TIP3    H126545   2.060   3.847  12.801 -2.3491 -1.1228 -0.9321
 1710TIP3    H226546   2.101   3.859  12.946  1.0290  0.0439 -1.9313
 1711TIP3   OH226547   4.857   1.422   6.177 -0.0041  0.2210  0.7656
 1711TIP3    H126548   4.779   1.380   6.139  0.0597  0.4992  0.3219
 1711TIP3    H226549   4.849   1.407   6.271  0.8003 -2.1159  0.4776
 1712TIP3   OH226550   6.128   6.289   2.354 -0.7871  0.1309 -0.2116
 1712TIP3    H126551   6.126   6.246   2.440  0.2738 -1.0888 -0.7651
 1712TIP3    H226552   6.101   6.379   2.371  1.6484  0.5588  1.8120
 1713TIP3   OH226553   1.634   1.258  11.157  0.0292  0.5104 -0.0942
 1713TIP3    H126554   1.659   1.313  11.231 -0.5797 -0.6101  0.9712
 1713TIP3    H226555   1.574   1.312  11.106 -2.2804  0.0832  2.1145
 1714TIP3   OH226556   1.539   0.077  13.393  0.3527 -0.3963  0.0526
 1714TIP3    H126557   1.543   0.033  13.308  0.4875 -0.4597  0.0924
 1714TIP3    H226558   1.544   0.006  13.457 -0.2729 -0.3862  0.1092
 1715TIP3   OH226559   6.629   5.928   0.887 -0.6194  0.6642 -0.3855
 1715TIP3    H126560   6.568   5.857   0.867 -0.8658  0.9758 -0.7577
 1715TIP3    H226561   6.689   5.891   0.952 -0.7669  0.1273 -0.5523
 1716TIP3   OH226562   3.760   5.573  10.992 -0.2594  0.7085 -0.3315
 1716TIP3    H126563   3.739   5.486  11.025  0.5181  1.2377  1.6970
 1716TIP3    H226564   3.768   5.562  10.898 -0.5075 -1.3410 -0.1443
 1717TIP3   OH226565   0.721   3.139   3.788  0.3151 -0.0093 -0.1041
 1717TIP3    H126566   0.658   3.158   3.718  0.9563  1.7410 -0.2257
 1717TIP3    H226567   0.697   3.199   3.858  0.5623 -0.7813  0.6470
 1718TIP3   OH226568   2.712   4.987  10.761  0.6716 -0.3320 -0.6259
 1718TIP3    H126569   2.733   5.067  10.713 -0.5869  1.1346  1.1723
 1718TIP3    H226570   2.663   5.018  10.837  0.7955 -2.7707  0.4779
 1719TIP3   OH226571   5.410   6.184  16.974 -0.3741  0.2453 -0.5441
 1719TIP3    H126572   5.379   6.173  17.063  0.4951 -0.6071 -0.3373
 1719TIP3    H226573   5.410   6.279  16.959 -0.0789  0.4139  0.5183
 1720TIP3   OH226574   2.210   1.586  10.917  0.7130 -0.5084  0.2110
 1720TIP3    H126575   2.248   1.517  10.863 -0.6613 -1.6409  0.6471
 1720TIP3    H226576   2.278   1.607  10.981  2.3844  0.8964 -1.9553
 1721TIP3   OH226577   5.438   6.221   6.108  0.5900 -0.1821  0.2508
 1721TIP3    H126578   5.454   6.270   6.027  0.3204  0.3757  0.5362
 1721TIP3    H226579   5.462   6.130   6.086  1.4592  0.1386 -0.1609
 1722TIP3   OH226580   1.943   5.631  12.638 -0.3942  0.2917  0.1150
 1722TIP3    H126581   1.858   5.647  12.597  0.0362  1.7645 -0.2557
 1722TIP3    H226582   1.939   5.680  12.721  0.3015  0.8724 -0.1863
 1723TIP3   OH226583   3.363   6.544   3.332  0.1551 -0.2475  0.1809
 1723TIP3    H126584   3.359   6.462   3.383  0.2383 -0.5026 -0.2241
 1723TIP3    H226585   3.274   6.554   3.298  0.2348 -0.3523 -0.0577
 1724TIP3   OH226586   1.771   1.996   5.573  0.2876  0.0436  0.9405
 1724TIP3    H126587   1.850   1.943   5.565  0.0813 -0.6374  3.0397
 1724TIP3    H226588   1.750   1.995   5.667 -0.7799  2.3189  0.7748
 1725TIP3   OH226589   0.990   1.909  12.330  0.3152 -0.9207 -0.5364
 1725TIP3    H126590   0.945   1.923  12.247 -0.0072  0.9488 -0.0700
 1725TIP3    H226591   1.079   1.938  12.315  0.1500 -0.1761 -0.1231
 1726TIP3   OH226592   3.513   4.868  16.361  0.0927 -0.4408  0.1974
 1726TIP3    H126593   3.508   4.941  16.422 -0.4350 -0.5962  0.3415
 1726TIP3    H226594   3.576   4.808  16.400  0.2153 -0.2557  0.2852
 1727TIP3   OH226595   0.517   1.869   0.411  0.2587  0.3434 -0.9897
 1727TIP3    H126596   0.548   1.826   0.491 -1.5657 -0.2101 -0.5571
 1727TIP3    H226597   0.513   1.962   0.435  0.4161  0.2705 -0.6721
 1728TIP3   OH226598   1.859   0.575  13.117  0.4042  0.3065 -0.3128
 1728TIP3    H126599   1.779   0.625  13.132 -0.2066 -0.5964 -0.4927
 1728TIP3    H226600   1.922   0.638  13.083  0.8109  1.7643  2.8920
 1729TIP3   OH226601   3.836   3.390  16.363 -0.3153  0.4462  0.3569
 1729TIP3    H126602   3.885   3.423  16.438 -0.9763  1.0848  0.5126
 1729TIP3    H226603   3.891   3.319  16.328  0.1961  0.4272  1.1770
 1730TIP3   OH226604   1.301   2.251   3.815 -0.0700  0.1828 -0.0911
 1730TIP3    H126605   1.206   2.256   3.813 -0.2267 -1.6696  1.4464
 1730TIP3    H226606   1.325   2.280   3.903  0.6619 -0.7298  0.0244
 1731TIP3   OH226607   5.911   2.768   3.752 -0.0765  0.1162  0.0792
 1731TIP3    H126608   5.945   2.852   3.782  0.8123  0.1717 -1.0255
 1731TIP3    H226609   5.852   2.739   3.821 -0.1957  1.5318  0.5703
 1732TIP3   OH226610   5.393   3.855   4.502 -0.0455  0.4493  0.1919
 1732TIP3    H126611   5.436   3.773   4.479  0.4120  0.8055 -0.2376
 1732TIP3    H226612   5.385   3.852   4.597 -2.9280 -1.5361 -0.0404
 1733TIP3   OH226613   5.429   6.383   1.682 -0.0194 -0.5628  0.0351
 1733TIP3    H126614   5.400   6.433   1.607  1.4905 -1.0354 -0.8845
 1733TIP3    H226615   5.372   6.411   1.754 -1.5123 -0.1726 -1.2931
 1734TIP3   OH226616   1.225   0.609   5.957 -0.4147 -0.1339 -0.1996
 1734TIP3    H126617   1.206   0.597   5.864  0.2104  1.2122 -0.5143
 1734TIP3    H226618   1.140   0.601   6.000 -0.6759 -0.9625 -0.8619
 1735TIP3   OH226619   0.950   4.579   5.700 -0.8516  0.6587 -0.8083
 1735TIP3    H126620   1.004   4.632   5.643 -1.9275 -1.8115 -4.2679
 1735TIP3    H226621   1.011   4.546   5.767  1.2011  0.6707 -2.6370
 1736TIP3   OH226622   5.333   5.543   2.511 -0.1148 -0.1322 -1.3007
 1736TIP3    H126623   5.342   5.461   2.462 -2.9926  0.0790 -2.2880
 1736TIP3    H226624   5.386   5.606   2.462 -1.7927 -0.2705 -3.3894
 1737TIP3   OH226625   1.235   4.599  14.251 -0.2588 -0.0044 -0.4175
 1737TIP3    H126626   1.330   4.603  14.238 -0.2676  0.2386 -0.4031
 1737TIP3    H226627   1.222   4.626  14.342 -0.4082  0.6944 -0.6494
 1738TIP3   OH226628   5.917   1.560  16.798 -0.1262  0.5609  0.0239
 1738TIP3    H126629   5.873   1.624  16.742  0.4061  0.1675 -0.8463
 1738TIP3    H226630   5.884   1.579  16.886 -2.0928  0.2080 -0.6267
 1739TIP3   OH226631   2.577   1.336  15.697 -0.0197 -0.2003  0.1698
 1739TIP3    H126632   2.587   1.272  15.627 -0.7580  0.0544 -0.1743
 1739TIP3    H226633   2.574   1.420  15.651 -0.1680 -0.0062  0.5362
 1740TIP3   OH226634   2.923   3.736  16.152  0.0618  0.3753  0.2992
 1740TIP3    H126635   2.954   3.789  16.079 -2.3709  0.2417 -0.8773
 1740TIP3    H226636   2.955   3.648  16.133 -0.5784  0.3369 -0.6282
 1741TIP3   OH226637   2.774   3.231   4.639  0.0292 -0.5610 -0.1000
 1741TIP3    H126638   2.680   3.238   4.623 -0.0971 -2.3065 -0.1832
 1741TIP3    H226639   2.806   3.173   4.571  0.8086 -1.7023  1.2254
 1742TIP3   OH226640   3.911   3.247   5.721  0.5522 -0.2032  0.0766
 1742TIP3    H126641   3.857   3.210   5.651 -0.9723  2.5854 -0.2868
 1742TIP3    H226642   3.848   3.271   5.790  1.4904  1.3146  0.4370
 1743TIP3   OH226643   5.701   4.713  12.612 -0.0969 -0.0089 -0.0669
 1743TIP3    H126644   5.623   4.704  12.558  0.1302  1.0158 -0.5824
 1743TIP3    H226645   5.704   4.806  12.635  1.2155  0.0657 -0.4501
 1744TIP3   OH226646   2.500   0.361   4.154 -0.1423  0.2362 -0.3562
 1744TIP3    H126647   2.466   0.292   4.097 -0.6807 -0.7060  1.0864
 1744TIP3    H226648   2.587   0.381   4.118  0.8007 -2.4748  0.2350
 1745TIP3   OH226649   6.072   0.068  14.637 -0.1885  0.2708 -0.0172
 1745TIP3    H126650   6.016  -0.007  14.615 -1.0555  0.0587  2.7445
 1745TIP3    H226651   6.015   0.144  14.626 -0.0519  0.3159 -0.4002
 1746TIP3   OH226652   4.641   4.836   5.040 -0.1834  0.3645 -0.7398
 1746TIP3    H126653   4.624   4.797   4.954  1.2719  0.7430 -1.2064
 1746TIP3    H226654   4.717   4.789   5.074 -0.8809  0.0682  0.4415
 1747TIP3   OH226655   6.775   3.863  11.924 -0.1153  0.0561  0.2738
 1747TIP3    H126656   6.690   3.867  11.969 -0.1096  0.6441  0.2318
 1747TIP3    H226657   6.754   3.836  11.835 -0.2765  0.3354  0.2254
 1748TIP3   OH226658   4.758   4.680   4.031 -0.3835 -0.0330  0.1440
 1748TIP3    H126659   4.667   4.706   4.049 -0.5248 -0.3941 -0.0322
 1748TIP3    H226660   4.803   4.762   4.012 -0.5785  0.1882  0.6408
 1749TIP3   OH226661   2.028   2.050   5.344 -0.1450 -0.0306 -0.3731
 1749TIP3    H126662   2.014   1.956   5.342 -0.7325  0.0504 -0.1414
 1749TIP3    H226663   2.089   2.067   5.271  1.3300 -0.7980  0.6632
 1750TIP3   OH226664   0.789   2.050   5.330  0.2158  0.3045 -0.6527
 1750TIP3    H126665   0.729   2.098   5.388  0.4003 -0.2523 -0.0074
 1750TIP3    H226666   0.868   2.104   5.329  0.4909 -0.0805  0.2224
 1751TIP3   OH226667   1.067   1.500  14.993  0.2122 -0.1005  0.5085
 1751TIP3    H126668   1.042   1.544  15.075 -1.3227 -1.0467  0.5684
 1751TIP3    H226669   1.147   1.545  14.966 -0.3826  1.6063  1.4509
 1752TIP3   OH226670   5.545   1.093  14.708  0.3684 -0.3145  0.5387
 1752TIP3    H126671   5.567   1.008  14.746 -0.4018 -0.5405  0.4694
 1752TIP3    H226672   5.596   1.156  14.759  1.0741 -0.8309  0.4778
 1753TIP3   OH226673   3.552   2.510   1.345 -0.2212  0.3732 -0.3575
 1753TIP3    H126674   3.513   2.434   1.301 -1.3410  2.5832 -3.3036
 1753TIP3    H226675   3.643   2.483   1.361 -0.2525 -1.1530 -2.4874
 1754TIP3   OH226676   4.831   5.660   2.252 -0.6013 -0.2700 -0.1098
 1754TIP3    H126677   4.813   5.655   2.346 -1.4183 -1.0307 -0.3061
 1754TIP3    H226678   4.920   5.624   2.244 -1.1573 -1.7797  0.1851
 1755TIP3   OH226679   1.208   4.246   5.471 -0.0806  0.1738 -0.1795
 1755TIP3    H126680   1.238   4.206   5.389 -2.0776  1.0191 -1.3347
 1755TIP3    H226681   1.249   4.333   5.471 -0.5914  0.4148 -0.5878
 1756TIP3   OH226682   1.377   6.768   5.049  0.3889  0.5894  0.1800
 1756TIP3    H126683   1.337   6.719   4.977 -1.3856  1.0633  0.8082
 1756TIP3    H226684   1.451   6.713   5.077  0.3629 -0.1675 -1.2141
 1757TIP3   OH226685   4.773   5.410   0.125  0.5013 -0.2256  1.0193
 1757TIP3    H126686   4.789   5.504   0.130 -0.5681 -0.0894  2.0555
 1757TIP3    H226687   4.698   5.395   0.183  1.0558 -1.8088  1.3441
 1758TIP3   OH226688   5.243   1.103   1.077 -0.5321  0.4198 -0.6272
 1758TIP3    H126689   5.160   1.066   1.106 -0.2562  1.1288  1.1323
 1758TIP3    H226690   5.309   1.061   1.132  0.0670  1.3838 -0.5941
 1759TIP3   OH226691   5.817   2.141   1.086  0.1303 -0.5390 -0.0131
 1759TIP3    H126692   5.743   2.117   1.142 -0.3196 -1.5553 -1.0070
 1759TIP3    H226693   5.873   2.063   1.086  1.1682  0.2016  0.6779
 1760TIP3   OH226694   2.873   3.501   5.564 -0.0554  0.1204 -0.5341
 1760TIP3    H126695   2.844   3.567   5.500  0.0134 -0.3632 -1.0704
 1760TIP3    H226696   2.968   3.514   5.569 -0.1574  0.6513  0.0293
 1761TIP3   OH226697   6.775   1.274   4.791  0.1260  0.2032  0.0317
 1761TIP3    H126698   6.692   1.227   4.793  0.2417  0.0462  1.9899
 1761TIP3    H226699   6.752   1.365   4.812  0.7363 -0.3504  3.3703
 1762TIP3   OH226700   2.957   6.675  14.582  0.4154  0.2142  0.6684
 1762TIP3    H126701   2.968   6.769  14.598  2.4284  0.0459  0.3486
 1762TIP3    H226702   2.907   6.671  14.500  2.1426  1.0206 -0.4527
 1763TIP3   OH226703   5.770   6.341   4.945  0.3195 -0.5479  0.5660
 1763TIP3    H126704   5.685   6.381   4.928  0.3177 -0.8922 -0.2627
 1763TIP3    H226705   5.833   6.412   4.933  0.4534 -1.0842 -2.4064
 1764TIP3   OH226706   1.521   6.190   4.685  0.5266 -0.0457 -0.3628
 1764TIP3    H126707   1.492   6.240   4.608 -0.4747 -0.0121  0.0248
 1764TIP3    H226708   1.590   6.243   4.724  0.2532  0.4825 -0.5984
 1765TIP3   OH226709   3.892   4.028   3.041 -0.3854 -0.2072 -0.3234
 1765TIP3    H126710   3.987   4.015   3.042 -0.2570  0.5061  2.2112
 1765TIP3    H226711   3.878   4.100   2.980  1.0048  1.4410  1.2369
 1766TIP3   OH226712   2.647   3.868   5.716 -0.4748  0.0555  0.3465
 1766TIP3    H126713   2.706   3.793   5.711 -0.8062 -0.0808 -2.2510
 1766TIP3    H226714   2.577   3.839   5.776  0.6637 -0.7673  1.3049
 1767TIP3   OH226715   0.245   4.095  14.955 -0.1974  0.0983  0.2861
 1767TIP3    H126716   0.186   4.105  14.880  0.9020 -0.9431 -0.7507
 1767TIP3    H226717   0.222   4.167  15.014 -2.3904 -0.1882 -0.1468
 1768TIP3   OH226718   6.091   4.850   1.912  0.1810  0.1974 -0.2443
 1768TIP3    H126719   6.008   4.821   1.949 -0.5183  0.5351 -1.5362
 1768TIP3    H226720   6.136   4.769   1.889 -0.6429  0.0520 -1.3853
 1769TIP3   OH226721   5.913   2.413  12.448  0.6640 -1.0630  0.2874
 1769TIP3    H126722   6.000   2.373  12.452 -0.1457 -2.9928 -0.2511
 1769TIP3    H226723   5.860   2.349  12.399 -0.6151  0.8797 -0.9532
 1770TIP3   OH226724   5.789   5.040   0.855  0.0506  0.1847  0.5007
 1770TIP3    H126725   5.805   4.964   0.911 -0.8476  0.3339  0.9701
 1770TIP3    H226726   5.730   5.095   0.906 -1.1157  0.1164 -0.7577
 1771TIP3   OH226727   6.692   4.524  12.310  0.4735  0.4211  0.7139
 1771TIP3    H126728   6.627   4.585  12.276  1.3926  0.5640 -0.8236
 1771TIP3    H226729   6.708   4.554  12.399 -0.6975  1.0904  0.7114
 1772TIP3   OH226730   1.064   0.395  11.936 -0.0910  0.2407 -0.0763
 1772TIP3    H126731   1.065   0.464  12.002 -0.7979  0.7698 -0.6184
 1772TIP3    H226732   1.006   0.428  11.867  0.6512 -0.3043 -0.9663
 1773TIP3   OH226733   1.963   4.201   5.271  0.2602  0.2105  0.4426
 1773TIP3    H126734   2.012   4.150   5.335  0.5450 -1.6656 -1.2039
 1773TIP3    H226735   2.030   4.245   5.219  0.0773  0.4793  0.4339
 1774TIP3   OH226736   4.771   6.640  14.178  0.7905 -0.0473 -0.0646
 1774TIP3    H126737   4.759   6.735  14.177 -0.7455 -0.2132 -2.6402
 1774TIP3    H226738   4.803   6.619  14.090 -0.8760 -2.1124 -0.2242
 1775TIP3   OH226739   4.267   0.403   3.557  0.3075  0.1163  0.3055
 1775TIP3    H126740   4.190   0.363   3.597  0.9270  1.1419  2.6138
 1775TIP3    H226741   4.332   0.333   3.555 -0.5979 -0.7045 -1.4836
 1776TIP3   OH226742   3.251   4.462   1.400 -0.2748 -0.2976  0.2067
 1776TIP3    H126743   3.242   4.472   1.306  0.9810  2.3059  0.3097
 1776TIP3    H226744   3.269   4.369   1.413 -0.8268 -0.7370 -2.0725
 1777TIP3   OH226745   4.217   2.586  10.495 -0.3530  0.2986 -0.9367
 1777TIP3    H126746   4.286   2.623  10.549  0.1571 -0.2743 -1.1846
 1777TIP3    H226747   4.228   2.629  10.410  0.0912 -0.2319 -1.1553
 1778TIP3   OH226748   0.063   3.997   0.444 -0.6306  0.0657 -0.6765
 1778TIP3    H126749   0.024   3.910   0.455 -1.1461  0.1891 -1.4675
 1778TIP3    H226750   0.146   3.981   0.400  0.0957 -0.1714  0.7392
 1779TIP3   OH226751   5.435   3.314  12.467  0.4096 -0.1933  0.2664
 1779TIP3    H126752   5.340   3.305  12.460  0.3621  0.2224  0.3892
 1779TIP3    H226753   5.468   3.290  12.380  0.2996 -1.7710  0.6488
 1780TIP3   OH226754   0.596   1.222  15.695 -0.5404  0.0048 -0.4751
 1780TIP3    H126755   0.686   1.198  15.717 -1.5920 -2.0107  1.8522
 1780TIP3    H226756   0.586   1.197  15.603  0.6569 -1.7266 -0.1544
 1781TIP3   OH226757   4.890   3.847  16.229 -0.1772 -0.5630  0.6409
 1781TIP3    H126758   4.907   3.929  16.183  1.4430 -0.3103  1.6177
 1781TIP3    H226759   4.972   3.830  16.277 -1.5251 -1.2095  2.7848
 1782TIP3   OH226760   0.406   3.173  17.199 -0.1397 -0.1082  0.5240
 1782TIP3    H126761   0.349   3.131  17.263  2.2873 -0.2542  2.6655
 1782TIP3    H226762   0.438   3.101  17.144 -0.1309 -0.3537  0.8508
 1783TIP3   OH226763   6.703   3.144  14.828  0.3978  0.9685  0.2975
 1783TIP3    H126764   6.734   3.078  14.890 -1.5144  1.5923  1.9931
 1783TIP3    H226765   6.712   3.102  14.742 -1.6204 -1.9070  1.3802
 1784TIP3   OH226766   2.664   0.889  13.861  0.0678  0.2072 -0.0887
 1784TIP3    H126767   2.666   0.799  13.826 -1.1611  0.0590  0.1979
 1784TIP3    H226768   2.698   0.943  13.789  2.1719 -0.6265  0.2409
 1785TIP3   OH226769   5.626   3.903  14.801  0.2166 -1.1762 -0.1922
 1785TIP3    H126770   5.597   3.834  14.860 -1.5290  1.7388  2.5711
 1785TIP3    H226771   5.545   3.939  14.764  1.1444 -1.1045 -2.2136
 1786TIP3   OH226772   4.968   6.010   4.840  0.1804  0.2232  0.0906
 1786TIP3    H126773   5.033   6.033   4.905  0.3023 -0.1213  0.0902
 1786TIP3    H226774   5.013   6.020   4.756  0.0284  0.6503  0.0573
 1787TIP3   OH226775   0.249   4.389   1.775  0.5222  0.1902  0.2353
 1787TIP3    H126776   0.154   4.400   1.764  0.6982  0.8619 -0.6552
 1787TIP3    H226777   0.260   4.377   1.869 -0.5748 -1.2279  0.2013
 1788TIP3   OH226778   3.099   3.722  10.673 -0.2539 -0.4717  0.5920
 1788TIP3    H126779   3.136   3.810  10.664 -0.1415 -0.3746  1.9223
 1788TIP3    H226780   3.173   3.667  10.700 -0.4440 -0.8678  0.3199
 1789TIP3   OH226781   3.892   0.266  10.948  0.1367 -0.8417  0.0761
 1789TIP3    H126782   3.864   0.177  10.970  0.8758 -1.9605 -3.3012
 1789TIP3    H226783   3.987   0.266  10.965  0.1418 -0.7133  0.0472
 1790TIP3   OH226784   6.661   1.970  11.995 -0.0242 -0.1325  0.5103
 1790TIP3    H126785   6.648   2.063  12.016 -0.3040  0.3213 -1.5724
 1790TIP3    H226786   6.576   1.930  12.012 -0.4178  0.3389 -0.3097
 1791TIP3   OH226787   1.754   3.459  14.983 -0.1248  0.2068  0.3664
 1791TIP3    H126788   1.826   3.481  15.041 -0.4334 -0.9697  1.2149
 1791TIP3    H226789   1.700   3.538  14.979 -0.4730  0.0720  2.2221
 1792TIP3   OH226790   1.914   1.140   2.504 -0.9519  0.3666  0.1579
 1792TIP3    H126791   1.904   1.107   2.593  0.9515  0.4521  0.4386
 1792TIP3    H226792   1.899   1.234   2.511  0.4191  0.5617  0.6351
 1793TIP3   OH226793   0.421   5.696  11.160  0.0855  0.3498 -0.1822
 1793TIP3    H126794   0.390   5.639  11.090  1.1917 -2.3580  1.4382
 1793TIP3    H226795   0.360   5.681  11.233  0.3706  1.2597  0.2514
 1794TIP3   OH226796   1.728   1.454  11.314 -0.1737 -0.5325  0.0951
 1794TIP3    H126797   1.736   1.516  11.241 -2.2072  1.7832  1.7445
 1794TIP3    H226798   1.807   1.468  11.365 -0.5936  0.7236  0.4315
 1795TIP3   OH226799   0.162   6.263   0.159  0.0928 -0.3059 -0.3821
 1795TIP3    H126800   0.096   6.324   0.191  1.7225  1.3962 -0.2048
 1795TIP3    H226801   0.124   6.226   0.079 -0.5410  1.5982 -0.9921
 1796TIP3   OH226802   4.648   1.883   4.451 -0.1552 -0.4048 -0.4513
 1796TIP3    H126803   4.662   1.973   4.419  1.6030 -0.5664 -0.1644
 1796TIP3    H226804   4.733   1.841   4.443 -0.9038 -1.9915 -0.3302
 1797TIP3   OH226805   1.518   0.147  11.383 -0.2454  0.6295  0.0471
 1797TIP3    H126806   1.513   0.164  11.288  4.1272  0.0139 -0.4205
 1797TIP3    H226807   1.528   0.052  11.390  0.9845  0.8153  0.9960
 1798TIP3   OH226808   5.359   5.510  12.863  0.2821 -0.1442  0.0037
 1798TIP3    H126809   5.291   5.442  12.856 -2.5666  2.4951  0.9865
 1798TIP3    H226810   5.408   5.484  12.941 -1.0457 -0.8689  0.6337
 1799TIP3   OH226811   2.943   3.814  12.898 -0.3495 -0.2938  0.6676
 1799TIP3    H126812   3.006   3.768  12.842 -2.5672  1.4921 -3.4766
 1799TIP3    H226813   2.992   3.889  12.932  0.6287 -0.6175 -0.0013
 1800TIP3   OH226814   2.586   3.869  16.548 -0.2767  0.1210 -0.0564
 1800TIP3    H126815   2.524   3.837  16.483 -0.9481  0.0434  0.6239
 1800TIP3    H226816   2.671   3.840  16.516 -0.7317 -0.9889 -0.2640
 1801TIP3   OH226817   3.693   1.994   3.007  0.3907  0.2433 -0.0585
 1801TIP3    H126818   3.603   1.972   3.031  0.6238 -1.9659 -1.0937
 1801TIP3    H226819   3.686   2.081   2.966 -1.3351 -0.0893 -0.5152
 1802TIP3   OH226820   2.709   3.157   1.620 -0.0334  0.3883  0.2071
 1802TIP3    H126821   2.718   3.247   1.588  0.5013  0.9125  1.7959
 1802TIP3    H226822   2.648   3.163   1.693  1.2813 -0.2781  1.3843
 1803TIP3   OH226823   4.302   0.866   4.884 -0.4295 -0.0779 -0.8529
 1803TIP3    H126824   4.264   0.787   4.924 -0.4613 -0.9409 -2.5571
 1803TIP3    H226825   4.253   0.938   4.924 -2.9717 -1.0921 -1.9955
 1804TIP3   OH226826   6.391   3.307  11.338  0.3038 -0.5734  0.4218
 1804TIP3    H126827   6.318   3.308  11.276 -1.6491  1.1034  2.6460
 1804TIP3    H226828   6.453   3.244  11.301 -0.8159  0.2941 -3.1472
 1805TIP3   OH226829   0.435   4.393  11.581 -0.2720 -0.1445 -0.2500
 1805TIP3    H126830   0.519   4.362  11.616 -1.8458 -1.7061  2.3251
 1805TIP3    H226831   0.407   4.323  11.522  0.1733  0.3552 -1.0711
 1806TIP3   OH226832   6.292   4.525  11.791 -0.2383  0.1060  0.5931
 1806TIP3    H126833   6.332   4.500  11.875 -0.1147  0.4821  0.6467
 1806TIP3    H226834   6.312   4.618  11.782 -0.1679  0.0438  0.0985
 1807TIP3   OH226835   5.818   6.237   2.019 -0.2811  0.0126 -0.2269
 1807TIP3    H126836   5.756   6.278   2.078 -0.1208  1.3238 -0.9397
 1807TIP3    H226837   5.867   6.176   2.073 -2.1786 -1.0252  0.3368
 1808TIP3   OH226838   5.151   6.698   1.315 -0.0246  0.0577  0.2164
 1808TIP3    H126839   5.097   6.776   1.304 -0.0044  0.2098  1.1600
 1808TIP3    H226840   5.229   6.716   1.262 -0.0416  0.6623  0.3870
 1809TIP3   OH226841   0.616   6.060  13.499 -0.5105 -0.2502 -0.3682
 1809TIP3    H126842   0.660   6.112  13.566  0.2315 -1.6940  0.3003
 1809TIP3    H226843   0.597   5.977  13.542  0.1938 -1.2962 -2.0036
 1810TIP3   OH226844   5.760   4.970   1.145 -0.4148  0.1928  0.6549
 1810TIP3    H126845   5.752   5.045   1.204 -1.9132  0.4471  0.1425
 1810TIP3    H226846   5.692   4.909   1.175  0.2403 -0.6063  0.5380
 1811TIP3   OH226847   3.587   3.373  13.355 -0.9222 -0.2968  0.0250
 1811TIP3    H126848   3.612   3.283  13.374 -0.1232 -0.4787 -1.7767
 1811TIP3    H226849   3.599   3.382  13.260  0.2039  2.0535  0.3422
 1812TIP3   OH226850   6.566   3.435   1.300  0.0696 -0.3580  0.4519
 1812TIP3    H126851   6.649   3.480   1.316  0.3688 -0.8061  0.1638
 1812TIP3    H226852   6.504   3.480   1.357  0.5857 -0.2715  0.9594
 1813TIP3   OH226853   1.548   2.187   1.072 -0.2263  1.1166  0.0340
 1813TIP3    H126854   1.597   2.138   1.137 -0.0521 -0.5158 -1.2803
 1813TIP3    H226855   1.538   2.275   1.110  1.7126  0.8259  1.2923
 1814TIP3   OH226856   0.641   6.698  16.610  0.0980 -0.1734 -0.8805
 1814TIP3    H126857   0.705   6.633  16.638 -0.2780 -0.3922 -0.5164
 1814TIP3    H226858   0.566   6.684  16.668  0.0692  0.6795 -0.7060
 1815TIP3   OH226859   2.902   3.920   6.504  0.5487 -0.1670 -0.4332
 1815TIP3    H126860   2.872   3.855   6.568 -0.9182  0.6270 -0.2813
 1815TIP3    H226861   2.976   3.964   6.546 -0.2864  0.2148  0.6682
 1816TIP3   OH226862   5.993   1.502  17.084 -0.0740  0.4110 -0.3953
 1816TIP3    H126863   5.984   1.414  17.048  2.7456 -0.5120  0.9962
 1816TIP3    H226864   5.976   1.492  17.178  1.3699  1.0934 -0.0378
 1817TIP3   OH226865   5.650   0.840  14.170  0.1866 -0.5277 -0.2376
 1817TIP3    H126866   5.688   0.783  14.237 -1.4642 -0.9992  0.3283
 1817TIP3    H226867   5.721   0.856  14.109  0.9721 -2.3619  0.1627
 1818TIP3   OH226868   1.158   4.477  12.710 -0.5608 -0.1037  0.5055
 1818TIP3    H126869   1.075   4.525  12.718 -1.0714 -0.7096 -0.8523
 1818TIP3    H226870   1.131   4.385  12.702  0.2795 -0.3675  0.6736
 1819TIP3   OH226871   4.641   0.100  14.549 -0.4731  0.0907  0.0179
 1819TIP3    H126872   4.734   0.122  14.538 -0.9123  1.9166 -0.1878
 1819TIP3    H226873   4.635   0.008  14.524  1.4823 -0.3502  1.1010
 1820TIP3   OH226874   2.407   4.019   3.236 -0.5588  0.3441  0.6703
 1820TIP3    H126875   2.478   3.979   3.184  0.0546 -0.2668  1.9598
 1820TIP3    H226876   2.343   4.047   3.171 -0.3920 -1.5751 -0.3578
 1821TIP3   OH226877   1.622   3.059   2.680  0.3202  0.4651  0.7807
 1821TIP3    H126878   1.547   3.001   2.695 -1.0879  2.5373  1.9374
 1821TIP3    H226879   1.601   3.105   2.599  0.8831  0.2198  0.4937
 1822TIP3   OH226880   4.888   0.709  13.887 -0.5581 -0.0888  0.1430
 1822TIP3    H126881   4.984   0.705  13.882 -0.5997 -2.6445  0.8523
 1822TIP3    H226882   4.864   0.780  13.826  1.7555  0.4800 -0.1647
 1823TIP3   OH226883   3.208   4.510   4.948 -0.4784  0.1504 -0.2125
 1823TIP3    H126884   3.141   4.539   4.886  1.3899  1.4839 -1.6900
 1823TIP3    H226885   3.217   4.416   4.931 -2.9879 -0.3579  1.0468
 1824TIP3   OH226886   1.143   5.605   6.195  0.3805 -1.1089  0.2126
 1824TIP3    H126887   1.198   5.581   6.121  0.3464 -1.1241  0.1917
 1824TIP3    H226888   1.202   5.608   6.270  0.2117 -2.2488  0.4019
 1825TIP3   OH226889   1.044   0.970  15.094  0.2604 -0.2332 -0.1841
 1825TIP3    H126890   1.140   0.977  15.096  0.4766 -2.3762 -0.6903
 1825TIP3    H226891   1.024   0.898  15.154 -1.2524  1.7018  1.6971
 1826TIP3   OH226892   2.281   3.736   2.568 -0.4687 -0.0958  0.1539
 1826TIP3    H126893   2.242   3.651   2.589 -0.7612  0.0745  0.2880
 1826TIP3    H226894   2.208   3.796   2.562 -0.2108  0.2647  0.6087
 1827TIP3   OH226895   6.765   2.753   4.698 -0.0894 -0.3201 -0.0627
 1827TIP3    H126896   6.780   2.699   4.775 -0.5194  0.9527  0.9365
 1827TIP3    H226897   6.702   2.819   4.727  2.0126  2.0285 -0.5907
 1828TIP3   OH226898   3.469   2.857   0.113  0.6366 -0.2852 -0.1854
 1828TIP3    H126899   3.387   2.871   0.160  0.6620  1.7426 -0.7122
 1828TIP3    H226900   3.500   2.771   0.142  0.0601  0.4259  2.5802
 1829TIP3   OH226901   2.117   5.902   2.359 -0.4556 -0.4815  0.1773
 1829TIP3    H126902   2.084   5.833   2.416  0.0811 -1.4110 -0.6337
 1829TIP3    H226903   2.039   5.938   2.318 -0.7370 -0.6085  0.5970
 1830TIP3   OH226904   0.488   1.451   3.950 -0.5503 -0.0404 -0.6094
 1830TIP3    H126905   0.497   1.370   4.001 -0.3286  0.1473 -0.3494
 1830TIP3    H226906   0.572   1.461   3.905 -0.8022 -0.2885 -1.1352
 1831TIP3   OH226907   1.986   4.172   2.071  0.1833  0.7141  0.2108
 1831TIP3    H126908   1.917   4.198   2.010 -0.6582 -2.1888 -0.1118
 1831TIP3    H226909   2.057   4.140   2.016  0.4090  0.4044  0.6720
 1832TIP3   OH226910   3.455   2.459   3.758  0.1368  0.1123  0.0296
 1832TIP3    H126911   3.404   2.411   3.693 -0.9648  0.3140  0.7148
 1832TIP3    H226912   3.539   2.414   3.763 -0.3306 -0.8070 -0.4402
 1833TIP3   OH226913   2.963   1.384  16.209  0.0815  0.7186  0.0887
 1833TIP3    H126914   2.972   1.402  16.303  0.3868 -2.1804  0.6516
 1833TIP3    H226915   3.051   1.397  16.173  0.4493 -0.3517  0.6017
 1834TIP3   OH226916   4.918   4.891   3.902 -0.2257 -0.0332 -0.0910
 1834TIP3    H126917   4.964   4.959   3.851 -0.3344 -1.3080 -1.9487
 1834TIP3    H226918   4.827   4.921   3.904 -0.1821  0.1306 -0.4598
 1835TIP3   OH226919   0.742   2.707  12.114 -0.1647 -0.5762  0.0212
 1835TIP3    H126920   0.780   2.656  12.042  2.0154  0.5457  0.3435
 1835TIP3    H226921   0.651   2.719  12.089  0.4656 -0.5453 -2.3914
 1836TIP3   OH226922   0.242   1.601  10.679 -0.1690 -0.4593  0.4442
 1836TIP3    H126923   0.203   1.676  10.635  1.4360  0.3366  0.3259
 1836TIP3    H226924   0.273   1.545  10.608  0.2020 -0.3661  0.5263
 1837TIP3   OH226925   2.805   2.101  12.465 -0.4791 -0.2883 -0.3682
 1837TIP3    H126926   2.779   2.155  12.540  0.3414  0.3920 -0.5614
 1837TIP3    H226927   2.824   2.015  12.502 -1.2180 -0.2798  0.0333
 1838TIP3   OH226928   4.211   3.965   5.311 -0.3612 -0.3938 -0.1866
 1838TIP3    H126929   4.152   3.951   5.385 -0.7576 -0.3919 -0.5023
 1838TIP3    H226930   4.186   4.051   5.277  0.6706  0.1723  0.4592
 1839TIP3   OH226931   4.440   4.227   0.482 -0.0046  0.5666 -0.0814
 1839TIP3    H126932   4.378   4.157   0.504  0.7263 -0.4619 -1.2404
 1839TIP3    H226933   4.491   4.239   0.562  0.6858 -1.1080 -0.2372
 1840TIP3   OH226934   3.232   2.891  17.011  0.0897 -0.3167  0.4749
 1840TIP3    H126935   3.325   2.867  17.017  0.2769  0.6865  1.6717
 1840TIP3    H226936   3.185   2.817  17.050  0.2420 -1.7511 -1.9645
 1841TIP3   OH226937   3.384   1.388   0.327  0.2296  0.5861  0.3376
 1841TIP3    H126938   3.458   1.390   0.267  0.0206 -2.5056 -0.1213
 1841TIP3    H226939   3.358   1.479   0.337  1.8087  1.3699 -2.3440
 1842TIP3   OH226940   1.427   4.661   2.711  0.1590  0.2813  0.7991
 1842TIP3    H126941   1.518   4.691   2.720 -0.5798  2.7402  0.2408
 1842TIP3    H226942   1.375   4.726   2.757 -1.5242  0.2350 -0.9752
 1843TIP3   OH226943   1.038   1.442  12.483  0.0189 -0.0568  0.4756
 1843TIP3    H126944   1.120   1.407  12.448  0.7455 -0.7747  2.8057
 1843TIP3    H226945   1.005   1.499  12.414  2.2030 -0.2077 -0.7360
 1844TIP3   OH226946   6.489   3.971   0.299 -0.5459  0.3910 -0.1263
 1844TIP3    H126947   6.513   3.920   0.222 -0.3282 -0.5299  0.5423
 1844TIP3    H226948   6.569   3.973   0.352 -0.3280  2.0806 -0.5027
 1845TIP3   OH226949   1.532   1.607   5.236  0.0063 -0.1458  0.2203
 1845TIP3    H126950   1.618   1.581   5.269 -0.7257 -2.6089  0.3455
 1845TIP3    H226951   1.550   1.660   5.159  1.6600 -1.8658 -0.6303
 1846TIP3   OH226952   0.956   1.867  14.644 -0.4169 -0.1433  0.2980
 1846TIP3    H126953   0.959   1.860  14.549  1.9684 -0.8697  0.3894
 1846TIP3    H226954   0.948   1.776  14.674  0.7174 -0.0971  0.7947
 1847TIP3   OH226955   6.351   6.214   6.035 -0.0487 -0.0172  0.1794
 1847TIP3    H126956   6.392   6.298   6.057 -0.6747 -0.3123  2.6320
 1847TIP3    H226957   6.406   6.149   6.080 -0.2564 -0.8165 -0.7253
 1848TIP3   OH226958   0.566   0.290   4.835  0.3879  0.0913 -0.0331
 1848TIP3    H126959   0.653   0.327   4.817  0.6568 -0.6413 -0.2689
 1848TIP3    H226960   0.558   0.292   4.930  1.1379 -0.8883  0.0600
 1849TIP3   OH226961   3.692   0.689   2.998 -0.4888  0.2510 -0.3778
 1849TIP3    H126962   3.637   0.766   2.982  2.5575  2.4861 -0.8266
 1849TIP3    H226963   3.723   0.663   2.911 -0.8304 -0.9509 -0.1443
 1850TIP3   OH226964   1.877   2.934  15.762 -0.2040 -0.1610 -0.2464
 1850TIP3    H126965   1.805   2.872  15.772 -2.1793  2.3654  1.7483
 1850TIP3    H226966   1.895   2.965  15.851  0.3784  2.5265 -1.2610
 1851TIP3   OH226967   0.347   0.146  11.040  0.6619 -0.2340  0.7406
 1851TIP3    H126968   0.313   0.137  11.129 -1.8143  1.2437 -0.0350
 1851TIP3    H226969   0.314   0.069  10.994 -1.5171  1.1064  0.0364
 1852TIP3   OH226970   3.987   1.491  12.514 -0.4584  0.0215  0.0031
 1852TIP3    H126971   4.021   1.569  12.559 -0.2045  0.2130 -0.5206
 1852TIP3    H226972   4.047   1.421  12.539  1.1978  0.6516 -2.0789
 1853TIP3   OH226973   2.374   5.112   5.905  0.0105  0.1354  0.2818
 1853TIP3    H126974   2.418   5.140   5.985  0.2677 -2.1266  0.9579
 1853TIP3    H226975   2.418   5.031   5.879 -1.2321 -0.1188 -1.1593
 1854TIP3   OH226976   2.262   5.794   0.371  0.0078 -0.1576 -0.6525
 1854TIP3    H126977   2.264   5.781   0.276  2.0672 -1.1016 -0.5119
 1854TIP3    H226978   2.177   5.835   0.388  0.1197  1.1565 -3.0453
 1855TIP3   OH226979   2.753   0.518   4.093  0.0471 -0.5193 -0.0738
 1855TIP3    H126980   2.808   0.596   4.101  0.5788 -1.1080  2.2016
 1855TIP3    H226981   2.787   0.458   4.159 -1.7012 -1.8726 -0.3839
 1856TIP3   OH226982   6.210   6.356  15.367 -0.3588 -0.4019  0.2721
 1856TIP3    H126983   6.164   6.316  15.441  0.6406 -1.0393  0.5578
 1856TIP3    H226984   6.154   6.339  15.292 -0.8191 -0.7702  0.6940
 1857TIP3   OH226985   0.856   3.489   3.810 -0.3826 -0.2013 -0.1929
 1857TIP3    H126986   0.933   3.542   3.790 -0.8615 -0.4065 -2.7212
 1857TIP3    H226987   0.782   3.540   3.778 -1.1507 -0.8408  0.5174
 1858TIP3   OH226988   5.207   4.258   6.423  0.2388 -0.4045 -0.0689
 1858TIP3    H126989   5.275   4.310   6.380 -1.3261  0.2419 -1.8400
 1858TIP3    H226990   5.184   4.191   6.359 -0.9552 -0.4621  0.4036
 1859TIP3   OH226991   4.006   6.683   3.229 -0.5387 -0.1916  0.0884
 1859TIP3    H126992   3.947   6.666   3.156 -3.0305 -0.2811  2.0533
 1859TIP3    H226993   3.995   6.777   3.247  0.6671  0.0046 -0.1519
 1860TIP3   OH226994   5.132   3.162  16.130  0.3915  1.4801 -0.0836
 1860TIP3    H126995   5.161   3.073  16.149 -0.8781  0.9073 -0.7881
 1860TIP3    H226996   5.097   3.158  16.041 -2.8170  1.8820  1.0922
 1861TIP3   OH226997   3.903   2.761   3.175  0.4654  0.1995  0.4054
 1861TIP3    H126998   3.942   2.698   3.235  1.0611 -0.7744 -0.9736
 1861TIP3    H226999   3.957   2.840   3.184 -0.6253  0.7453  2.5519
 1862TIP3   OH227000   3.182   1.930  11.155  0.3369 -0.0619 -0.4011
 1862TIP3    H127001   3.177   1.992  11.082 -0.1893  0.6259  0.2198
 1862TIP3    H227002   3.189   1.844  11.112 -1.0780  0.2390 -1.2640
 1863TIP3   OH227003   0.420   6.173  10.613  0.1959  0.2276 -0.1370
 1863TIP3    H127004   0.397   6.102  10.673 -2.3981  0.9860 -0.1666
 1863TIP3    H227005   0.436   6.130  10.529 -3.0864 -0.2124 -0.5957
 1864TIP3   OH227006   6.503   1.221   1.279 -0.0423 -0.0803 -0.2428
 1864TIP3    H127007   6.543   1.161   1.342 -0.1489 -0.6538 -0.7197
 1864TIP3    H227008   6.415   1.186   1.264 -0.6903  1.1164  0.7191
 1865TIP3   OH227009   2.498   6.590  13.524  0.4815  0.0856  0.1806
 1865TIP3    H127010   2.563   6.658  13.538  1.4206 -0.6894 -0.3223
 1865TIP3    H227011   2.505   6.533  13.601 -1.1468  1.2008  1.1962
 1866TIP3   OH227012   3.694   4.430   5.242 -0.0747 -0.3286 -0.2252
 1866TIP3    H127013   3.676   4.468   5.328 -2.1881 -1.0413 -0.3345
 1866TIP3    H227014   3.642   4.350   5.239  2.5479 -2.0757 -0.8931
 1867TIP3   OH227015   0.786   0.017   1.659 -0.0532 -0.2316 -0.0738
 1867TIP3    H127016   0.724  -0.016   1.594 -0.9300  0.8862  0.1784
 1867TIP3    H227017   0.828  -0.061   1.694 -1.7307 -1.0467  0.1626
 1868TIP3   OH227018   6.408   1.983  11.480 -0.0778 -0.2208  0.5647
 1868TIP3    H127019   6.470   1.945  11.543 -0.9797 -3.0299 -0.1725
 1868TIP3    H227020   6.406   1.921  11.408 -0.5433  1.9992 -1.3903
 1869TIP3   OH227021   6.226   1.797   1.683 -0.2918  0.1330 -0.3592
 1869TIP3    H127022   6.254   1.832   1.767  0.1977 -0.2609 -0.3570
 1869TIP3    H227023   6.171   1.721   1.705  0.7745 -0.6618 -0.4140
 1870TIP3   OH227024   3.137   0.418  15.888  0.6238 -0.0762 -0.4739
 1870TIP3    H127025   3.138   0.364  15.967 -0.0385 -0.5891 -0.8043
 1870TIP3    H227026   3.191   0.370  15.825 -1.2911 -1.2076 -1.3019
 1871TIP3   OH227027   4.897   3.534  10.801  0.3882  0.0401  0.4577
 1871TIP3    H127028   4.941   3.466  10.851  0.0644 -0.9602 -0.6111
 1871TIP3    H227029   4.916   3.514  10.710 -0.1489  1.0788  0.1013
 1872TIP3   OH227030   4.687   1.356  15.066  0.1245 -0.0522  0.2961
 1872TIP3    H127031   4.753   1.348  15.135  0.6706 -1.7968 -0.4106
 1872TIP3    H227032   4.635   1.276  15.072 -0.8043  0.4944 -0.3042
 1873TIP3   OH227033   3.499   4.206   1.272 -0.1385  0.1238  0.0101
 1873TIP3    H127034   3.416   4.222   1.319  0.4325  2.4608  0.2642
 1873TIP3    H227035   3.566   4.236   1.333  0.9507 -2.0716 -0.0693
 1874TIP3   OH227036   2.955   5.783   2.150  0.4878  0.1242  0.0186
 1874TIP3    H127037   3.027   5.758   2.092  0.1624 -2.0037  0.4910
 1874TIP3    H227038   2.878   5.781   2.094  0.3467 -0.7096  0.2470
 1875TIP3   OH227039   5.071   0.656  15.892  0.3262  0.0488 -0.0795
 1875TIP3    H127040   5.038   0.615  15.973  1.2447 -0.7317 -0.0876
 1875TIP3    H227041   5.162   0.678  15.912 -0.8516  4.5326  0.8157
 1876TIP3   OH227042   2.377   1.360  14.095 -0.1066 -0.0586  0.4129
 1876TIP3    H127043   2.359   1.417  14.019  0.3713  1.0428  1.1028
 1876TIP3    H227044   2.338   1.407  14.169  0.5140 -0.5242  1.0328
 1877TIP3   OH227045   3.785   3.330   3.888  0.1903 -0.3754  0.5322
 1877TIP3    H127046   3.763   3.423   3.894 -1.5340 -0.7432  0.3465
 1877TIP3    H227047   3.703   3.288   3.862  1.0943 -1.8833  0.0329
 1878TIP3   OH227048   1.249   5.028   2.353  0.1936 -0.3022 -0.0639
 1878TIP3    H127049   1.313   5.067   2.412 -1.3226  0.5645  1.0693
 1878TIP3    H227050   1.205   4.962   2.406 -2.0921  1.3941  0.2196
 1879TIP3   OH227051   1.105   4.855  15.561  0.5402  0.0726  0.2545
 1879TIP3    H127052   1.022   4.881  15.600  0.1026 -3.1080  1.6114
 1879TIP3    H227053   1.171   4.887  15.623  0.0930 -0.6878  1.1455
 1880TIP3   OH227054   5.092   2.700   4.641  0.1048  0.1423  0.5805
 1880TIP3    H127055   5.036   2.733   4.712  0.0005 -1.8329  1.4739
 1880TIP3    H227056   5.033   2.649   4.586  0.6187 -0.2386  0.3757
 1881TIP3   OH227057   0.994   0.607   5.009 -0.3459 -0.3379 -0.6126
 1881TIP3    H127058   1.033   0.660   4.940  2.1650 -0.4302  0.6718
 1881TIP3    H227059   0.942   0.669   5.061  1.6237  0.6737  0.1962
 1882TIP3   OH227060   1.300   0.771  11.981 -0.0916 -0.1949  0.1981
 1882TIP3    H127061   1.272   0.706  11.916  0.9374  0.6563 -1.1138
 1882TIP3    H227062   1.395   0.774  11.972  0.0787 -0.2098  1.8964
 1883TIP3   OH227063   2.221   1.700  11.884 -0.6251  0.2063  0.3618
 1883TIP3    H127064   2.127   1.712  11.872 -1.0125 -0.4390  2.6546
 1883TIP3    H227065   2.233   1.689  11.978  1.7472  0.2278  0.1014
 1884TIP3   OH227066   4.152   1.232  14.664  0.7043 -0.3766 -0.6120
 1884TIP3    H127067   4.127   1.320  14.693  2.0372 -0.6226  1.3698
 1884TIP3    H227068   4.182   1.188  14.743  2.3986 -1.8061 -1.9943
 1885TIP3   OH227069   6.050   6.702   6.058 -0.7879 -0.1523  0.0257
 1885TIP3    H127070   5.981   6.715   6.122 -0.7887 -1.6593  0.3466
 1885TIP3    H227071   6.045   6.609   6.035 -0.4305  0.2469 -1.7451
 1886TIP3   OH227072   3.361   4.103   5.401  0.5189 -0.2088  0.6834
 1886TIP3    H127073   3.281   4.133   5.444  0.3091 -0.9209  0.8055
 1886TIP3    H227074   3.419   4.076   5.472  0.3334 -0.9921  0.5459
 1887TIP3   OH227075   2.323   0.155   2.948 -0.2418 -0.3314 -0.1774
 1887TIP3    H127076   2.304   0.067   2.914  0.8163 -1.5494  2.2847
 1887TIP3    H227077   2.406   0.145   2.996 -0.7746  1.7200  1.2331
 1888TIP3   OH227078   0.977   0.500  10.543  0.0371  0.2411 -0.1963
 1888TIP3    H127079   0.912   0.434  10.571  0.8471 -0.1135  0.8701
 1888TIP3    H227080   1.052   0.485  10.601  0.7412  1.2224 -0.8590
 1889TIP3   OH227081   6.491   4.559  17.215 -0.1035  0.4691  0.2834
 1889TIP3    H127082   6.526   4.570  17.304 -1.8578  1.2074  0.9119
 1889TIP3    H227083   6.420   4.496  17.226 -1.1687  1.5517 -0.3743
 1890TIP3   OH227084   2.879   5.606  17.090 -0.6916  0.4575 -0.0004
 1890TIP3    H127085   2.906   5.622  17.181  0.5163  0.4862 -0.3513
 1890TIP3    H227086   2.962   5.604  17.041 -1.1311 -2.0472 -0.7131
 1891TIP3   OH227087   1.308   1.022  15.055 -0.3404 -0.5170 -0.3529
 1891TIP3    H127088   1.373   0.978  15.110  0.6665 -0.3159 -1.3632
 1891TIP3    H227089   1.299   0.965  14.979 -2.2697 -1.1618  0.3545
 1892TIP3   OH227090   5.174   3.469  13.871 -0.0590 -0.4982  0.4629
 1892TIP3    H127091   5.239   3.478  13.941  0.8092 -1.0892 -0.2524
 1892TIP3    H227092   5.105   3.414  13.909  0.1689 -0.4035  1.0179
 1893TIP3   OH227093   4.638   4.454  13.362 -0.1804 -0.4879 -0.3381
 1893TIP3    H127094   4.611   4.487  13.448 -2.0533 -1.1339 -0.6521
 1893TIP3    H227095   4.650   4.360  13.376 -1.1685 -0.7074 -0.9315
 1894TIP3   OH227096   3.603   0.168   2.242  0.3052  0.2590  0.1498
 1894TIP3    H127097   3.608   0.099   2.308 -0.5384 -1.5276 -1.5967
 1894TIP3    H227098   3.522   0.215   2.264 -0.7696 -1.2504 -0.4336
 1895TIP3   OH227099   1.921   6.232   0.094 -0.1908 -0.1848  0.5454
 1895TIP3    H127100   1.887   6.300   0.035  0.3085  1.7872  2.4472
 1895TIP3    H227101   2.011   6.261   0.114  0.6981 -2.4292 -0.1105
 1896TIP3   OH227102   6.547   6.146  14.176  0.2082 -0.2200  0.2071
 1896TIP3    H127103   6.577   6.091  14.104 -2.5681 -0.6070 -0.6945
 1896TIP3    H227104   6.489   6.210  14.136  0.9063  1.4083  1.7087
 1897TIP3   OH227105   4.154   2.526  15.232  0.1008  0.1645  0.4655
 1897TIP3    H127106   4.233   2.498  15.185 -0.9788 -0.1074 -1.2117
 1897TIP3    H227107   4.133   2.611  15.195  0.3060  0.8087  1.7974
 1898TIP3   OH227108   6.268   1.951   3.971 -0.6544 -0.0777 -0.3383
 1898TIP3    H127109   6.292   1.862   3.994 -1.0394 -0.0256  0.2962
 1898TIP3    H227110   6.181   1.943   3.930 -0.2913 -0.0908 -1.1140
 1899TIP3   OH227111   6.748   5.150   0.589 -0.0970 -0.2082  0.3475
 1899TIP3    H127112   6.775   5.062   0.616 -1.8343 -0.9914 -0.3745
 1899TIP3    H227113   6.676   5.172   0.648 -0.2367  0.3557 -0.0279
 1900TIP3   OH227114   1.125   5.913  11.844  0.0498 -0.3240  0.1476
 1900TIP3    H127115   1.188   5.947  11.907  1.1144 -1.4058 -0.3062
 1900TIP3    H227116   1.112   5.983  11.781  0.5658  0.0103  0.4180
 1901TIP3   OH227117   6.393   4.364  13.307 -0.3906 -0.4134  0.3893
 1901TIP3    H127118   6.306   4.394  13.334 -0.1038  2.2150 -1.4383
 1901TIP3    H227119   6.378   4.277  13.270 -2.2024 -0.0736  0.2862
 1902TIP3   OH227120   6.425   0.423   4.541  0.0337 -0.3551 -0.3412
 1902TIP3    H127121   6.513   0.432   4.505  0.6857  0.4194  1.3391
 1902TIP3    H227122   6.427   0.339   4.587 -0.7860 -1.3369 -2.0937
 1903TIP3   OH227123   0.339   4.376  14.862  0.1669  0.2839 -0.5324
 1903TIP3    H127124   0.402   4.359  14.931 -0.5700 -0.3266 -0.0042
 1903TIP3    H227125   0.304   4.463  14.883 -1.0010 -0.4480  0.6082
 1904TIP3   OH227126   0.947   5.203   5.179 -0.0072  0.3275  0.2369
 1904TIP3    H127127   0.872   5.146   5.161  0.0758  0.4198 -0.4041
 1904TIP3    H227128   0.948   5.211   5.274  0.7119 -1.7670  0.4400
 1905TIP3   OH227129   4.757   4.698  14.201  0.0901  0.2714 -0.1776
 1905TIP3    H127130   4.697   4.719  14.130  1.3878 -1.4474 -1.8564
 1905TIP3    H227131   4.701   4.664  14.271 -0.9875 -0.4974 -1.3899
 1906TIP3   OH227132   2.845   1.548  16.757 -0.5326 -0.0738 -0.5036
 1906TIP3    H127133   2.819   1.628  16.712  0.5002  0.9429  0.6473
 1906TIP3    H227134   2.799   1.552  16.841  0.2082 -0.2322 -0.0805
 1907TIP3   OH227135   5.530   5.849   2.598  0.4547 -0.5446  0.2965
 1907TIP3    H127136   5.474   5.925   2.615  0.6227 -0.3560 -0.0022
 1907TIP3    H227137   5.599   5.855   2.665  0.0967 -0.8045  0.6968
 1908TIP3   OH227138   3.533   0.721   3.664  0.7193 -0.3871  0.0167
 1908TIP3    H127139   3.469   0.715   3.735  1.9729  1.0123  1.2819
 1908TIP3    H227140   3.618   0.707   3.705  1.3834 -0.5089 -1.3542
 1909TIP3   OH227141   5.084   4.686   0.755 -0.2412  0.3136 -0.1741
 1909TIP3    H127142   5.111   4.596   0.735 -0.4642  0.8416 -2.9325
 1909TIP3    H227143   5.164   4.737   0.748 -0.3332  0.5335  0.3043
 1910TIP3   OH227144   0.476   6.524   5.879 -0.0002 -0.0066  0.1673
 1910TIP3    H127145   0.541   6.499   5.945  1.3393  2.2777 -0.2348
 1910TIP3    H227146   0.426   6.444   5.863  1.3910 -1.2839  1.9743
 1911TIP3   OH227147   4.684   0.089   4.121  0.0533 -0.4455 -0.0525
 1911TIP3    H127148   4.626   0.164   4.131  1.1471  0.5439 -1.0217
 1911TIP3    H227149   4.654   0.027   4.187 -1.0342  0.7228  0.5770
 1912TIP3   OH227150   0.659   6.712  14.743 -0.0094 -0.0292 -0.0384
 1912TIP3    H127151   0.713   6.634  14.729  1.0742  0.5181  1.0400
 1912TIP3    H227152   0.585   6.682  14.795  0.1602 -0.4295 -0.0288
 1913TIP3   OH227153   6.619   3.612  15.210 -0.4114  0.4541 -0.3991
 1913TIP3    H127154   6.624   3.612  15.115 -0.5480  1.0621 -0.4039
 1913TIP3    H227155   6.680   3.681  15.238 -1.1773  1.0062 -0.0888
 1914TIP3   OH227156   1.937   2.269   4.683  0.1285  0.6731  0.3530
 1914TIP3    H127157   1.947   2.256   4.588 -1.1863 -0.7495  0.3978
 1914TIP3    H227158   2.018   2.233   4.721 -1.1454 -2.6709  0.0646
 1915TIP3   OH227159   6.119   2.862  12.524 -0.3197  0.5430 -0.0489
 1915TIP3    H127160   6.199   2.838  12.478 -1.1653 -0.9799 -0.7708
 1915TIP3    H227161   6.150   2.902  12.606  1.1780 -1.1334  0.2415
 1916TIP3   OH227162   6.755   5.275   4.556  0.1281  0.5239 -0.1080
 1916TIP3    H127163   6.676   5.291   4.609  0.5543  0.9787  0.3929
 1916TIP3    H227164   6.731   5.303   4.468  0.8439  3.9759  0.7205
 1917TIP3   OH227165   3.002   5.758  15.725  0.1719  0.3318  0.0714
 1917TIP3    H127166   3.063   5.685  15.732  0.3135  0.4099 -0.3641
 1917TIP3    H227167   2.938   5.730  15.659  0.9384  1.1075 -1.0146
 1918TIP3   OH227168   4.964   1.808  15.059  0.0358 -0.1961 -0.3582
 1918TIP3    H127169   4.891   1.787  15.117 -0.4174 -0.5390 -1.0471
 1918TIP3    H227170   4.928   1.871  14.996  1.2373  2.3012  1.3565
 1919TIP3   OH227171   0.272   3.267  14.421  0.2992  0.8198  0.0653
 1919TIP3    H127172   0.217   3.340  14.392  1.2686  1.7564  0.5389
 1919TIP3    H227173   0.355   3.281  14.374  0.4896  0.0192  0.1630
 1920TIP3   OH227174   4.428   3.095  14.961 -0.3479 -0.0658 -0.2081
 1920TIP3    H127175   4.402   3.170  15.015  1.8466  0.6661 -0.1171
 1920TIP3    H227176   4.359   3.088  14.895 -1.1163  1.4007  0.4114
 1921TIP3   OH227177   2.690   0.338   0.568  0.3054 -0.4497  0.3883
 1921TIP3    H127178   2.631   0.409   0.593  1.2788  1.1922 -1.7707
 1921TIP3    H227179   2.762   0.343   0.630  0.6558  0.8685 -0.1010
 1922TIP3   OH227180   3.493   2.715   1.668  0.1992 -0.2867  0.3242
 1922TIP3    H127181   3.472   2.755   1.752  0.7023  1.2555 -0.2794
 1922TIP3    H227182   3.549   2.640   1.690 -2.9818 -2.3803  1.6783
 1923TIP3   OH227183   4.428   5.125   0.199  0.0429  0.0436  0.0691
 1923TIP3    H127184   4.478   5.050   0.166  1.9897  2.8212 -3.7656
 1923TIP3    H227185   4.495   5.189   0.225 -1.4585  2.4738 -1.7965
 1924TIP3   OH227186   0.115   3.785  13.721  0.5279  0.4772  0.4681
 1924TIP3    H127187   0.150   3.857  13.772  3.2186 -0.5062  0.1108
 1924TIP3    H227188   0.103   3.821  13.633  0.3476  0.8921  0.6626
 1925TIP3   OH227189   1.295   1.458   5.934  0.1338 -0.4696  0.1372
 1925TIP3    H127190   1.326   1.494   5.852 -0.3850  1.1328  0.6115
 1925TIP3    H227191   1.356   1.491   6.000 -2.0657  2.1749  0.9857
 1926TIP3   OH227192   2.175   4.723  15.102  0.2680  0.2826 -0.3382
 1926TIP3    H127193   2.194   4.792  15.165  0.8897  0.3665 -0.6073
 1926TIP3    H227194   2.238   4.738  15.031  2.2007 -2.1425  0.7914
 1927TIP3   OH227195   2.781   5.979  14.978 -0.0343 -0.1545 -0.2950
 1927TIP3    H127196   2.847   6.019  15.035 -0.6721  1.1011 -0.4191
 1927TIP3    H227197   2.698   6.000  15.020 -0.5270  0.9604 -1.7802
 1928TIP3   OH227198   0.786   5.999   3.793 -0.3840 -0.0558 -0.1607
 1928TIP3    H127199   0.710   5.941   3.794 -0.0884 -0.4485 -0.2931
 1928TIP3    H227200   0.847   5.961   3.857  0.5230 -0.8670 -1.4683
 1929TIP3   OH227201   6.002   2.131   4.549 -0.4202 -0.9116 -0.1232
 1929TIP3    H127202   6.015   2.037   4.539  0.1473 -0.8704  0.2467
 1929TIP3    H227203   6.007   2.165   4.459  1.2105 -1.0013 -0.0770
 1930TIP3   OH227204   4.334   1.554   2.453 -0.2651  0.1367  0.3501
 1930TIP3    H127205   4.419   1.574   2.493  0.3007 -0.7786 -0.3566
 1930TIP3    H227206   4.349   1.471   2.406 -1.8228 -0.5729  1.0749
 1931TIP3   OH227207   3.585   6.324  13.833  0.2249 -0.0517  0.4973
 1931TIP3    H127208   3.557   6.395  13.775  0.0645  0.9125  1.7316
 1931TIP3    H227209   3.653   6.278  13.784 -0.2710  0.4427 -0.6612
 1932TIP3   OH227210   4.015   4.182   6.209  0.1995 -0.4394 -0.2780
 1932TIP3    H127211   4.018   4.172   6.114 -0.4451 -2.2079 -0.1274
 1932TIP3    H227212   4.045   4.098   6.243 -0.5854 -0.1802  1.0845
 1933TIP3   OH227213   1.663   5.893  14.338 -0.2179  0.4460 -0.2066
 1933TIP3    H127214   1.614   5.871  14.258 -0.9563  0.1295  0.3324
 1933TIP3    H227215   1.634   5.828  14.402  1.9459 -0.6231 -0.2784
 1934TIP3   OH227216   1.363   1.716   1.574 -0.1900  0.0368 -0.0197
 1934TIP3    H127217   1.318   1.631   1.571  0.3854 -0.2781  0.1640
 1934TIP3    H227218   1.292   1.781   1.570 -0.5415 -0.4348 -1.9488
 1935TIP3   OH227219   1.070   6.444  15.634  0.2748 -0.3729  0.1034
 1935TIP3    H127220   0.996   6.504  15.644  0.8087  0.4690 -1.0047
 1935TIP3    H227221   1.042   6.384  15.564 -0.3359 -1.5607  1.3316
 1936TIP3   OH227222   5.300   0.581  15.084 -0.0852 -0.0563  0.1492
 1936TIP3    H127223   5.317   0.503  15.031 -0.9192  1.0540 -1.8185
 1936TIP3    H227224   5.206   0.576  15.103 -0.4403  1.1709 -1.1967
 1937TIP3   OH227225   5.483   0.003   4.433  0.5787 -0.1087 -0.3765
 1937TIP3    H127226   5.494   0.047   4.517 -1.5272  1.9463 -1.1170
 1937TIP3    H227227   5.543   0.049   4.374 -0.8228  1.1089 -0.8914
 1938TIP3   OH227228   6.530   5.803   1.302  0.7815 -0.0741 -0.1715
 1938TIP3    H127229   6.437   5.822   1.288  0.7106 -1.4148 -1.5607
 1938TIP3    H227230   6.569   5.889   1.317 -0.2185  0.8248 -2.4201
 1939TIP3   OH227231   5.157   1.235  16.427  0.1156  0.3781  0.3961
 1939TIP3    H127232   5.188   1.304  16.369 -0.4155 -1.1218 -1.7058
 1939TIP3    H227233   5.064   1.253  16.439 -0.3723 -0.8655 -1.4396
 1940TIP3   OH227234   5.282   1.578   3.262  0.2827  0.1481 -0.4670
 1940TIP3    H127235   5.356   1.545   3.212 -1.1842 -0.9843 -1.9420
 1940TIP3    H227236   5.256   1.658   3.216 -0.3724 -0.2868 -0.8477
 1941TIP3   OH227237   2.806   3.625   0.122  0.3489  0.4853  0.3351
 1941TIP3    H127238   2.758   3.634   0.040  1.9342 -1.8526 -0.9127
 1941TIP3    H227239   2.762   3.554   0.168  0.0086  1.2070  1.1505
 1942TIP3   OH227240   1.003   0.631   3.223  0.1450 -0.5282  0.4053
 1942TIP3    H127241   0.983   0.705   3.166  2.0994 -0.2567  0.0339
 1942TIP3    H227242   0.945   0.642   3.298 -1.0162  0.2377 -0.5769
 1943TIP3   OH227243   1.051   5.711   5.075  0.2206 -0.2569 -0.2419
 1943TIP3    H127244   1.145   5.714   5.089  0.4411  0.1891 -1.7421
 1943TIP3    H227245   1.035   5.625   5.035  0.2768  0.4937 -1.9081
 1944TIP3   OH227246   0.883   5.622   2.252 -0.2746  0.9840  0.4107
 1944TIP3    H127247   0.952   5.614   2.186 -0.5296  0.1781  0.2322
 1944TIP3    H227248   0.827   5.546   2.237 -1.1175  1.5555  0.6516
 1945TIP3   OH227249   3.790   3.498   3.627 -0.3358  0.1893  0.2519
 1945TIP3    H127250   3.699   3.497   3.598 -0.4420  0.5616  0.5680
 1945TIP3    H227251   3.791   3.558   3.702  0.4575  1.3599 -0.6755
 1946TIP3   OH227252   4.379   2.314  12.127 -0.2587  0.2492  0.0905
 1946TIP3    H127253   4.363   2.319  12.221 -1.4144 -0.9634 -0.0310
 1946TIP3    H227254   4.383   2.221  12.107  4.0558  0.4195 -0.4405
 1947TIP3   OH227255   3.134   3.690   3.501 -0.1722 -0.2883  0.2821
 1947TIP3    H127256   3.194   3.765   3.499  0.5202 -0.7270  2.7975
 1947TIP3    H227257   3.191   3.614   3.486 -0.4833 -0.5019  0.1751
 1948TIP3   OH227258   1.197   6.100   1.121  0.3609  0.4395  0.7687
 1948TIP3    H127259   1.212   6.005   1.127  1.8514  0.7503  2.2966
 1948TIP3    H227260   1.259   6.130   1.055  0.4916  0.4807  0.9109
 1949TIP3   OH227261   0.995   1.963  12.959 -0.4968  0.8841  0.5540
 1949TIP3    H127262   0.994   2.020  12.883  0.0871  1.4205  0.9457
 1949TIP3    H227263   1.084   1.928  12.963 -1.0007 -0.5142 -0.0177
 1950TIP3   OH227264   3.490   5.415   0.965 -0.2680  0.3879 -0.7119
 1950TIP3    H127265   3.475   5.506   0.938 -1.7027  0.7738  1.3438
 1950TIP3    H227266   3.493   5.367   0.882  3.0503  2.6150 -2.0202
 1951TIP3   OH227267   5.897   3.252   3.639 -0.9708 -0.2759  0.1471
 1951TIP3    H127268   5.927   3.318   3.701  3.7541 -0.5086 -1.6843
 1951TIP3    H227269   5.842   3.300   3.577  0.2907  1.4761  0.3426
 1952TIP3   OH227270   0.224   4.652   1.981 -0.4911  0.5378 -0.1291
 1952TIP3    H127271   0.149   4.678   2.034 -0.9825 -1.3830  0.1599
 1952TIP3    H227272   0.192   4.651   1.891  0.1276  3.0143 -0.4170
 1953TIP3   OH227273   4.602   2.091   2.603 -0.0382 -0.1309  0.1130
 1953TIP3    H127274   4.675   2.030   2.612 -0.0352 -0.2376 -0.5731
 1953TIP3    H227275   4.524   2.038   2.618 -0.0116 -0.1951  0.0251
 1954TIP3   OH227276   1.939   3.479  11.491 -0.7632  0.3444  0.0299
 1954TIP3    H127277   2.004   3.410  11.481  0.3053  1.4423 -0.6875
 1954TIP3    H227278   1.856   3.433  11.504 -0.1677 -1.0671 -1.0993
 1955TIP3   OH227279   1.108   6.554  13.320 -0.9153  0.2438 -0.0927
 1955TIP3    H127280   1.188   6.502  13.326 -1.4305 -0.7899 -1.6440
 1955TIP3    H227281   1.107   6.607  13.399  0.5626 -0.7889  0.6367
 1956TIP3   OH227282   5.263   2.737   0.678 -0.4963  0.1817 -0.0749
 1956TIP3    H127283   5.331   2.679   0.712 -2.1474 -1.1143  1.0726
 1956TIP3    H227284   5.229   2.692   0.600 -0.7959  0.2941 -0.0116
 1957TIP3   OH227285   0.123   0.793  15.877  0.3131  0.0090 -0.2618
 1957TIP3    H127286   0.062   0.727  15.911 -0.8231  0.2854 -1.7295
 1957TIP3    H227287   0.083   0.822  15.795  1.5820  1.4227 -0.3833
 1958TIP3   OH227288   4.155   5.336  14.871 -0.1469  0.1289 -0.5888
 1958TIP3    H127289   4.077   5.303  14.827 -0.1865  0.8964 -1.1103
 1958TIP3    H227290   4.151   5.300  14.959 -1.3552  0.5990 -0.4498
 1959TIP3   OH227291   6.296   2.571  12.014  0.2709 -0.4904  0.0072
 1959TIP3    H127292   6.208   2.545  11.987  0.3140 -1.0267  0.3698
 1959TIP3    H227293   6.289   2.664  12.032  0.0765 -0.2672 -1.1710
 1960TIP3   OH227294   3.345   3.604  15.817  0.2186  0.0826 -0.3734
 1960TIP3    H127295   3.261   3.601  15.770 -0.3740 -0.5253  0.6887
 1960TIP3    H227296   3.394   3.674  15.775  0.5319 -1.7672 -3.2525
 1961TIP3   OH227297   6.706   6.201   6.321  0.1524  0.2277  0.2686
 1961TIP3    H127298   6.778   6.140   6.333  0.9276  0.4323 -2.9898
 1961TIP3    H227299   6.636   6.148   6.283  0.2363  0.9921 -0.9751
 1962TIP3   OH227300   1.227   3.189  14.700 -0.1511 -0.4002  0.4004
 1962TIP3    H127301   1.133   3.174  14.708 -0.3497  0.5295 -0.0606
 1962TIP3    H227302   1.267   3.118  14.749 -1.0857 -1.0651  0.2126
 1963TIP3   OH227303   2.492   2.592  12.228  0.6689  0.0123  0.6047
 1963TIP3    H127304   2.549   2.588  12.305  2.2425  1.2102 -0.4612
 1963TIP3    H227305   2.425   2.656  12.252 -0.3664 -1.5419  1.9397
 1964TIP3   OH227306   3.642   2.223   2.827 -0.1903  0.1392 -0.2223
 1964TIP3    H127307   3.561   2.251   2.785 -0.1010  3.8717  1.8571
 1964TIP3    H227308   3.703   2.208   2.755 -2.1508 -0.8471 -1.7020
 1965TIP3   OH227309   1.870   1.438   6.142 -0.5338 -0.3423  0.1209
 1965TIP3    H127310   1.843   1.348   6.123  0.0718 -0.4901 -0.0394
 1965TIP3    H227311   1.788   1.483   6.166 -1.2419 -0.3043 -2.2262
 1966TIP3   OH227312   5.867   1.249  13.785 -0.0029 -0.2366 -0.4535
 1966TIP3    H127313   5.848   1.342  13.796 -1.0799 -0.7006  1.9161
 1966TIP3    H227314   5.961   1.241  13.800 -0.3741  0.0933  2.2513
 1967TIP3   OH227315   5.852   4.850   3.680 -0.1187  0.7590  0.1994
 1967TIP3    H127316   5.772   4.796   3.675  0.1530  0.4354 -0.8077
 1967TIP3    H227317   5.899   4.816   3.756 -0.9812  1.0166  0.8613
 1968TIP3   OH227318   2.666   0.290   1.734 -1.1531  0.2053  0.1643
 1968TIP3    H127319   2.602   0.360   1.719 -1.3932  0.1132  0.7550
 1968TIP3    H227320   2.656   0.231   1.659 -0.7232  0.9720 -0.5021
 1969TIP3   OH227321   5.518   0.493  13.405 -0.0390 -0.0224 -0.5921
 1969TIP3    H127322   5.462   0.524  13.475  1.3869  2.6808 -0.5616
 1969TIP3    H227323   5.581   0.564  13.391  2.3254 -2.2237 -1.7575
 1970TIP3   OH227324   0.275   0.062  15.072 -0.2012  0.3909 -0.0764
 1970TIP3    H127325   0.244  -0.015  15.025 -0.3247  1.1132 -1.2029
 1970TIP3    H227326   0.197   0.118  15.082 -0.0141  0.5898  0.2807
 1971TIP3   OH227327   4.233   0.500   2.260 -0.4530  0.4319  0.2020
 1971TIP3    H127328   4.264   0.492   2.351  1.1104 -0.8606 -0.4270
 1971TIP3    H227329   4.179   0.422   2.246 -0.4587  0.4849 -0.0749
 1972TIP3   OH227330   0.774   5.389   2.192 -0.0606 -0.4787  0.0190
 1972TIP3    H127331   0.788   5.319   2.256  0.0992 -0.3831  0.0908
 1972TIP3    H227332   0.687   5.372   2.156 -0.2583 -0.3828  0.4525
 1973TIP3   OH227333   6.108   6.562   5.622 -0.8096  0.0146 -0.0293
 1973TIP3    H127334   6.086   6.651   5.650  0.5859  0.6636 -0.9547
 1973TIP3    H227335   6.148   6.573   5.536  0.5615 -1.3859  0.4093
 1974TIP3   OH227336   3.352   4.633  14.346  0.0893  0.3684  0.3025
 1974TIP3    H127337   3.346   4.550  14.394 -0.2798 -0.5199 -1.2702
 1974TIP3    H227338   3.394   4.611  14.264 -2.6751  1.1937 -1.3963
 1975TIP3   OH227339   6.322   2.658   6.615 -0.3188  0.1004 -0.2125
 1975TIP3    H127340   6.250   2.596   6.602 -1.0853  0.7299  0.9310
 1975TIP3    H227341   6.291   2.738   6.572 -0.3259  0.3830  0.3156
 1976TIP3   OH227342   0.909   4.403   3.581 -0.3092  0.0728  0.0288
 1976TIP3    H127343   0.947   4.440   3.660  0.8493  0.3992 -0.6625
 1976TIP3    H227344   0.978   4.347   3.545 -1.5543 -1.6944  0.3431
 1977TIP3   OH227345   4.579   1.661  10.568  0.3896  0.1904  0.7670
 1977TIP3    H127346   4.524   1.584  10.583  1.4736 -0.2991  2.4285
 1977TIP3    H227347   4.667   1.625  10.556  0.5589  1.0445 -0.5661
 1978TIP3   OH227348   5.286   3.138  13.862 -0.1687  0.3308 -0.9037
 1978TIP3    H127349   5.328   3.171  13.782  0.7061  0.1889 -0.5045
 1978TIP3    H227350   5.193   3.156  13.848 -0.1220 -0.3992 -2.2922
 1979TIP3   OH227351   2.966   6.362  10.948  0.5421  0.5437 -0.4055
 1979TIP3    H127352   3.002   6.279  10.914  1.6682  0.8060  0.1089
 1979TIP3    H227353   2.910   6.394  10.878 -0.3706 -0.9426 -0.3857
 1980TIP3   OH227354   0.224   0.207  14.207 -0.8477 -0.3640  0.1357
 1980TIP3    H127355   0.280   0.284  14.215 -1.8788  0.2216  2.1036
 1980TIP3    H227356   0.141   0.241  14.173 -0.5500 -0.9805 -1.2422
 1981TIP3   OH227357   4.420   1.617  17.230 -0.2748 -0.6487  0.2920
 1981TIP3    H127358   4.369   1.624  17.310  0.6021  0.0088  0.8063
 1981TIP3    H227359   4.376   1.676  17.168 -0.7210 -0.8541  0.4147
 1982TIP3   OH227360   0.983   4.508   1.784  0.1432 -0.0208 -0.3298
 1982TIP3    H127361   1.073   4.496   1.753  0.2603  1.7758 -0.7536
 1982TIP3    H227362   0.951   4.419   1.800  1.6706 -0.7334 -1.0968
 1983TIP3   OH227363   4.740   1.135   5.358  0.8504 -0.2129 -0.2105
 1983TIP3    H127364   4.712   1.094   5.276 -1.1169  0.2404  0.2152
 1983TIP3    H227365   4.807   1.075   5.392 -1.1073 -2.4740 -0.1925
 1984TIP3   OH227366   1.574   1.543  13.431 -0.4728  0.0561 -0.4020
 1984TIP3    H127367   1.483   1.564  13.451 -0.3833 -0.3495  0.4370
 1984TIP3    H227368   1.585   1.452  13.458  1.0106  1.0153  2.5276
 1985TIP3   OH227369   5.259   2.831   2.323 -0.2634 -0.6633 -0.2820
 1985TIP3    H127370   5.325   2.786   2.271 -1.0474 -2.1266 -0.0367
 1985TIP3    H227371   5.258   2.784   2.406 -0.1512  0.6543  0.4789
 1986TIP3   OH227372   6.032   5.594   5.299 -0.8825  0.2024 -0.2396
 1986TIP3    H127373   5.948   5.559   5.330 -0.6786 -0.8277 -0.8527
 1986TIP3    H227374   6.092   5.520   5.304 -1.2018 -0.4765 -4.6269
 1987TIP3   OH227375   1.864   6.270   1.419  0.2508 -0.0055 -0.4213
 1987TIP3    H127376   1.944   6.282   1.470 -0.1608  0.6604  0.0667
 1987TIP3    H227377   1.844   6.177   1.428  1.2351 -0.2784 -0.9441
 1988TIP3   OH227378   4.475   0.317  12.774  0.4085  0.1112 -0.0641
 1988TIP3    H127379   4.392   0.275  12.754  1.5129 -1.6437 -1.1549
 1988TIP3    H227380   4.521   0.322  12.690  2.0170 -0.4002  0.7446
 1989TIP3   OH227381   1.672   6.476  11.170 -0.7852 -0.1811 -0.4077
 1989TIP3    H127382   1.641   6.391  11.139  0.6734 -0.1436 -2.0251
 1989TIP3    H227383   1.711   6.517  11.093  2.9851 -0.0871  1.4579
 1990TIP3   OH227384   6.406   5.881  13.888 -0.1299 -0.4059  0.0828
 1990TIP3    H127385   6.467   5.954  13.876  0.3433 -0.8128 -0.0295
 1990TIP3    H227386   6.332   5.919  13.936 -0.5550  0.4886 -1.2312
 1991TIP3   OH227387   0.897   6.754   3.415  0.2588  0.4282  0.1809
 1991TIP3    H127388   0.944   6.824   3.369 -0.1699  0.1611 -0.6740
 1991TIP3    H227389   0.967   6.705   3.459  0.7338  0.3986 -0.5838
 1992TIP3   OH227390   1.507   0.406   3.968 -0.4126  0.2809 -0.4835
 1992TIP3    H127391   1.465   0.480   3.923 -0.7860  0.3883  0.0362
 1992TIP3    H227392   1.496   0.426   4.061 -1.4911 -0.9875 -0.3280
 1993TIP3   OH227393   2.593   4.953   2.557  0.5294  0.1538 -0.4008
 1993TIP3    H127394   2.675   4.923   2.517  0.1325 -0.4522 -0.7575
 1993TIP3    H227395   2.575   5.037   2.514  0.9321  0.2602 -0.3616
 1994TIP3   OH227396   6.513   1.393   6.078  0.6382  0.2277  0.2197
 1994TIP3    H127397   6.535   1.306   6.111 -0.3608 -0.2859 -0.4464
 1994TIP3    H227398   6.448   1.427   6.139  3.5288  1.9670  2.4946
 1995TIP3   OH227399   5.408   4.972   1.439  0.1662 -0.3323 -0.1537
 1995TIP3    H127400   5.391   4.882   1.411  1.7474 -0.5182 -0.5220
 1995TIP3    H227401   5.462   4.964   1.517 -0.2544  0.3012  0.2135
 1996TIP3   OH227402   1.288   3.411  16.966  0.1231 -0.4308  0.3569
 1996TIP3    H127403   1.277   3.449  17.053 -0.9288 -0.2240  0.1446
 1996TIP3    H227404   1.275   3.317  16.978 -1.9861 -0.1981  0.1254
 1997TIP3   OH227405   0.158   0.271  12.203 -0.4706 -1.3094 -0.2577
 1997TIP3    H127406   0.161   0.356  12.159  0.1609 -2.2058 -1.9866
 1997TIP3    H227407   0.071   0.236  12.183  0.2349 -2.2188 -1.7690
 1998TIP3   OH227408   4.265   5.937   0.289 -0.2554  0.4996 -0.2395
 1998TIP3    H127409   4.201   5.973   0.227  0.4476  1.0271 -0.6761
 1998TIP3    H227410   4.347   5.981   0.266  0.1374  0.2604  0.6904
 1999TIP3   OH227411   4.765   1.540   4.553  0.1581  0.3400  0.3710
 1999TIP3    H127412   4.726   1.616   4.597  2.1706  1.1479  0.8418
 1999TIP3    H227413   4.843   1.520   4.606 -0.0327 -1.6888 -0.0974
 2000TIP3   OH227414   2.575   1.006  11.976 -0.5689 -0.1941  0.2505
 2000TIP3    H127415   2.529   0.944  11.919 -0.7233 -2.2461  2.5388
 2000TIP3    H227416   2.507   1.044  12.031  0.0297 -0.8209  1.4373
 2001TIP3   OH227417   5.794   6.453   2.608 -0.3285  0.4337 -0.6441
 2001TIP3    H127418   5.787   6.527   2.668  1.6110  0.6932 -0.7305
 2001TIP3    H227419   5.828   6.490   2.526  0.9238 -0.5788 -0.6050
 2002TIP3   OH227420   3.373   2.451   5.763 -0.2934  0.7169 -0.2840
 2002TIP3    H127421   3.443   2.441   5.698 -1.2449  1.0362 -1.3756
 2002TIP3    H227422   3.295   2.421   5.718 -1.2102  2.2569  0.2545
 2003TIP3   OH227423   3.159   4.859   0.644 -0.3901  0.4399 -0.1279
 2003TIP3    H127424   3.159   4.764   0.652 -0.0470  0.5568  1.5814
 2003TIP3    H227425   3.211   4.877   0.566 -1.7950 -0.8204 -1.3849
 2004TIP3   OH227426   2.165   0.678   1.092  0.4349 -0.5755  0.6813
 2004TIP3    H127427   2.170   0.603   1.033 -1.6592 -0.2280  0.0015
 2004TIP3    H227428   2.201   0.751   1.041 -0.6145 -0.4458  0.1019
 2005TIP3   OH227429   2.042   5.415  16.107  0.1300 -0.4302 -0.9528
 2005TIP3    H127430   2.123   5.386  16.150 -0.5496 -0.7407  0.1487
 2005TIP3    H227431   1.982   5.342  16.119 -1.8275  1.6086  2.4107
 2006TIP3   OH227432   6.026   3.884   3.953 -0.5749  0.0531  0.5753
 2006TIP3    H127433   5.947   3.849   3.995 -0.3352 -0.3196  0.7089
 2006TIP3    H227434   5.999   3.900   3.862 -0.0394 -2.6455 -0.1088
 2007TIP3   OH227435   0.727   6.258   3.605  0.1983 -0.0315 -0.1703
 2007TIP3    H127436   0.730   6.211   3.688  0.2785  1.0715  0.4569
 2007TIP3    H227437   0.682   6.198   3.546  1.9508 -1.6696  0.1006
 2008TIP3   OH227438   5.662   1.908   3.888  0.1494  0.0197  0.3427
 2008TIP3    H127439   5.716   1.883   3.814  0.9067  1.2459  0.4643
 2008TIP3    H227440   5.572   1.904   3.855  0.4295 -0.2307 -0.3916
 2009TIP3   OH227441   2.595   4.527  14.004  0.1903 -0.4308  0.5359
 2009TIP3    H127442   2.601   4.440  14.045 -1.5667 -0.0205  1.7104
 2009TIP3    H227443   2.568   4.585  14.075  0.6468  0.9575 -0.4089
 2010TIP3   OH227444   0.170   0.282   3.244 -0.8007 -0.2306  0.3314
 2010TIP3    H127445   0.150   0.256   3.334 -2.8441  0.5838  0.1298
 2010TIP3    H227446   0.263   0.307   3.247 -0.7325 -0.5903  2.1082
 2011TIP3   OH227447   5.041   6.224  10.907  0.0587 -0.8785  0.1627
 2011TIP3    H127448   5.021   6.277  10.984 -0.5917 -0.0115 -0.6003
 2011TIP3    H227449   4.987   6.146  10.917 -2.1070  0.4603 -0.7772
 2012TIP3   OH227450   4.467   3.174   2.094 -0.4466 -0.0638 -0.0425
 2012TIP3    H127451   4.547   3.145   2.138 -0.1190  1.5208  0.4134
 2012TIP3    H227452   4.438   3.250   2.143 -2.8701 -1.2721  0.4609
 2013TIP3   OH227453   0.579   2.090   4.624  0.0762 -0.2411 -0.5114
 2013TIP3    H127454   0.592   2.047   4.709  0.3496  1.0360  0.1132
 2013TIP3    H227455   0.484   2.098   4.616  0.0938  0.9244  0.3472
 2014TIP3   OH227456   6.210   2.563  10.584  0.0291  0.3273 -0.3838
 2014TIP3    H127457   6.119   2.554  10.554 -0.6315  1.5446  1.2033
 2014TIP3    H227458   6.251   2.620  10.519 -1.3009  2.6740  0.7714
 2015TIP3   OH227459   2.148   1.763  13.629 -0.7459 -0.4483  0.6328
 2015TIP3    H127460   2.241   1.783  13.627 -1.0990  1.3110  0.5067
 2015TIP3    H227461   2.127   1.754  13.722 -0.6649  0.2905  0.7275
 2016TIP3   OH227462   0.001   3.051   4.428  0.0092 -0.0451  0.4226
 2016TIP3    H127463  -0.068   2.992   4.399 -0.2466  0.1965  0.5386
 2016TIP3    H227464   0.082   3.000   4.420  0.2060  0.6807 -2.6776
 2017TIP3   OH227465   2.453   0.831  12.592  0.2602  0.2619 -0.8467
 2017TIP3    H127466   2.540   0.804  12.621  0.3410  1.2794 -0.1181
 2017TIP3    H227467   2.466   0.867  12.505  1.0120  2.8323  0.2862
 2018TIP3   OH227468   5.710   4.110  16.666 -0.3399  0.1991 -0.8207
 2018TIP3    H127469   5.747   4.178  16.722  0.0382  0.4013 -1.3113
 2018TIP3    H227470   5.783   4.051  16.648 -1.2762 -1.8474  1.7781
 2019TIP3   OH227471   4.092   5.663   0.996 -0.6214  0.2802 -0.1250
 2019TIP3    H127472   4.003   5.628   0.990 -0.9904  0.6694  2.5557
 2019TIP3    H227473   4.091   5.721   1.072  1.5237  1.5468 -1.0001
 2020TIP3   OH227474   6.648   4.780   0.136  0.5379 -0.1382 -0.1374
 2020TIP3    H127475   6.604   4.697   0.150  2.2002 -1.1775 -0.8850
 2020TIP3    H227476   6.658   4.786   0.041  0.4424  0.8990 -0.0843
 2021TIP3   OH227477   3.217   3.550  16.767  0.5034  0.4430 -0.6245
 2021TIP3    H127478   3.286   3.492  16.800 -0.3212  0.4597  1.1646
 2021TIP3    H227479   3.210   3.619  16.833 -0.3853  1.1040 -1.4025
 2022TIP3   OH227480   6.736   5.292  14.700  0.0760  0.6620 -0.4028
 2022TIP3    H127481   6.762   5.368  14.649 -1.2825  0.6685 -1.1164
 2022TIP3    H227482   6.646   5.310  14.727  1.1314  1.2076  3.0650
 2023TIP3   OH227483   2.652   5.292  11.122  0.4672  0.0536 -0.1809
 2023TIP3    H127484   2.747   5.296  11.132  0.6295  1.4730 -2.0680
 2023TIP3    H227485   2.637   5.213  11.069  0.3400 -1.8415  2.5894
 2024TIP3   OH227486   5.108   4.201  11.776 -0.0295 -0.1583 -0.3057
 2024TIP3    H127487   5.198   4.217  11.749 -0.0537 -1.8131 -1.4800
 2024TIP3    H227488   5.066   4.287  11.773  0.9589  0.2963 -1.8818
 2025TIP3   OH227489   5.842   2.997   2.596  0.3973 -0.1795  0.0736
 2025TIP3    H127490   5.927   2.999   2.551  0.5688 -0.0012  0.3969
 2025TIP3    H227491   5.839   2.911   2.638  0.4826 -0.1309  0.1802
 2026TIP3   OH227492   0.837   5.252  14.961  0.0217  0.0017  0.0212
 2026TIP3    H127493   0.751   5.221  14.933 -0.1500 -0.8052  1.4227
 2026TIP3    H227494   0.825   5.347  14.972 -0.5590 -0.0388 -0.2389
 2027TIP3   OH227495   4.190   4.255   3.018  0.5792  0.1149 -0.4519
 2027TIP3    H127496   4.184   4.212   3.103  0.1858  1.6903  0.3355
 2027TIP3    H227497   4.108   4.234   2.974  0.3516  0.1390 -0.0405
 2028TIP3   OH227498   0.919   3.767   2.578 -0.4316  0.2376  0.2536
 2028TIP3    H127499   0.928   3.861   2.593  0.5115  0.0339  1.0450
 2028TIP3    H227500   0.973   3.749   2.501 -0.1159  0.2468  0.4723
 2029TIP3   OH227501   3.902   2.097   0.706  0.2322  0.2211 -0.0794
 2029TIP3    H127502   3.855   2.157   0.763 -0.7854  0.1348 -0.8167
 2029TIP3    H227503   3.859   2.012   0.718  0.5366  0.0214 -0.3585
 2030TIP3   OH227504   4.356   4.723   1.808 -0.0689 -0.3655  0.1055
 2030TIP3    H127505   4.390   4.640   1.841 -0.4435 -1.7778 -2.8856
 2030TIP3    H227506   4.413   4.789   1.848  0.7303 -2.0903  1.9246
 2031TIP3   OH227507   4.410   0.471   0.160  0.3409  0.2247  0.2940
 2031TIP3    H127508   4.350   0.538   0.191  1.4866  1.4276 -0.0254
 2031TIP3    H227509   4.455   0.440   0.239 -0.5552 -0.5487  0.5082
 2032TIP3   OH227510   3.659   5.676  15.621 -0.6191 -0.6135  0.0768
 2032TIP3    H127511   3.578   5.706  15.661  0.6077  2.0728  0.6389
 2032TIP3    H227512   3.647   5.691  15.527 -0.7639 -0.1695  0.1652
 2033TIP3   OH227513   4.845   4.229  14.342  0.3040 -0.3984  0.4500
 2033TIP3    H127514   4.755   4.202  14.359  0.3533  0.2233  1.7575
 2033TIP3    H227515   4.843   4.269  14.255 -0.3873 -1.7125 -0.1509
 2034TIP3   OH227516   4.978   5.486  12.102  0.3213 -0.3638 -0.8470
 2034TIP3    H127517   5.067   5.522  12.099 -0.3319  1.1719 -2.2103
 2034TIP3    H227518   4.931   5.531  12.032 -1.5056 -1.2798 -0.2410
 2035TIP3   OH227519   3.808   2.441   2.837  0.7989 -0.1769 -0.3804
 2035TIP3    H127520   3.744   2.369   2.840  0.8272 -0.1412  1.4484
 2035TIP3    H227521   3.893   2.397   2.844  0.8164  0.0268  0.7318
 2036TIP3   OH227522   3.185   2.398  10.472 -0.0217 -0.0764  0.0604
 2036TIP3    H127523   3.281   2.387  10.473  0.3804  3.2493  1.1183
 2036TIP3    H227524   3.162   2.395  10.379  1.2575  0.2730 -0.2784
 2037TIP3   OH227525   6.749   4.602   2.736  0.6643  0.1229  0.6645
 2037TIP3    H127526   6.806   4.538   2.694  2.2039  1.2940  0.9617
 2037TIP3    H227527   6.667   4.597   2.687  0.6981 -2.2052  0.7970
 2038TIP3   OH227528   1.633   4.944   4.734 -0.3827 -0.0064 -0.2723
 2038TIP3    H127529   1.591   5.017   4.780  1.3556  1.2956 -0.6624
 2038TIP3    H227530   1.700   4.913   4.795 -0.6858 -0.8321 -0.3676
 2039TIP3   OH227531   3.373   1.076  15.528 -0.4897  0.1829 -0.2954
 2039TIP3    H127532   3.417   1.155  15.558 -1.3443 -0.6241  3.3176
 2039TIP3    H227533   3.430   1.005  15.558 -1.7164 -0.6995 -0.0535
 2040TIP3   OH227534   2.152   5.227  13.415  0.4314  0.3521 -0.3911
 2040TIP3    H127535   2.158   5.307  13.363  0.2098 -0.7138 -2.0777
 2040TIP3    H227536   2.070   5.186  13.388  0.5609 -0.4774  0.4275
 2041TIP3   OH227537   3.923   5.136   1.744  0.1587  0.1412  0.5490
 2041TIP3    H127538   4.017   5.146   1.759  0.0652 -0.1274  1.3488
 2041TIP3    H227539   3.914   5.045   1.716  0.3708  0.7322 -1.5148
 2042TIP3   OH227540   0.940   5.207   1.229 -0.3434  0.0676 -0.0344
 2042TIP3    H127541   0.975   5.204   1.317 -1.8155 -1.0818  0.5364
 2042TIP3    H227542   0.848   5.230   1.240 -1.1592 -2.5315 -1.0583
 2043TIP3   OH227543   4.652   0.970   3.239 -0.1228  0.4840 -0.5666
 2043TIP3    H127544   4.585   1.007   3.182 -1.7777 -0.1771  0.8999
 2043TIP3    H227545   4.605   0.909   3.296  2.1492 -2.0837 -1.3302
 2044TIP3   OH227546   5.553   0.096   4.681 -0.0131  0.5658  0.4978
 2044TIP3    H127547   5.586   0.006   4.686 -0.5977  0.2414 -1.0833
 2044TIP3    H227548   5.488   0.101   4.750 -1.1438 -0.7554 -0.4336
 2045TIP3   OH227549   0.720   1.955  10.184  0.4023  0.6691 -0.4769
 2045TIP3    H127550   0.759   1.871  10.209  0.6657  0.6052 -1.0820
 2045TIP3    H227551   0.644   1.964  10.241  0.4054  0.0432 -0.3673
 2046TIP3   OH227552   0.792   0.731  11.257  0.0471 -0.0860 -0.4247
 2046TIP3    H127553   0.704   0.708  11.287 -0.6059  2.1987 -0.5003
 2046TIP3    H227554   0.779   0.770  11.171  0.8886  2.0833  0.3919
 2047TIP3   OH227555   4.433   6.237   3.787  0.3104  0.1649  0.0031
 2047TIP3    H127556   4.372   6.261   3.717  0.2937  0.1844  0.0241
 2047TIP3    H227557   4.517   6.274   3.760  0.2749  0.2863  0.0581
 2048TIP3   OH227558   0.545   4.845  16.834  0.2614 -0.4134 -0.1936
 2048TIP3    H127559   0.626   4.833  16.786  0.9204  0.4485  0.6622
 2048TIP3    H227560   0.504   4.921  16.793  1.0933  0.6684  0.9157
 2049TIP3   OH227561   1.550   4.714  17.106  0.0199 -0.3544 -0.0614
 2049TIP3    H127562   1.508   4.800  17.110  0.2096 -0.3032  1.1229
 2049TIP3    H227563   1.622   4.725  17.044  0.2165  0.4315  0.2938
 2050TIP3   OH227564   0.505   0.596  15.163 -0.1453  0.8245 -0.5283
 2050TIP3    H127565   0.490   0.576  15.255 -0.1699 -0.3227 -0.7695
 2050TIP3    H227566   0.601   0.596  15.154 -0.1465  0.7483 -0.5425
 2051TIP3   OH227567   1.271   6.500  11.622  0.2049 -0.0438 -0.4181
 2051TIP3    H127568   1.212   6.544  11.562 -0.1416 -0.6343 -0.5106
 2051TIP3    H227569   1.215   6.445  11.677  0.3968  1.3514  1.2015
 2052TIP3   OH227570   5.273   4.296   2.939 -0.0095  0.1126 -0.2293
 2052TIP3    H127571   5.257   4.202   2.950  0.5063  0.0866  0.3453
 2052TIP3    H227572   5.349   4.300   2.881 -0.5076  0.1962 -0.8917
 2053TIP3   OH227573   2.363   0.169   3.987  0.0197  0.2097 -0.2165
 2053TIP3    H127574   2.404   0.104   3.931  1.1852  0.8034 -0.0797
 2053TIP3    H227575   2.304   0.119   4.043  0.8431 -0.7223 -0.1623
 2054TIP3   OH227576   5.814   2.691  14.045  0.7473 -0.6571  0.1956
 2054TIP3    H127577   5.794   2.748  13.971 -1.9496 -0.9440  0.6355
 2054TIP3    H227578   5.849   2.750  14.112  2.0796 -0.2147 -0.8775
 2055TIP3   OH227579   5.270   2.803  15.399  0.1485 -0.0765 -0.6392
 2055TIP3    H127580   5.215   2.871  15.360 -0.1734  0.2469  0.3700
 2055TIP3    H227581   5.219   2.769  15.472  0.0018 -1.9351 -1.5871
 2056TIP3   OH227582   1.975   6.625   4.478  0.2535  0.0579  0.2932
 2056TIP3    H127583   1.941   6.560   4.416  1.0137  0.7949 -0.9165
 2056TIP3    H227584   1.924   6.611   4.558 -0.3952 -1.2410 -0.3388
 2057TIP3   OH227585   2.122   0.913   0.256 -0.2831  0.1784  0.1457
 2057TIP3    H127586   2.168   0.996   0.264 -0.4414  0.1672  1.4024
 2057TIP3    H227587   2.169   0.866   0.187  1.8458  0.0253  1.6433
 2058TIP3   OH227588   3.237   4.204   2.389  0.3145 -0.0330  0.6438
 2058TIP3    H127589   3.267   4.269   2.326  0.7095 -1.1294 -0.3322
 2058TIP3    H227590   3.225   4.124   2.337 -1.6551 -0.3511  1.5197
 2059TIP3   OH227591   0.350   0.633  13.384  0.6135 -0.0389  0.0962
 2059TIP3    H127592   0.419   0.697  13.368 -0.5244  1.8275  2.2913
 2059TIP3    H227593   0.396   0.554  13.413  1.8970  0.6888  0.0510
 2060TIP3   OH227594   2.130   6.725   1.432  0.1165  0.3024 -0.4100
 2060TIP3    H127595   2.145   6.633   1.409  1.1963  0.6752 -1.2334
 2060TIP3    H227596   2.058   6.752   1.375  0.5278  0.2851 -0.9287
 2061TIP3   OH227597   1.014   3.400  12.199  0.5649  0.3672  0.1389
 2061TIP3    H127598   1.010   3.360  12.112 -0.8813 -0.2346  0.4749
 2061TIP3    H227599   1.019   3.326  12.259  4.3398  0.8011  0.4778
 2062TIP3   OH227600   4.683   2.672   4.653  0.4320 -0.6785  0.1148
 2062TIP3    H127601   4.764   2.633   4.619  0.3033  0.0746 -1.0535
 2062TIP3    H227602   4.618   2.602   4.646  0.5387 -0.6988 -0.6743
 2063TIP3   OH227603   4.323   2.391  12.398  0.1020 -0.6777  0.0770
 2063TIP3    H127604   4.295   2.314  12.447  1.1032 -1.0758  0.0288
 2063TIP3    H227605   4.241   2.431  12.368 -0.3730 -2.4612 -1.0441
 2064TIP3   OH227606   2.507   0.637   2.906  0.1878 -0.3184  0.4456
 2064TIP3    H127607   2.545   0.622   2.819 -2.0044 -0.0728 -0.6000
 2064TIP3    H227608   2.575   0.684   2.954  2.5136 -2.9044 -0.1825
 2065TIP3   OH227609   0.775   4.393  11.048 -0.4344  0.0628 -0.6428
 2065TIP3    H127610   0.819   4.322  11.094  1.6007  1.5267 -0.2281
 2065TIP3    H227611   0.814   4.394  10.961 -1.4226 -0.1616 -1.0987
 2066TIP3   OH227612   1.621   3.698  15.020  0.3106  0.5974  0.1779
 2066TIP3    H127613   1.587   3.730  14.937 -1.0305 -1.2680 -0.0054
 2066TIP3    H227614   1.592   3.762  15.085 -1.6736  0.2069 -0.3003
 2067TIP3   OH227615   6.746   0.046  16.824 -0.0616 -0.5146 -0.6637
 2067TIP3    H127616   6.716  -0.025  16.768 -0.3462  0.3203 -1.5898
 2067TIP3    H227617   6.698   0.123  16.792 -0.0719  0.0042  0.5989
 2068TIP3   OH227618   2.664   1.191   4.134 -0.1080 -0.1142  0.0573
 2068TIP3    H127619   2.718   1.114   4.118 -0.2710 -0.1607 -0.2789
 2068TIP3    H227620   2.657   1.197   4.230 -0.3338 -0.6841  0.0752
 2069TIP3   OH227621   3.478   0.292  10.958  0.5756 -0.0216 -0.3236
 2069TIP3    H127622   3.497   0.350  11.031  0.6922  0.7388 -0.9499
 2069TIP3    H227623   3.465   0.206  10.998  0.9408  0.3272  0.5520
 2070TIP3   OH227624   0.374   5.198   1.850  0.0504 -0.2096  0.0427
 2070TIP3    H127625   0.349   5.272   1.796  1.1517  0.8743  0.9826
 2070TIP3    H227626   0.358   5.121   1.795 -1.0417  0.7151 -0.9559
 2071TIP3   OH227627   5.877   6.001  17.050 -0.5702  0.4974  0.8862
 2071TIP3    H127628   5.792   6.022  17.011 -0.7963  0.7045  1.4908
 2071TIP3    H227629   5.886   6.063  17.123 -0.1530  0.0998  1.1713
 2072TIP3   OH227630   4.758   4.970  13.718 -0.0059  0.2194 -0.3810
 2072TIP3    H127631   4.763   4.875  13.731  2.7961  0.4628  0.9313
 2072TIP3    H227632   4.733   4.981  13.627 -0.4101 -1.7830 -0.5397
 2073TIP3   OH227633   3.861   5.935  12.119 -0.0382 -0.0324  0.3354
 2073TIP3    H127634   3.937   5.957  12.173 -1.6024  0.4329  2.3945
 2073TIP3    H227635   3.850   5.840  12.130  0.9023 -0.2970 -0.8739
 2074TIP3   OH227636   2.427   3.345  13.958  0.3774  0.1658  0.0147
 2074TIP3    H127637   2.349   3.338  14.013 -0.6233 -1.6125 -1.5522
 2074TIP3    H227638   2.394   3.374  13.873  1.3837 -0.7650 -0.7105
 2075TIP3   OH227639   5.500   6.082  12.407 -0.2415  0.7154  0.1925
 2075TIP3    H127640   5.496   6.175  12.428 -1.4904  0.8025 -0.3851
 2075TIP3    H227641   5.408   6.054  12.405  0.0577 -0.2085 -1.0189
 2076TIP3   OH227642   4.062   1.830   0.861  0.0833 -0.1331 -0.8594
 2076TIP3    H127643   4.124   1.772   0.816  0.3029 -0.8563  0.3624
 2076TIP3    H227644   3.978   1.811   0.821  0.4350 -0.0482 -1.6593
 2077TIP3   OH227645   1.430   3.675  13.709 -0.1382  0.3288 -0.5428
 2077TIP3    H127646   1.507   3.730  13.727  0.3662  0.4142 -2.8160
 2077TIP3    H227647   1.433   3.608  13.777  0.4333  1.8724  0.9972
 2078TIP3   OH227648   4.106   0.835  13.653 -0.1873  0.4288  0.3068
 2078TIP3    H127649   4.084   0.911  13.707 -0.9757 -0.8834  1.8613
 2078TIP3    H227650   4.125   0.765  13.715 -2.6040 -1.5410 -1.0659
 2079TIP3   OH227651   3.404   2.440  11.489 -0.0055 -0.3124 -0.8426
 2079TIP3    H127652   3.480   2.471  11.539 -0.8479 -0.1306  0.3465
 2079TIP3    H227653   3.339   2.509  11.500 -0.3810 -0.4975 -1.8095
 2080TIP3   OH227654   0.588   5.077   5.343 -0.4204  0.2012 -0.4176
 2080TIP3    H127655   0.630   5.132   5.276  0.5230  0.5801  0.4660
 2080TIP3    H227656   0.520   5.029   5.296 -0.3657  1.1303 -1.4747
 2081TIP3   OH227657   0.255   4.801  12.160 -0.5130  0.2629 -0.3420
 2081TIP3    H127658   0.283   4.817  12.250 -0.4713  1.6811 -0.6018
 2081TIP3    H227659   0.307   4.861  12.107 -2.0175  0.9353 -1.0938
 2082TIP3   OH227660   5.022   1.555  12.860 -0.0532 -0.3944  0.7730
 2082TIP3    H127661   4.989   1.624  12.802 -0.0883 -0.1822  1.0437
 2082TIP3    H227662   5.045   1.601  12.941  2.2033 -0.3008  0.1137
 2083TIP3   OH227663   1.632   4.485   3.048 -0.6846 -0.1628  0.2355
 2083TIP3    H127664   1.573   4.551   3.011  0.0800 -0.2957 -1.2620
 2083TIP3    H227665   1.644   4.422   2.977  2.7077  0.7994 -0.1174
 2084TIP3   OH227666   3.624   4.053  15.821  0.2666  0.1824 -0.9608
 2084TIP3    H127667   3.702   4.028  15.772 -0.0217 -0.4249 -1.1230
 2084TIP3    H227668   3.651   4.129  15.873  1.3817 -0.9214  0.1124
 2085TIP3   OH227669   1.961   4.329   1.008  0.0792 -0.4498  0.6238
 2085TIP3    H127670   2.006   4.284   0.936  0.8317 -0.3591  1.0308
 2085TIP3    H227671   2.028   4.385   1.046 -1.2845  2.4288 -1.0223
 2086TIP3   OH227672   0.815   0.829   0.054 -0.1397  0.3925 -0.3909
 2086TIP3    H127673   0.826   0.880   0.134 -0.9270  2.0448 -1.3069
 2086TIP3    H227674   0.897   0.839   0.007  1.6577 -3.3911  1.7114
 2087TIP3   OH227675   0.810   1.512  10.516  0.0481  0.5907 -0.1791
 2087TIP3    H127676   0.877   1.496  10.450 -0.7138  1.6210 -1.2099
 2087TIP3    H227677   0.831   1.598  10.551 -0.0631  0.4193  0.3131
 2088TIP3   OH227678   0.584   2.507  12.946 -0.0015  0.2285 -0.1238
 2088TIP3    H127679   0.492   2.506  12.919  0.1196 -1.1896 -0.5074
 2088TIP3    H227680   0.584   2.555  13.029 -0.9342  1.1498 -0.6438
 2089TIP3   OH227681   6.510   4.982  11.179 -0.0582  0.3982  0.2184
 2089TIP3    H127682   6.592   4.945  11.213  0.2128  1.0076  0.2357
 2089TIP3    H227683   6.506   4.952  11.088  0.2230  0.4371  0.1935
 2090TIP3   OH227684   3.861   3.120   4.549  0.0288 -0.5209  0.3225
 2090TIP3    H127685   3.834   3.191   4.607 -0.6277 -0.3464 -0.1952
 2090TIP3    H227686   3.834   3.040   4.594  1.6448 -0.5019  1.3725
 2091TIP3   OH227687   2.886   2.896   4.442 -0.4928 -0.0327  0.3214
 2091TIP3    H127688   2.857   2.963   4.381 -0.4011  0.4690  0.8253
 2091TIP3    H227689   2.821   2.826   4.434 -1.1975  0.5858  0.6036
 2092TIP3   OH227690   0.351   3.911  17.002 -0.0910 -0.2533  0.3921
 2092TIP3    H127691   0.370   3.864  16.921  0.7010  0.1130  0.3612
 2092TIP3    H227692   0.286   3.977  16.976 -0.4965 -0.7043  0.2429
 2093TIP3   OH227693   6.055   5.878   1.483  0.2292  0.0373 -0.1247
 2093TIP3    H127694   6.036   5.790   1.452 -0.4496  0.0543  0.2269
 2093TIP3    H227695   6.023   5.879   1.574 -1.9412  1.3448 -0.8538
 2094TIP3   OH227696   4.891   1.655   1.570  0.2737 -0.4313 -0.7105
 2094TIP3    H127697   4.897   1.584   1.633  0.9744  0.1497 -0.1140
 2094TIP3    H227698   4.870   1.612   1.487 -2.4461 -1.0308  0.2519
 2095TIP3   OH227699   2.485   4.966  16.610  0.3388 -0.4644 -0.1743
 2095TIP3    H127700   2.468   4.886  16.561  0.5872 -0.6271  0.0031
 2095TIP3    H227701   2.538   4.938  16.684  0.4240 -0.1358 -0.1069
 2096TIP3   OH227702   6.149   1.766  13.437  0.0585  0.1060 -0.3323
 2096TIP3    H127703   6.184   1.806  13.357  1.7770  2.0285  1.3222
 2096TIP3    H227704   6.200   1.686  13.447 -1.1892 -0.9265 -1.9248
 2097TIP3   OH227705   3.193   3.320  12.825 -0.4103 -0.1223 -0.1120
 2097TIP3    H127706   3.225   3.235  12.856  1.8446  0.6885 -0.1107
 2097TIP3    H227707   3.184   3.372  12.905  2.8972  1.1433 -0.4999
 2098TIP3   OH227708   4.833   2.885   1.111  0.1849 -0.2258  0.2422
 2098TIP3    H127709   4.859   2.921   1.026 -0.7974  0.7741  0.3643
 2098TIP3    H227710   4.787   2.956   1.155  0.6942 -0.7349  1.6298
 2099TIP3   OH227711   6.660   2.231   4.358 -0.8641 -0.2475 -0.6362
 2099TIP3    H127712   6.642   2.141   4.330  1.1699 -0.8234 -0.1628
 2099TIP3    H227713   6.664   2.226   4.453  0.0565  0.1984 -0.6547
 2100TIP3   OH227714   5.554   5.295  12.641  0.3287 -0.6426  0.7227
 2100TIP3    H127715   5.526   5.368  12.585 -0.6105 -1.8146 -0.3755
 2100TIP3    H227716   5.644   5.277  12.613 -0.4906 -1.9369 -1.2567
 2101TIP3   OH227717   1.021   6.290   5.810 -0.1707  0.4990 -0.4035
 2101TIP3    H127718   0.954   6.357   5.825  0.6863  1.1226  0.6908
 2101TIP3    H227719   0.985   6.211   5.852 -0.5296  0.6454 -0.4279
 2102TIP3   OH227720   0.074   4.361  16.973  0.2566 -1.0561  0.4359
 2102TIP3    H127721   0.116   4.403  16.897 -1.3867  0.7258  0.4913
 2102TIP3    H227722   0.023   4.289  16.935 -0.4756 -0.2351 -0.1644
 2103TIP3   OH227723   4.646   5.985  10.865  0.1043  0.2435  0.9894
 2103TIP3    H127724   4.639   6.064  10.811  1.3272 -0.8840 -0.8690
 2103TIP3    H227725   4.556   5.961  10.885 -0.5127 -0.7474 -2.7183
 2104TIP3   OH227726   0.071   6.083   2.526 -0.2018 -0.2958 -0.0184
 2104TIP3    H127727   0.086   6.162   2.474 -0.5151 -0.8540 -0.9665
 2104TIP3    H227728  -0.010   6.046   2.491  0.9096 -2.0294 -0.8660
 2105TIP3   OH227729   5.080   3.007   3.420 -0.2128 -0.3531  0.1785
 2105TIP3    H127730   4.989   3.018   3.448 -0.6907 -1.9106 -0.6920
 2105TIP3    H227731   5.123   3.088   3.447 -2.5442  1.7395 -2.1547
 2106TIP3   OH227732   6.071   0.150  15.861  0.1342 -0.6455 -0.2560
 2106TIP3    H127733   6.105   0.089  15.926 -1.3188 -0.6012  0.5443
 2106TIP3    H227734   5.993   0.108  15.826  0.6353 -0.4633 -1.6544
 2107TIP3   OH227735   2.019   4.492   2.140 -0.3117  0.4819  0.2823
 2107TIP3    H127736   1.931   4.456   2.146 -0.2763  0.2258 -0.6011
 2107TIP3    H227737   2.039   4.523   2.229 -0.4181 -1.5063  1.0167
 2108TIP3   OH227738   4.410   4.297   3.306 -0.0655  0.1100  0.1990
 2108TIP3    H127739   4.411   4.276   3.399  0.9743  1.9930  0.6381
 2108TIP3    H227740   4.342   4.364   3.296  0.7170  0.8671 -0.1586
 2109TIP3   OH227741   2.429   1.815  14.588 -0.4766  0.6071 -0.0513
 2109TIP3    H127742   2.484   1.746  14.625  1.8507  2.1246 -0.5791
 2109TIP3    H227743   2.366   1.768  14.534 -0.0308 -1.2172  0.9490
 2110TIP3   OH227744   2.717   1.195   2.283  0.4502 -0.1233 -0.3026
 2110TIP3    H127745   2.715   1.155   2.370  0.1627 -0.2561 -0.3680
 2110TIP3    H227746   2.655   1.143   2.232 -0.1746  0.6078 -0.3001
 2111TIP3   OH227747   5.049   2.845   5.829 -0.0051 -0.3942  0.2103
 2111TIP3    H127748   5.095   2.761   5.837 -0.0076 -0.3698  0.4855
 2111TIP3    H227749   4.990   2.847   5.904 -1.5594 -1.1090 -0.9544
 2112TIP3   OH227750   3.870   3.814  15.781  0.6156 -0.3664  0.3664
 2112TIP3    H127751   3.910   3.887  15.828 -2.5179  2.0260 -0.5471
 2112TIP3    H227752   3.876   3.838  15.689  0.1840 -1.6109 -0.0046
 2113TIP3   OH227753   0.338   2.045  10.921 -0.0797 -0.4295 -0.2346
 2113TIP3    H127754   0.366   1.958  10.894 -0.1271 -0.0913 -1.3950
 2113TIP3    H227755   0.325   2.093  10.839  0.5981  0.8783  0.4027
 2114TIP3   OH227756   1.414   2.263   2.899  0.0907  0.6816 -0.5479
 2114TIP3    H127757   1.376   2.344   2.864  1.4887  0.7734 -1.9202
 2114TIP3    H227758   1.451   2.220   2.822 -1.7642 -1.8915 -0.0347
 2115TIP3   OH227759   4.775   4.419  12.666 -0.1716  0.1006 -0.5823
 2115TIP3    H127760   4.763   4.513  12.676 -0.5663 -0.1005  0.9666
 2115TIP3    H227761   4.785   4.386  12.756  2.3688 -1.0276 -1.2112
 2116TIP3   OH227762   2.423   4.665  16.644  0.6945  0.0466  0.1732
 2116TIP3    H127763   2.518   4.655  16.643  0.4706 -2.5974  0.5422
 2116TIP3    H227764   2.403   4.690  16.735  0.9389 -0.8544  0.4852
 2117TIP3   OH227765   1.351   6.342   2.186 -0.2642  0.0237 -0.1232
 2117TIP3    H127766   1.326   6.255   2.217  2.5743 -0.6588  0.4091
 2117TIP3    H227767   1.394   6.326   2.102 -0.7058  1.0298 -0.5513
 2118TIP3   OH227768   4.858   3.823   4.689 -0.0870 -0.1486  0.0551
 2118TIP3    H127769   4.792   3.769   4.644  1.0810 -1.8444  0.3287
 2118TIP3    H227770   4.932   3.764   4.702  1.6916  1.8648 -0.6697
 2119TIP3   OH227771   2.398   0.670  13.362 -0.3291 -0.0848 -0.5925
 2119TIP3    H127772   2.399   0.577  13.384 -0.8299 -0.0415 -0.3917
 2119TIP3    H227773   2.327   0.707  13.414 -1.5183  0.0281 -2.2219
 2120TIP3   OH227774   0.365   1.414  16.852 -0.7083 -0.2611 -0.2370
 2120TIP3    H127775   0.344   1.507  16.865  0.1426  0.0530 -1.0719
 2120TIP3    H227776   0.445   1.414  16.799  0.4597 -1.4551  1.4644
 2121TIP3   OH227777   5.866   3.641  16.268 -0.0039  0.4327  0.6661
 2121TIP3    H127778   5.893   3.712  16.210 -1.1097  1.4270  1.3434
 2121TIP3    H227779   5.879   3.561  16.217  1.4687  1.1096 -0.0193
 2122TIP3   OH227780   5.681   6.674  13.882 -0.5551  0.6315  0.2028
 2122TIP3    H127781   5.606   6.729  13.859 -0.7478  0.0707 -0.5510
 2122TIP3    H227782   5.655   6.585  13.855 -0.4145  0.1041  1.7775
 2123TIP3   OH227783   3.134   1.223   1.076 -1.0087 -0.2262 -0.1604
 2123TIP3    H127784   3.179   1.308   1.082 -1.9384  0.2778 -0.1583
 2123TIP3    H227785   3.199   1.164   1.037  0.3039 -0.0051  1.5973
 2124TIP3   OH227786   3.399   0.403   0.030 -0.2286  0.1874  0.0080
 2124TIP3    H127787   3.385   0.333   0.094  0.5937 -0.3747 -0.4222
 2124TIP3    H227788   3.355   0.372  -0.049 -0.5351  0.5118  0.0489
 2125TIP3   OH227789   0.061   5.924  14.964  0.1285 -0.1440 -0.4788
 2125TIP3    H127790   0.036   5.928  15.057  0.4028  0.6864 -0.4341
 2125TIP3    H227791   0.082   5.832  14.948  1.8060  0.0037  0.7321
 2126TIP3   OH227792   0.546   4.003  11.651 -0.4071 -0.5024  0.1226
 2126TIP3    H127793   0.543   3.908  11.640  0.9025 -0.5130 -0.3168
 2126TIP3    H227794   0.633   4.027  11.619  0.1542  0.5678  2.3931
 2127TIP3   OH227795   2.906   5.115  14.062 -0.3621  0.6968 -0.3346
 2127TIP3    H127796   2.834   5.162  14.021  0.9086  2.3184 -0.7464
 2127TIP3    H227797   2.945   5.178  14.122 -0.3941 -0.7400  1.2293
 2128TIP3   OH227798   0.887   1.147  11.031 -0.1770  0.2308  1.0747
 2128TIP3    H127799   0.827   1.108  10.968  1.6379  0.3881 -0.8045
 2128TIP3    H227800   0.974   1.127  10.997  0.8353  3.8499  1.2864
 2129TIP3   OH227801   5.748   0.114  15.192 -0.6876  0.8308 -0.0018
 2129TIP3    H127802   5.830   0.112  15.143 -0.8154 -0.9101 -0.1914
 2129TIP3    H227803   5.688   0.163  15.135 -0.0376  1.3464 -0.2595
 2130TIP3   OH227804   5.824   5.309  17.196 -0.0947  0.3210  0.5989
 2130TIP3    H127805   5.819   5.389  17.249 -0.8711  0.7537 -0.1099
 2130TIP3    H227806   5.907   5.315  17.149  0.0667  0.4834  0.9066
 2131TIP3   OH227807   1.029   2.552   0.594 -0.2188  0.0953  0.3979
 2131TIP3    H127808   0.992   2.533   0.680 -1.0220  0.0335  0.0508
 2131TIP3    H227809   1.098   2.616   0.610 -0.0032 -0.3308  1.1485
 2132TIP3   OH227810   4.088   4.803  13.883  0.1480 -0.2165 -0.2437
 2132TIP3    H127811   4.124   4.772  13.800  2.3812  0.5044  0.4338
 2132TIP3    H227812   4.164   4.835  13.932 -1.5314  2.2679  0.8307
 2133TIP3   OH227813   0.296   1.049   5.133  0.0161 -0.2182 -0.1627
 2133TIP3    H127814   0.249   1.121   5.090 -0.4922  0.4869  1.5456
 2133TIP3    H227815   0.384   1.084   5.147  0.2081 -0.4807 -0.7052
 2134TIP3   OH227816   1.593   3.192  14.595  0.2336  0.0417  0.2164
 2134TIP3    H127817   1.562   3.168  14.682 -0.3953  0.9654  0.2562
 2134TIP3    H227818   1.688   3.199  14.603  0.4281 -2.2251  0.2472
 2135TIP3   OH227819   0.669   0.715  14.634  0.7064  0.3456 -0.6047
 2135TIP3    H127820   0.617   0.793  14.656  0.9811  0.9619 -2.0236
 2135TIP3    H227821   0.747   0.723  14.688 -1.0868 -1.1220  2.2993
 2136TIP3   OH227822   4.190   6.600   5.046 -0.1469 -0.0734 -0.5185
 2136TIP3    H127823   4.233   6.565   5.124 -0.1607 -1.1832 -0.9962
 2136TIP3    H227824   4.158   6.522   5.000  0.9493  0.4865 -2.2760
 2137TIP3   OH227825   3.310   5.716   3.692 -0.1282 -0.4133  0.1871
 2137TIP3    H127826   3.337   5.744   3.780 -2.3397  2.6977 -0.0708
 2137TIP3    H227827   3.348   5.781   3.633  0.7591 -2.1003 -1.1374
 2138TIP3   OH227828   3.918   1.166   5.982 -0.6109  0.3739  1.0005
 2138TIP3    H127829   3.962   1.082   5.969 -0.0488  0.4993  2.0387
 2138TIP3    H227830   3.826   1.143   5.994 -0.8234  0.0960 -0.9837
 2139TIP3   OH227831   1.439   6.188   1.483  0.1149  0.4362  0.0024
 2139TIP3    H127832   1.403   6.107   1.447  1.7100  0.1826 -1.0718
 2139TIP3    H227833   1.374   6.255   1.461 -1.8099 -0.7286  1.9828
 2140TIP3   OH227834   5.268   3.513  11.980  0.0761 -0.1130 -0.0675
 2140TIP3    H127835   5.349   3.538  11.938  0.2226  0.7045  0.6771
 2140TIP3    H227836   5.200   3.531  11.915  0.0426  3.4543  0.8557
 2141TIP3   OH227837   3.518   2.608   0.617 -0.1048  0.4614 -0.9173
 2141TIP3    H127838   3.425   2.610   0.594  0.1474 -1.4852 -2.2361
 2141TIP3    H227839   3.520   2.617   0.712 -1.6448  0.2563 -0.8570
 2142TIP3   OH227840   4.131   4.377   1.045  0.4160 -0.3745  0.2501
 2142TIP3    H127841   4.133   4.290   1.004 -0.5486 -1.0152  1.4860
 2142TIP3    H227842   4.049   4.416   1.015  1.1612  0.3780 -0.8166
 2143TIP3   OH227843   0.269   3.842  14.560 -0.0255 -0.1250  0.6277
 2143TIP3    H127844   0.183   3.883  14.563 -0.0152 -0.0900  0.4550
 2143TIP3    H227845   0.253   3.751  14.586 -0.1393 -0.1567  0.4489
 2144TIP3   OH227846   2.258   1.064   5.257  0.5025  0.4478  0.7410
 2144TIP3    H127847   2.167   1.036   5.269 -0.0084  2.0171  0.6417
 2144TIP3    H227848   2.276   1.046   5.165  0.2442  0.2619  0.7227
 2145TIP3   OH227849   4.027   3.060  11.320  0.2600  0.2370  0.0510
 2145TIP3    H127850   3.976   3.115  11.261  1.1724  0.7054 -0.3172
 2145TIP3    H227851   4.034   3.112  11.401 -2.0671 -0.9343  1.0572
 2146TIP3   OH227852   1.720   4.419   6.278  0.0947 -0.1850  0.0800
 2146TIP3    H127853   1.746   4.355   6.212 -0.5849 -0.3542 -0.0258
 2146TIP3    H227854   1.642   4.381   6.320  1.1469 -0.5895  1.7289
 2147TIP3   OH227855   3.177   5.076  15.695  0.3243  0.0868 -0.3043
 2147TIP3    H127856   3.244   5.100  15.760  1.8319 -2.1166 -0.9913
 2147TIP3    H227857   3.143   4.993  15.727 -0.1544 -0.1448 -1.4363
 2148TIP3   OH227858   3.832   1.067   5.105 -0.0686 -0.7220 -0.4261
 2148TIP3    H127859   3.830   1.103   5.016 -1.4122  0.9508  0.2650
 2148TIP3    H227860   3.909   1.108   5.145  0.9094 -1.9651 -0.9989
 2149TIP3   OH227861   3.214   4.682  12.187 -1.0343  0.4261 -0.1308
 2149TIP3    H127862   3.252   4.594  12.193  0.9510  1.3101  0.3944
 2149TIP3    H227863   3.269   4.736  12.244 -1.1530  2.4091 -1.8578
 2150TIP3   OH227864   5.358   5.659   2.230 -0.4743  0.2019 -0.7856
 2150TIP3    H127865   5.345   5.751   2.208  0.2942  0.2381 -1.1095
 2150TIP3    H227866   5.396   5.620   2.151  2.1291  0.2931  0.3441
 2151TIP3   OH227867   0.209   2.748  15.468 -0.2816 -0.0460  0.4121
 2151TIP3    H127868   0.123   2.717  15.442  0.3641 -1.0252 -0.5999
 2151TIP3    H227869   0.192   2.815  15.534 -1.7767 -0.8382  0.8318
 2152TIP3   OH227870   4.605   3.874   2.084  0.3422 -0.3176  0.0407
 2152TIP3    H127871   4.628   3.966   2.076 -2.0363  0.0976 -3.0616
 2152TIP3    H227872   4.688   3.829   2.101  2.2372  1.9039 -2.9952
 2153TIP3   OH227873   3.581   3.372   1.295 -0.3949 -0.5816 -0.0393
 2153TIP3    H127874   3.651   3.332   1.345 -1.4510 -1.1932  0.9660
 2153TIP3    H227875   3.565   3.456   1.338 -0.8189 -0.7970  0.2316
 2154TIP3   OH227876   3.887   3.403  13.785  0.0980  0.0995 -0.4163
 2154TIP3    H127877   3.938   3.472  13.828 -1.4729  0.7617  0.4174
 2154TIP3    H227878   3.797   3.418  13.815 -0.8494 -0.0972 -3.0917
 2155TIP3   OH227879   1.867   1.013   4.740  0.0284 -0.4404  0.7510
 2155TIP3    H127880   1.795   0.958   4.711  0.1324 -0.9082  1.3820
 2155TIP3    H227881   1.939   0.994   4.679 -1.1852  1.9962 -1.5704
 2156TIP3   OH227882   2.742   0.086  12.561 -0.1323  0.2260  0.2749
 2156TIP3    H127883   2.819   0.036  12.588  0.6173  2.0748  1.6041
 2156TIP3    H227884   2.771   0.177  12.559 -2.3879  1.0089  1.2362
 2157TIP3   OH227885   4.087   0.724   0.592  0.4480  0.2156 -0.2405
 2157TIP3    H127886   4.163   0.669   0.611  1.0655  0.3785 -2.1118
 2157TIP3    H227887   4.124   0.807   0.562 -0.4695  0.5727 -0.3870
 2158TIP3   OH227888   6.142   0.861   5.939 -0.1647 -0.0752 -0.1805
 2158TIP3    H127889   6.163   0.950   5.966 -0.6525 -0.3892  1.2760
 2158TIP3    H227890   6.058   0.843   5.981 -1.1089 -0.4770 -2.1674
 2159TIP3   OH227891   2.987   2.512  15.323 -0.3026 -0.5927  0.7752
 2159TIP3    H127892   2.930   2.507  15.401 -0.5981  0.6188  0.6410
 2159TIP3    H227893   3.076   2.504  15.358 -0.2996  2.0474  1.5025
 2160TIP3   OH227894   2.403   3.399  13.339 -0.0520  0.4848 -0.3054
 2160TIP3    H127895   2.353   3.413  13.419 -1.7068 -1.8848 -0.9103
 2160TIP3    H227896   2.358   3.452  13.273 -1.1709 -0.8140 -0.6045
 2161TIP3   OH227897   0.051   0.539   1.442 -0.5979 -0.3375  0.0446
 2161TIP3    H127898   0.062   0.596   1.366 -1.5606  0.1439  0.2460
 2161TIP3    H227899   0.139   0.525   1.475 -0.3205  0.8419 -0.1608
 2162TIP3   OH227900   4.114   0.775   3.189  0.1893 -0.0109 -0.0832
 2162TIP3    H127901   4.028   0.742   3.214 -0.3660  1.4493 -0.0263
 2162TIP3    H227902   4.110   0.784   3.093  0.0196  0.7593 -0.0064
 2163TIP3   OH227903   3.194   6.684  14.782  0.1718  0.2707  0.5992
 2163TIP3    H127904   3.139   6.611  14.754  0.4926  1.1850 -2.5564
 2163TIP3    H227905   3.149   6.762  14.750  2.0354  1.1830  0.1616
 2164TIP3   OH227906   3.015   1.384  10.930 -0.0735 -0.2311 -0.0988
 2164TIP3    H127907   2.946   1.451  10.934  0.3589  0.1450  1.4267
 2164TIP3    H227908   3.090   1.429  10.893 -0.1017 -0.1425 -0.0487
 2165TIP3   OH227909   1.812   2.095  15.659  0.0642  0.0726 -0.2241
 2165TIP3    H127910   1.841   2.026  15.599  0.5831  1.9459 -2.2044
 2165TIP3    H227911   1.738   2.056  15.706  0.5246 -1.9284 -1.0840
 2166TIP3   OH227912   5.972   5.106  11.574  0.0890  0.5125  0.4605
 2166TIP3    H127913   6.043   5.054  11.538 -0.0851  0.4618  0.1893
 2166TIP3    H227914   5.904   5.104  11.507  0.4982  1.9854 -0.0037
 2167TIP3   OH227915   6.337   3.658   0.319  0.3889 -0.5404 -0.5972
 2167TIP3    H127916   6.427   3.669   0.351 -0.0536 -0.1969  0.5496
 2167TIP3    H227917   6.343   3.674   0.225  1.0833  2.0258 -0.1557
 2168TIP3   OH227918   0.561   0.379   5.434  0.1139 -0.1381  1.0773
 2168TIP3    H127919   0.643   0.345   5.397 -0.0663  1.6526 -1.0749
 2168TIP3    H227920   0.580   0.471   5.452 -1.1815  0.0727  1.3929
 2169TIP3   OH227921   5.432   5.777   0.150  0.2951  0.3640 -0.4679
 2169TIP3    H127922   5.367   5.768   0.220 -0.1536 -1.5447 -1.1079
 2169TIP3    H227923   5.498   5.835   0.187 -1.4506  1.8524  0.4180
 2170TIP3   OH227924   1.675   1.987   3.678 -0.4563  0.1490  0.7669
 2170TIP3    H127925   1.676   1.961   3.586 -0.8180 -0.6159  0.9789
 2170TIP3    H227926   1.599   2.045   3.685 -0.4626  0.1635  0.5970
 2171TIP3   OH227927   4.551   1.716   1.137  0.3047  0.0796 -0.2532
 2171TIP3    H127928   4.588   1.628   1.134 -1.6654 -0.8083  0.5584
 2171TIP3    H227929   4.597   1.759   1.209  0.6839 -0.5599 -0.1077
 2172TIP3   OH227930   4.833   3.790   5.307  0.2617  0.0403  0.3083
 2172TIP3    H127931   4.878   3.773   5.225 -2.3882 -3.3044 -0.5868
 2172TIP3    H227932   4.816   3.884   5.306  0.7670  0.1593 -2.7468
 2173TIP3   OH227933   2.983   3.899  15.891 -0.8035 -0.3379 -0.6523
 2173TIP3    H127934   3.008   3.977  15.842 -1.5155 -0.7726 -1.7208
 2173TIP3    H227935   2.935   3.845  15.828 -0.4931 -1.5453  0.1361
 2174TIP3   OH227936   0.260   0.709  16.210 -0.1488  0.5112 -0.0955
 2174TIP3    H127937   0.233   0.741  16.297 -0.5427  1.2556 -0.4876
 2174TIP3    H227938   0.180   0.673  16.172  0.2517 -0.7797  0.2629
 2175TIP3   OH227939   6.039   3.343  13.871 -0.0772 -0.2765  0.4910
 2175TIP3    H127940   6.070   3.390  13.948 -0.4019  1.2096 -0.2771
 2175TIP3    H227941   6.117   3.330  13.818 -0.3214  1.1692 -0.2295
 2176TIP3   OH227942   1.949   2.337   3.001 -0.0552 -0.1378  0.6011
 2176TIP3    H127943   1.897   2.262   2.972 -0.5667  0.4133  0.0825
 2176TIP3    H227944   2.037   2.301   3.015  0.0475 -0.5513 -0.9843
 2177TIP3   OH227945   3.361   5.035   3.579  0.7245 -0.2823  0.5072
 2177TIP3    H127946   3.421   4.976   3.625  0.7503 -0.0650  0.7513
 2177TIP3    H227947   3.359   5.002   3.489  0.8901 -0.5382  0.5984
 2178TIP3   OH227948   1.999   3.004  11.109 -0.2325  0.1810 -0.4307
 2178TIP3    H127949   2.088   2.979  11.086 -0.2034  1.4720 -1.7925
 2178TIP3    H227950   1.971   2.939  11.174  1.5659 -0.4184 -0.2545
 2179TIP3   OH227951   0.946   2.402  11.116  0.1352  0.3530  0.6803
 2179TIP3    H127952   1.019   2.392  11.054 -0.4768 -0.0687  0.0158
 2179TIP3    H227953   0.870   2.370  11.068 -0.2647 -0.4992  1.8564
 2180TIP3   OH227954   1.051   2.592  13.488 -0.5599 -0.0724 -0.2429
 2180TIP3    H127955   0.967   2.595  13.534  0.0226 -0.9793  0.9141
 2180TIP3    H227956   1.089   2.508  13.515  1.4402  1.0652  0.5482
 2181TIP3   OH227957   6.783   1.351  14.227 -0.2222  0.1011 -0.3555
 2181TIP3    H127958   6.853   1.287  14.221 -0.3947 -0.0386 -0.9697
 2181TIP3    H227959   6.722   1.326  14.157 -1.2661 -0.2423  0.6671
 2182TIP3   OH227960   0.365   1.322  15.196  0.0668 -0.0021  0.7767
 2182TIP3    H127961   0.350   1.322  15.101  0.3509  0.0487  0.7339
 2182TIP3    H227962   0.384   1.413  15.218  2.1205 -0.3606  0.5564
 2183TIP3   OH227963   6.732   1.829  15.814 -0.2270  0.2126  0.0874
 2183TIP3    H127964   6.656   1.845  15.869 -0.2278  1.9628 -0.3898
 2183TIP3    H227965   6.705   1.758  15.756 -1.0036 -0.1262  0.8535
 2184TIP3   OH227966   2.746   0.493   5.056  0.6971  0.2790  0.1863
 2184TIP3    H127967   2.728   0.468   5.147  2.3291 -0.9452  0.1777
 2184TIP3    H227968   2.749   0.411   5.008  1.9900  0.7617 -0.5841
 2185TIP3   OH227969   0.488   3.651  15.073  0.5952 -0.7086 -0.0070
 2185TIP3    H127970   0.431   3.628  15.001 -0.9296 -0.0298  0.9550
 2185TIP3    H227971   0.574   3.663  15.033  0.1187 -1.9620 -1.4279
 2186TIP3   OH227972   6.530   4.038  16.894 -0.0678  0.3229  0.4773
 2186TIP3    H127973   6.558   4.044  16.985  1.0529  2.3368  0.0398
 2186TIP3    H227974   6.508   4.128  16.870 -0.0015 -0.1355 -1.3588
 2187TIP3   OH227975   0.765   6.562  11.545 -0.1013 -0.3234 -0.1344
 2187TIP3    H127976   0.746   6.548  11.638  1.8476  2.5311  0.7720
 2187TIP3    H227977   0.704   6.505  11.499 -1.7816 -1.0632  2.8690
 2188TIP3   OH227978   5.433   4.160  13.497 -0.3484 -0.0906 -0.6520
 2188TIP3    H127979   5.461   4.244  13.532  1.1962 -1.1817  0.8321
 2188TIP3    H227980   5.454   4.165  13.403  0.2887  0.9639 -0.4586
 2189TIP3   OH227981   2.034   6.031  15.986  0.7376 -0.2370 -0.2197
 2189TIP3    H127982   2.008   6.123  15.980  0.8733 -0.3473 -3.2683
 2189TIP3    H227983   2.129   6.034  16.001  1.0245  0.1514 -1.9932
 2190TIP3   OH227984   3.751   1.790  11.580 -0.2942 -0.2683 -0.4029
 2190TIP3    H127985   3.826   1.769  11.636  0.2889 -2.0018 -1.7629
 2190TIP3    H227986   3.680   1.735  11.614 -1.3154  2.2286  1.6170
 2191TIP3   OH227987   5.716   2.313  15.652 -0.5997  0.2540 -0.2669
 2191TIP3    H127988   5.672   2.355  15.726 -1.4681  1.4484 -1.4342
 2191TIP3    H227989   5.652   2.317  15.581 -0.5685 -2.7240 -0.5337
 2192TIP3   OH227990   6.314   1.519   0.472 -0.2946  0.3791  0.4322
 2192TIP3    H127991   6.378   1.536   0.403  0.9841 -1.8143  1.0135
 2192TIP3    H227992   6.248   1.587   0.461  0.8430  1.1829 -1.7759
 2193TIP3   OH227993   2.611   5.396   2.093  0.2824 -0.4295 -0.1473
 2193TIP3    H127994   2.603   5.466   2.158 -1.6147 -1.9179  1.2791
 2193TIP3    H227995   2.549   5.420   2.024  0.0571 -0.4086  0.0631
 2194TIP3   OH227996   6.461   4.620   0.248 -0.1218  0.3594 -0.1637
 2194TIP3    H127997   6.403   4.696   0.248 -1.0937 -0.3767 -1.2760
 2194TIP3    H227998   6.403   4.545   0.256  0.5199 -0.4770 -2.8722
 2195TIP3   OH227999   6.063   4.368  13.095 -0.5703  0.2240 -0.4983
 2195TIP3    H128000   6.041   4.340  13.007  1.5159  1.1187 -1.3199
 2195TIP3    H228001   6.050   4.290  13.149  0.7158 -1.0531 -2.0136
 2196TIP3   OH228002   4.386   2.708  15.397  0.3702  0.0682  0.2295
 2196TIP3    H128003   4.362   2.731  15.307  0.2969  0.7142  0.4109
 2196TIP3    H228004   4.303   2.687  15.440  0.5467 -1.5718 -0.2224
 2197TIP3   OH228005   2.281   4.528  14.284 -0.0474  0.9177 -0.0726
 2197TIP3    H128006   2.288   4.621  14.261  0.7017  0.7381 -0.5935
 2197TIP3    H228007   2.267   4.484  14.200  1.2096  0.4075 -0.0263
 2198TIP3   OH228008   6.045   4.793   3.885  0.0562  0.3830 -0.2545
 2198TIP3    H128009   6.103   4.729   3.927 -1.8981 -1.0911  0.3295
 2198TIP3    H228010   6.103   4.858   3.846  2.0652 -0.9732  0.4228
 2199TIP3   OH228011   6.356   1.758   1.150  0.4922 -0.8202  0.1808
 2199TIP3    H128012   6.306   1.822   1.100  1.8708 -0.0574 -0.2619
 2199TIP3    H228013   6.306   1.677   1.141 -0.3662 -0.2102 -0.7119
 2200TIP3   OH228014   0.541   3.864   5.481  0.0793  0.1633  0.5015
 2200TIP3    H128015   0.524   3.774   5.451 -1.2533 -0.0429  1.8372
 2200TIP3    H228016   0.618   3.856   5.536  0.3622 -0.0466  0.0836
 2201TIP3   OH228017   2.509   5.776   6.173 -0.4205 -0.0163 -0.3040
 2201TIP3    H128018   2.514   5.700   6.230  2.3151 -0.0923 -0.5847
 2201TIP3    H228019   2.424   5.815   6.192  0.5621  0.2584  4.2340
 2202TIP3   OH228020   0.694   2.004   3.718  0.8095  0.1662 -0.4169
 2202TIP3    H128021   0.706   2.034   3.808 -0.2750 -0.9094  0.0896
 2202TIP3    H228022   0.625   2.061   3.683  0.6262  0.0169 -0.2979
 2203TIP3   OH228023   6.136   1.235   3.567  0.5864  0.2871 -0.3349
 2203TIP3    H128024   6.229   1.228   3.543  0.1522  0.8808 -2.3184
 2203TIP3    H228025   6.110   1.323   3.536 -0.4291  0.4445  0.9408
 2204TIP3   OH228026   3.192   5.694  17.015  0.2547 -0.7363  0.7651
 2204TIP3    H128027   3.203   5.697  17.110 -0.5920 -1.4192  0.8948
 2204TIP3    H228028   3.198   5.785  16.986 -0.1824 -0.4552  1.5588
 2205TIP3   OH228029   0.965   5.942  12.573  0.0120  0.2591 -0.0428
 2205TIP3    H128030   1.058   5.951  12.555  0.2306  0.6169  1.1890
 2205TIP3    H228031   0.929   6.030  12.558 -0.0107  0.2785  0.1251
 2206TIP3   OH228032   2.565   0.700  11.592  0.7969 -0.6154 -0.3483
 2206TIP3    H128033   2.514   0.762  11.540 -0.7236  0.0514  1.8584
 2206TIP3    H228034   2.517   0.617  11.586  0.1097 -0.3098  0.6764
 2207TIP3   OH228035   0.839   4.330  11.920  0.5509 -0.2905  1.0415
 2207TIP3    H128036   0.903   4.374  11.866 -0.4933  0.5284  0.4596
 2207TIP3    H228037   0.890   4.291  11.992  1.6928  0.2334  0.5136
 2208TIP3   OH228038   4.937   1.820   5.158 -0.2470  0.3103  0.0368
 2208TIP3    H128039   4.960   1.766   5.234 -0.5917  0.8058  0.5001
 2208TIP3    H228040   4.923   1.758   5.087 -1.9733 -0.3102  0.9047
 2209TIP3   OH228041   1.416   2.330  16.487  0.2254 -0.4060  0.1444
 2209TIP3    H128042   1.469   2.352  16.410  0.4586  0.0493  0.4295
 2209TIP3    H228043   1.442   2.241  16.509  0.8100 -0.2203  0.2216
 2210TIP3   OH228044   5.800   1.395   2.735 -0.2534 -0.5000 -0.1261
 2210TIP3    H128045   5.787   1.489   2.741 -2.0209 -0.6543 -1.2758
 2210TIP3    H228046   5.800   1.377   2.641  2.1844 -1.3853 -0.0071
 2211TIP3   OH228047   5.835   6.333   5.197  0.6004  0.4083  0.5793
 2211TIP3    H128048   5.800   6.318   5.110  0.9213 -0.6204  0.6151
 2211TIP3    H228049   5.822   6.427   5.213 -2.9324 -0.1143  0.9767
 2212TIP3   OH228050   5.471   5.496   1.516  0.0408  0.0982  0.1482
 2212TIP3    H128051   5.408   5.561   1.546  0.1456 -0.7074  2.2004
 2212TIP3    H228052   5.418   5.418   1.498  0.2685 -0.1377  0.4949
 2213TIP3   OH228053   0.163   3.393   0.080  0.1524 -0.2876 -0.4707
 2213TIP3    H128054   0.106   3.413   0.006 -0.2471 -0.7450 -0.2921
 2213TIP3    H228055   0.250   3.421   0.052 -0.4902  2.2738  0.0274
 2214TIP3   OH228056   3.542   5.043  14.922 -0.3131 -0.1739  0.0710
 2214TIP3    H128057   3.588   5.003  14.995  1.2647  0.5966 -0.4914
 2214TIP3    H228058   3.552   4.981  14.850  0.9065  0.5403 -0.3921
 2215TIP3   OH228059   5.343   4.980   3.904  0.3918  0.1638  0.2578
 2215TIP3    H128060   5.432   5.001   3.873 -0.0644  0.6844 -0.7149
 2215TIP3    H228061   5.346   4.887   3.925  1.8370  0.6738  2.5020
 2216TIP3   OH228062   3.120   5.861   3.084 -0.1540 -0.1928  0.4097
 2216TIP3    H128063   3.177   5.906   3.146  0.8890  1.1006 -1.4439
 2216TIP3    H228064   3.157   5.882   2.998 -2.1255 -1.1733 -0.7094
 2217TIP3   OH228065   0.501   4.256  11.074  0.9441  0.1741  0.0475
 2217TIP3    H128066   0.512   4.179  11.131  2.1363  0.4138  0.1632
 2217TIP3    H228067   0.423   4.300  11.108  1.8724  0.5473  1.8042
 2218TIP3   OH228068   4.091   3.042  13.845  0.3979 -0.2002  0.5163
 2218TIP3    H128069   4.078   3.026  13.751 -0.5135 -0.3925  0.6713
 2218TIP3    H228070   4.005   3.026  13.884  0.3651  1.5286  1.1668
 2219TIP3   OH228071   3.297   5.013   3.291 -0.0529  0.1428 -0.4716
 2219TIP3    H128072   3.252   4.935   3.260 -0.8026  1.2989 -2.3486
 2219TIP3    H228073   3.390   4.994   3.277 -0.2261 -0.4649 -0.7978
 2220TIP3   OH228074   4.119   0.353   5.417 -0.2932 -0.4026  0.7798
 2220TIP3    H128075   4.118   0.388   5.506 -0.5580  0.7999  0.3147
 2220TIP3    H228076   4.171   0.273   5.423  0.7849  0.3635  1.7537
 2221TIP3   OH228077   4.626   1.887   5.942  0.7695 -0.2079  0.0653
 2221TIP3    H128078   4.587   1.971   5.967 -0.3698 -0.6634 -0.1669
 2221TIP3    H228079   4.637   1.893   5.847 -1.1738 -1.0752 -0.2405
 2222TIP3   OH228080   0.651   0.047   4.105 -0.1572 -0.0688  0.5153
 2222TIP3    H128081   0.563   0.065   4.070  0.1091 -1.2184 -0.8035
 2222TIP3    H228082   0.710   0.073   4.034  0.5152 -0.2290  1.0196
 2223TIP3   OH228083   2.938   2.388  13.734  0.4293  0.2915  0.3908
 2223TIP3    H128084   2.970   2.333  13.663  1.9455  1.3541  0.2315
 2223TIP3    H228085   2.863   2.434  13.697  0.1367 -0.4629  0.0311
 2224TIP3   OH228086   2.018   1.312  12.561  0.2327 -0.0492 -0.3364
 2224TIP3    H128087   2.000   1.390  12.508  2.2544  1.4815  1.1665
 2224TIP3    H228088   2.092   1.337  12.616  1.4626 -3.3018 -0.3922
 2225TIP3   OH228089   4.981   4.462  15.229  0.5200  0.3261  0.5242
 2225TIP3    H128090   5.013   4.496  15.145 -1.7874 -0.3415 -0.6641
 2225TIP3    H228091   4.955   4.540  15.278  1.6201  0.6989  0.5451
 2226TIP3   OH228092   1.363   4.598  12.828  0.3660 -0.1637 -0.1818
 2226TIP3    H128093   1.309   4.539  12.776 -0.2339  0.2826 -0.0648
 2226TIP3    H228094   1.331   4.587  12.918  1.1568 -0.6669  0.0383
 2227TIP3   OH228095   0.334   2.725   3.247  0.1171  0.2346 -0.5089
 2227TIP3    H128096   0.362   2.642   3.286  0.2041 -0.2267 -1.5475
 2227TIP3    H228097   0.415   2.774   3.234 -0.0686  1.1369  1.5542
 2228TIP3   OH228098   5.708   5.570  12.390  0.1423  0.3743 -0.1609
 2228TIP3    H128099   5.724   5.597  12.481 -0.8649  1.0325 -0.1676
 2228TIP3    H228100   5.628   5.519  12.394 -0.0827  0.6763 -0.7193
 2229TIP3   OH228101   6.745   2.320  16.217 -0.1498  0.3350  0.2573
 2229TIP3    H128102   6.665   2.372  16.208 -2.3446 -3.2155 -1.7152
 2229TIP3    H228103   6.778   2.312  16.128 -0.5766 -2.6585  0.3316
 2230TIP3   OH228104   5.572   4.047   4.978 -0.3768 -0.6658  0.3946
 2230TIP3    H128105   5.601   3.957   4.961 -0.6179 -0.4753 -1.0237
 2230TIP3    H228106   5.584   4.057   5.073  0.0112 -2.0635  0.5176
 2231TIP3   OH228107   6.364   0.870   1.195 -0.0607 -0.2746 -0.1629
 2231TIP3    H128108   6.327   0.850   1.281 -1.1709  0.9668 -0.3422
 2231TIP3    H228109   6.290   0.861   1.135  0.7982 -1.5623 -1.0758
 2232TIP3   OH228110   4.747   3.799  15.229 -0.0683  0.0945 -0.1832
 2232TIP3    H128111   4.673   3.851  15.197  0.8668  0.9297 -1.0324
 2232TIP3    H228112   4.780   3.754  15.151  0.7738  0.3044  0.0460
 2233TIP3   OH228113   3.499   2.904   1.041  0.4224 -0.3514 -0.3084
 2233TIP3    H128114   3.593   2.893   1.031  0.1159 -1.8506 -1.7582
 2233TIP3    H228115   3.478   2.985   0.995  1.0962  0.3728  0.6465
 2234TIP3   OH228116   0.901   6.035   1.257 -0.3118 -0.0251  0.0542
 2234TIP3    H128117   0.923   5.974   1.327  2.8310  2.1779  1.1047
 2234TIP3    H228118   0.963   6.016   1.187 -0.7111  0.5325 -0.4575
 2235TIP3   OH228119   2.309   4.743  12.959  0.3047 -0.5132  0.4488
 2235TIP3    H128120   2.274   4.726  13.046  1.1773 -0.3146  0.8455
 2235TIP3    H228121   2.306   4.839  12.950  0.6459 -0.5011  0.4454
 2236TIP3   OH228122   3.927   0.374  12.676 -0.1932 -0.5525  0.3493
 2236TIP3    H128123   3.925   0.306  12.743  0.4614 -1.0752 -0.1572
 2236TIP3    H228124   3.970   0.448  12.719 -0.4441 -0.6350  0.7422
 2237TIP3   OH228125   3.873   2.735  12.278  0.5163 -0.0431 -0.3142
 2237TIP3    H128126   3.806   2.694  12.333  1.0047 -0.8967 -0.3524
 2237TIP3    H228127   3.824   2.796  12.222  0.0569  1.1963  1.3793
 2238TIP3   OH228128   1.594   5.099  13.970  0.2077  0.2313 -0.1802
 2238TIP3    H128129   1.543   5.115  14.050 -1.4013  0.3960 -1.2220
 2238TIP3    H228130   1.613   5.006  13.972  0.4905  0.2986  0.5701
 2239TIP3   OH228131   4.238   2.331  10.866 -0.2295  0.3391  0.4089
 2239TIP3    H128132   4.333   2.331  10.865 -0.2135  2.2923  0.0570
 2239TIP3    H228133   4.214   2.347  10.957 -0.2419 -0.9512  0.6424
 2240TIP3   OH228134   0.269   0.104   0.490 -0.0317 -0.0291 -0.6705
 2240TIP3    H128135   0.325   0.037   0.452  0.4306  0.3271 -0.6147
 2240TIP3    H228136   0.307   0.122   0.576  0.1719  0.7005 -0.9090
 2241TIP3   OH228137   2.599   6.074  14.409 -0.5827 -0.6858  0.4462
 2241TIP3    H128138   2.673   6.015  14.420 -0.7123 -0.9614 -0.1485
 2241TIP3    H228139   2.638   6.161  14.397 -0.2725 -1.1210 -1.9181
 2242TIP3   OH228140   3.709   5.349  12.247 -0.1469 -0.5212 -0.5105
 2242TIP3    H128141   3.664   5.406  12.310 -1.5832 -1.1946 -0.8995
 2242TIP3    H228142   3.795   5.334  12.285  0.4794  2.3534 -0.6529
 2243TIP3   OH228143   6.420   1.258  15.496  0.0367  0.4398 -0.4608
 2243TIP3    H128144   6.409   1.169  15.528 -0.1705  0.4272 -0.5703
 2243TIP3    H228145   6.477   1.249  15.420  1.7685  0.6218  0.7707
 2244TIP3   OH228146   5.468   3.448   2.316  0.0250 -0.1109 -0.6329
 2244TIP3    H128147   5.559   3.423   2.330 -0.1541 -0.8883 -0.8251
 2244TIP3    H228148   5.472   3.538   2.285  0.6483  0.2988  0.6353
 2245TIP3   OH228149   4.798   1.411  15.737 -0.2298 -0.2615 -0.6034
 2245TIP3    H128150   4.712   1.454  15.743  0.5153  1.3653 -1.2134
 2245TIP3    H228151   4.819   1.414  15.644  0.0969 -1.4628 -0.5654
 2246TIP3   OH228152   0.115   4.763  16.930  0.3760 -0.4003 -0.5296
 2246TIP3    H128153   0.029   4.751  16.972 -0.0892 -0.3532 -1.4554
 2246TIP3    H228154   0.176   4.770  17.003 -0.5660  0.8050  0.1647
 2247TIP3   OH228155   4.988   5.948  15.938 -0.4932  0.2540 -0.0817
 2247TIP3    H128156   4.982   5.929  16.031  1.3674 -0.3078 -0.0455
 2247TIP3    H228157   5.033   5.872  15.900 -0.7566  0.7072 -1.3458
 2248TIP3   OH228158   4.112   2.580   5.876  0.0185 -0.0967 -0.1336
 2248TIP3    H128159   4.157   2.540   5.950 -0.8255 -0.1068  0.3869
 2248TIP3    H228160   4.098   2.671   5.902 -1.1384 -0.3401  0.1351
 2249TIP3   OH228161   2.699   1.658  11.831 -0.2909 -0.1473  0.3862
 2249TIP3    H128162   2.787   1.695  11.835 -1.0467  1.4982  2.0970
 2249TIP3    H228163   2.642   1.729  11.858 -2.0586 -1.5712  0.4346
 2250TIP3   OH228164   2.233   0.697   6.070 -0.3800 -0.4820 -0.0509
 2250TIP3    H128165   2.163   0.665   6.014 -0.3282 -0.5928 -0.0520
 2250TIP3    H228166   2.256   0.623   6.126  1.5697 -1.2928 -1.8450
 2251TIP3   OH228167   3.166   0.700  11.146 -0.2103  0.2377  0.2815
 2251TIP3    H128168   3.177   0.687  11.052  3.0769 -1.1486  0.8040
 2251TIP3    H228169   3.153   0.612  11.181 -1.4500  0.7438  1.1414
 2252TIP3   OH228170   0.174   4.052   4.120 -0.1460 -0.3355 -0.2390
 2252TIP3    H128171   0.080   4.059   4.136 -0.0423  2.0357 -0.4948
 2252TIP3    H228172   0.206   3.998   4.192 -1.6708 -0.9613 -0.0149
 2253TIP3   OH228173   1.282   0.141   5.879 -0.0825 -0.3702  0.2524
 2253TIP3    H128174   1.268   0.187   5.961  1.0195  0.2280  0.1195
 2253TIP3    H228175   1.310   0.209   5.817 -0.1450 -0.9341 -0.4107
 2254TIP3   OH228176   3.634   1.044  11.049 -0.8114  0.4818 -0.1545
 2254TIP3    H128177   3.686   1.067  10.972  0.6211 -0.5487  0.4884
 2254TIP3    H228178   3.587   0.964  11.022 -1.1224  0.7197 -0.3181
 2255TIP3   OH228179   6.692   5.525   2.341  0.0851 -0.4192  0.2955
 2255TIP3    H128180   6.763   5.508   2.403 -0.0025 -2.4946 -0.1606
 2255TIP3    H228181   6.711   5.469   2.266 -0.3736  1.2912 -1.1463
 2256TIP3   OH228182   5.471   3.914   0.779 -0.2052 -0.1836  0.3442
 2256TIP3    H128183   5.402   3.911   0.844 -1.9318 -0.2985 -1.4306
 2256TIP3    H228184   5.523   3.991   0.802 -0.2803 -0.6935  2.3047
 2257TIP3   OH228185   5.201   2.430   2.435  0.3141 -0.2253  0.4860
 2257TIP3    H128186   5.241   2.398   2.355  1.5681 -0.2093  1.0904
 2257TIP3    H228187   5.109   2.408   2.427  0.1498  1.1747 -1.6407
 2258TIP3   OH228188   5.865   0.725  10.752 -0.3142 -0.1149  0.1428
 2258TIP3    H128189   5.805   0.651  10.740 -0.0841  0.1402 -2.9956
 2258TIP3    H228190   5.950   0.684  10.764 -0.7102 -0.4122  2.1518
 2259TIP3   OH228191   0.599   6.342  14.092 -0.3633 -0.7849  0.3293
 2259TIP3    H128192   0.690   6.320  14.109 -0.7649 -2.2880  0.5378
 2259TIP3    H228193   0.597   6.363  13.998 -0.3038 -3.4288 -0.3098
 2260TIP3   OH228194   5.218   4.704   4.978  0.3271 -0.2588 -0.2290
 2260TIP3    H128195   5.288   4.737   5.033  0.2909 -1.8320  0.8004
 2260TIP3    H228196   5.256   4.628   4.933  0.1522  0.6008 -1.8717
 2261TIP3   OH228197   3.125   0.052  13.647  0.2286  0.4902  0.6046
 2261TIP3    H128198   3.067   0.097  13.708  0.1971 -1.1722  1.8481
 2261TIP3    H228199   3.107   0.093  13.562 -0.8560  1.7756  1.4360
 2262TIP3   OH228200   0.120   4.336  14.480  0.6385 -0.2207  0.3029
 2262TIP3    H128201   0.046   4.321  14.421  0.3555 -1.2626  0.9022
 2262TIP3    H228202   0.112   4.428  14.505  0.7577  0.2191 -1.2574
 2263TIP3   OH228203   5.844   4.704   3.092  0.1625 -0.1724 -0.0425
 2263TIP3    H128204   5.928   4.744   3.070  0.0872  0.2222  0.3707
 2263TIP3    H228205   5.862   4.651   3.169 -0.0532  0.2407  0.2955
 2264TIP3   OH228206   4.120   4.494   4.825  0.2153 -0.2121  0.1442
 2264TIP3    H128207   4.180   4.493   4.750 -1.4294 -0.4068 -1.2133
 2264TIP3    H228208   4.142   4.414   4.874  1.0095 -0.3208 -0.3774
 2265TIP3   OH228209   2.171   5.881   4.029  0.0201  0.5108  0.0893
 2265TIP3    H128210   2.255   5.849   3.993 -0.3719 -0.3326 -0.0979
 2265TIP3    H228211   2.150   5.819   4.099 -1.9885 -1.1409 -1.8993
 2266TIP3   OH228212   6.181   3.450  13.206  0.2761 -0.8334  0.5288
 2266TIP3    H128213   6.218   3.373  13.162  1.0256 -0.0186 -0.2873
 2266TIP3    H228214   6.178   3.426  13.299 -1.4249 -2.6084  0.0339
 2267TIP3   OH228215   6.310   6.291   5.522  0.7098  0.1343 -0.3245
 2267TIP3    H128216   6.329   6.203   5.488 -0.2500  0.0250 -0.5849
 2267TIP3    H228217   6.292   6.343   5.444 -1.9172 -0.2184  0.0082
 2268TIP3   OH228218   3.740   5.341  17.035  0.0638 -0.5929 -0.0527
 2268TIP3    H128219   3.712   5.250  17.029  0.5720 -0.9509  2.4341
 2268TIP3    H228220   3.798   5.343  17.111  1.3154  1.5058 -1.0218
 2269TIP3   OH228221   6.504   4.568  13.451  0.2917 -0.3775 -0.0600
 2269TIP3    H128222   6.441   4.521  13.396  0.5110  0.6940 -1.2501
 2269TIP3    H228223   6.587   4.561  13.404  1.1359 -2.0303  1.6545
 2270TIP3   OH228224   2.314   2.326  13.006 -0.3648  0.1055 -0.0059
 2270TIP3    H128225   2.406   2.350  13.005 -0.0373 -1.1113 -1.0213
 2270TIP3    H228226   2.282   2.350  12.919 -1.2657  1.4492  0.6756
 2271TIP3   OH228227   4.320   4.842   3.016 -0.0508  0.4116  0.8016
 2271TIP3    H128228   4.316   4.757   3.060 -1.7672  0.2620  0.3857
 2271TIP3    H228229   4.375   4.826   2.939 -1.2246 -0.6014  0.1506
 2272TIP3   OH228230   2.193   1.375   3.976  0.0482 -0.5513 -0.2053
 2272TIP3    H128231   2.162   1.372   4.067 -0.6461  0.8928 -0.3794
 2272TIP3    H228232   2.192   1.468   3.953  1.5034 -0.7684 -1.2679
 2273TIP3   OH228233   4.342   4.414   4.656  0.0371  0.0338  0.1387
 2273TIP3    H128234   4.420   4.369   4.686  0.0057 -0.5869 -0.6758
 2273TIP3    H228235   4.274   4.346   4.653 -0.2428  0.3206 -0.2322
 2274TIP3   OH228236   0.981   6.399   4.687 -0.2478  0.1730  0.3229
 2274TIP3    H128237   0.976   6.473   4.626 -0.8227  0.3862  0.6195
 2274TIP3    H228238   1.053   6.345   4.654 -1.1345 -0.1809 -1.0575
 2275TIP3   OH228239   2.281   4.706  15.619 -0.6623 -0.3685 -0.5398
 2275TIP3    H128240   2.221   4.776  15.592 -0.1294  0.9262  1.5304
 2275TIP3    H228241   2.363   4.726  15.574  0.1367  1.6121  1.7202
 2276TIP3   OH228242   2.722   0.403   3.270 -0.3671  0.0455  0.2224
 2276TIP3    H128243   2.736   0.329   3.330  1.1724  0.9271  0.9649
 2276TIP3    H228244   2.676   0.364   3.195 -0.6520 -1.4315  1.1385
 2277TIP3   OH228245   3.853   0.426  16.078 -0.4640 -0.3704 -0.5500
 2277TIP3    H128246   3.873   0.397  16.167 -0.1166  1.4638 -0.0202
 2277TIP3    H228247   3.760   0.407  16.067 -1.6511  3.5707  1.8917
 2278TIP3   OH228248   1.005   3.784   1.341 -0.1621 -0.1497 -0.5137
 2278TIP3    H128249   1.086   3.754   1.383 -0.3077 -0.8190 -0.6980
 2278TIP3    H228250   0.984   3.715   1.277  1.5658  2.1566 -3.7040
 2279TIP3   OH228251   5.471   5.236  13.462  0.6910  0.2413  0.3210
 2279TIP3    H128252   5.440   5.154  13.424 -1.2147  0.8566  0.4832
 2279TIP3    H228253   5.534   5.209  13.529  1.3017 -0.9980 -0.7226
 2280TIP3   OH228254   0.265   4.806   1.068  0.0412 -0.2332 -0.2737
 2280TIP3    H128255   0.251   4.804   0.973  1.2016 -1.1227 -0.4296
 2280TIP3    H228256   0.224   4.726   1.101  1.3223 -0.9021 -0.2694
 2281TIP3   OH228257   0.103   5.862   4.160  0.4089  0.0696 -0.0062
 2281TIP3    H128258   0.181   5.899   4.201  1.5724 -2.3141 -0.0211
 2281TIP3    H228259   0.127   5.772   4.139 -1.8222 -0.2137 -1.4609
 2282TIP3   OH228260   4.319   0.089  11.465 -0.1788 -0.1413  0.1332
 2282TIP3    H128261   4.374   0.036  11.522 -0.9793  1.3398  2.3497
 2282TIP3    H228262   4.241   0.035  11.450 -0.7548  0.1662  1.9354
 2283TIP3   OH228263   5.013   1.600   0.261 -0.1438 -0.0985 -0.1309
 2283TIP3    H128264   5.071   1.539   0.307 -0.6032 -0.0534  0.5193
 2283TIP3    H228265   5.038   1.686   0.294  0.9241  0.1308 -1.5110
 2284TIP3   OH228266   2.285   4.593   1.754 -0.0498 -0.1779 -0.3305
 2284TIP3    H128267   2.342   4.517   1.760  0.0239 -0.2248 -1.4468
 2284TIP3    H228268   2.332   4.662   1.800 -1.4309 -1.5147  3.3213
 2285TIP3   OH228269   1.649   6.031  13.821  0.2515  0.4990  0.0127
 2285TIP3    H128270   1.741   6.017  13.798  0.5626  1.8072  0.3955
 2285TIP3    H228271   1.610   5.944  13.817  1.4942 -0.0681 -0.2145
 2286TIP3   OH228272   0.751   6.352   4.277  0.4652 -0.1631  0.1855
 2286TIP3    H128273   0.710   6.276   4.236  0.9362  0.4066 -1.3680
 2286TIP3    H228274   0.813   6.315   4.340  2.3404 -1.1297 -2.1749
 2287TIP3   OH228275   1.810   1.683  15.443  0.7115 -0.1978 -0.2622
 2287TIP3    H128276   1.831   1.605  15.392  1.5990  0.8665 -1.5739
 2287TIP3    H228277   1.715   1.694  15.434  0.4036 -1.7623  0.8964
 2288TIP3   OH228278   4.406   1.287   1.076 -0.3301  0.2508  0.0708
 2288TIP3    H128279   4.359   1.329   1.148  1.7810  2.6445  0.1587
 2288TIP3    H228280   4.366   1.322   0.997  0.4351  1.3342  0.1431
 2289TIP3   OH228281   0.024   3.925   3.068 -0.1173 -0.4577 -0.1031
 2289TIP3    H128282   0.095   3.942   3.006  1.7761 -0.3201  2.0116
 2289TIP3    H228283   0.031   3.831   3.086  1.3016  0.0479  2.1484
 2290TIP3   OH228284   2.454   2.377  11.823  0.3833 -0.5517 -0.1176
 2290TIP3    H128285   2.394   2.303  11.817  0.1969 -0.4998  1.0749
 2290TIP3    H228286   2.439   2.413  11.910 -0.7325  1.9267 -1.2894
 2291TIP3   OH228287   1.366   2.473  12.513 -0.3623  0.3892  0.1804
 2291TIP3    H128288   1.393   2.565  12.513  1.9136 -0.2279 -0.1578
 2291TIP3    H228289   1.411   2.435  12.438 -0.3420 -1.2447  0.9887
 2292TIP3   OH228290   6.127   2.468  11.476 -0.0763  0.2835 -1.3236
 2292TIP3    H128291   6.165   2.545  11.432  2.4727  0.7091  1.4709
 2292TIP3    H228292   6.080   2.505  11.551  0.1319 -0.8045 -0.6571
 2293TIP3   OH228293   2.258   2.367  15.481  0.4330  0.3066  0.2113
 2293TIP3    H128294   2.322   2.391  15.414 -0.4241  0.6552 -0.4932
 2293TIP3    H228295   2.202   2.444  15.490 -0.7841 -0.5111 -0.2462
 2294TIP3   OH228296   0.884   0.415   2.891  0.3349 -0.0366  0.1390
 2294TIP3    H128297   0.942   0.370   2.829  1.5115 -0.1604  1.3230
 2294TIP3    H228298   0.901   0.508   2.875  1.6795 -0.0815  1.2378
 2295TIP3   OH228299   4.096   3.829  12.501  0.2759 -0.3252  0.3816
 2295TIP3    H128300   4.168   3.803  12.443  1.3623  0.9007  1.1572
 2295TIP3    H228301   4.091   3.924  12.491 -1.4058 -0.4276  0.1526
 2296TIP3   OH228302   1.642   6.629  11.621  0.0944 -0.2178  0.2507
 2296TIP3    H128303   1.571   6.670  11.671 -0.1986 -0.3770 -0.0383
 2296TIP3    H228304   1.717   6.688  11.635 -0.4143  0.6040 -0.4365
 2297TIP3   OH228305   6.173   5.993  16.766  0.0534 -0.0431  0.3549
 2297TIP3    H128306   6.209   6.060  16.824  0.2492  1.9721 -2.0125
 2297TIP3    H228307   6.129   6.042  16.697 -1.5639 -2.4064 -0.3533
 2298TIP3   OH228308   3.014   0.063   3.924 -0.0732 -0.2338 -0.1265
 2298TIP3    H128309   3.071   0.128   3.885 -0.1853 -0.1895 -0.2163
 2298TIP3    H228310   2.941   0.114   3.960  0.6663 -0.1460  1.2742
 2299TIP3   OH228311   3.369   1.903  15.050 -0.8253 -0.4267  0.3511
 2299TIP3    H128312   3.413   1.988  15.039  1.4004 -1.6143 -0.3371
 2299TIP3    H228313   3.324   1.889  14.967 -2.0046  0.5019  0.8183
 2300TIP3   OH228314   6.019   6.232  15.602  0.0825 -0.3508  0.2516
 2300TIP3    H128315   6.013   6.149  15.648  2.4307 -0.5176  0.3388
 2300TIP3    H228316   6.004   6.210  15.510  3.5655 -1.4270 -0.1478
 2301TIP3   OH228317   5.836   0.934   4.455 -0.2311  0.1398 -0.6911
 2301TIP3    H128318   5.859   0.988   4.531 -0.3434  1.5466 -1.6506
 2301TIP3    H228319   5.914   0.881   4.439  0.0344  0.3090 -0.0025
 2302TIP3   OH228320   2.209   6.584  12.988 -0.2162  0.1534 -0.0000
 2302TIP3    H128321   2.144   6.518  13.013  0.2737 -1.0690 -1.8202
 2302TIP3    H228322   2.171   6.628  12.913  1.4399 -1.2892 -1.7614
 2303TIP3   OH228323   4.965   0.003   3.552 -0.3347  0.5303 -0.3964
 2303TIP3    H128324   5.039   0.057   3.525  0.9828 -0.8858  0.2809
 2303TIP3    H228325   4.993  -0.035   3.635 -2.6441  1.5489  0.8922
 2304TIP3   OH228326   4.139   6.480   4.751 -0.1876  0.6098 -0.2834
 2304TIP3    H128327   4.138   6.530   4.669 -1.0537 -0.3963 -0.9041
 2304TIP3    H228328   4.059   6.508   4.796  0.3583  1.2646  0.2913
 2305TIP3   OH228329   2.329   3.346  12.899  0.0456  0.5261 -0.5885
 2305TIP3    H128330   2.423   3.333  12.914 -0.2697  0.0726  1.0911
 2305TIP3    H228331   2.324   3.378  12.809  1.8714  1.2780 -0.4594
 2306TIP3   OH228332   3.863   2.621   1.529 -0.6486 -0.6828 -0.0757
 2306TIP3    H128333   3.844   2.712   1.506  0.7318  0.2172  2.2450
 2306TIP3    H228334   3.821   2.608   1.614  3.5540 -0.6014  2.0909
 2307TIP3   OH228335   1.241   3.529  12.287 -0.5890  0.7527  0.6567
 2307TIP3    H128336   1.245   3.614  12.243 -1.0048 -0.1127 -1.1165
 2307TIP3    H228337   1.154   3.496  12.265  0.0413 -0.6715  0.2798
 2308TIP3   OH228338   3.878   2.002   1.981 -0.4053 -0.5005  0.2987
 2308TIP3    H128339   3.928   1.959   2.050 -0.3401  0.6522  0.9981
 2308TIP3    H228340   3.800   2.036   2.025  0.1222  1.1172  0.0360
 2309TIP3   OH228341   2.776   3.680   4.174  0.2914  0.0458  0.0572
 2309TIP3    H128342   2.774   3.679   4.078 -0.0854 -0.2804  0.0658
 2309TIP3    H228343   2.761   3.771   4.198  1.9160  0.4062 -0.2215
 2310TIP3   OH228344   4.134   3.033  13.571 -0.0444  0.4499  0.6284
 2310TIP3    H128345   4.191   3.107  13.551 -1.1640  0.7897 -1.5079
 2310TIP3    H228346   4.186   2.956  13.549  0.7460  0.6372  1.8399
 2311TIP3   OH228347   2.474   3.866  10.290  0.0501  0.6092 -0.0821
 2311TIP3    H128348   2.467   3.808  10.366  4.2296  1.0721  0.7985
 2311TIP3    H228349   2.403   3.839  10.232 -1.8762 -1.2214  3.0191
 2312TIP3   OH228350   4.943   5.430  15.077 -0.0842  0.1450 -0.3170
 2312TIP3    H128351   4.984   5.364  15.020 -0.4505  1.5381 -2.2595
 2312TIP3    H228352   4.971   5.514  15.040 -0.6512  1.0818  1.3522
 2313TIP3   OH228353   5.398   5.933  15.957  0.1738 -0.1577  0.2790
 2313TIP3    H128354   5.354   5.911  16.039  0.4958 -0.0854  0.4709
 2313TIP3    H228355   5.367   5.867  15.895 -0.0135 -0.2566  0.4773
 2314TIP3   OH228356   0.094   2.049   1.326 -0.6704 -0.1310 -0.3884
 2314TIP3    H128357   0.138   2.043   1.411 -1.9843  0.5250  0.3612
 2314TIP3    H228358   0.080   2.143   1.313  0.3724 -0.1526 -1.7956
 2315TIP3   OH228359   2.430   4.155   0.894 -0.4593  0.0906  0.1902
 2315TIP3    H128360   2.496   4.124   0.833  0.8835  2.4374  0.4046
 2315TIP3    H228361   2.426   4.088   0.962  0.5744 -0.8178 -0.6357
 2316TIP3   OH228362   3.434   4.646  15.061  0.4864  0.3100 -0.0433
 2316TIP3    H128363   3.465   4.579  15.121 -1.0432 -1.7809 -1.5163
 2316TIP3    H228364   3.465   4.618  14.975 -0.1513  1.4872 -0.6811
 2317TIP3   OH228365   5.583   6.107  11.651 -0.3308 -0.4448  0.3537
 2317TIP3    H128366   5.642   6.032  11.651  1.4668  0.9123  0.0508
 2317TIP3    H228367   5.559   6.119  11.559  1.3433  0.7816  0.0379
 2318TIP3   OH228368   1.389   1.250  16.622  0.1746 -0.5051 -0.0594
 2318TIP3    H128369   1.330   1.208  16.684 -0.2422 -0.0014 -0.1111
 2318TIP3    H228370   1.344   1.244  16.538 -0.4640  1.1643  0.1517
 2319TIP3   OH228371   6.605   1.983   4.193 -0.1578 -0.2375  0.3087
 2319TIP3    H128372   6.697   1.957   4.180  0.1040  0.4290  0.7829
 2319TIP3    H228373   6.557   1.901   4.194  0.5568 -0.6596  0.9692
 2320TIP3   OH228374   2.182   4.105   1.178  0.0396  0.2436 -0.2248
 2320TIP3    H128375   2.195   4.192   1.139  1.4724 -0.6843 -1.9068
 2320TIP3    H228376   2.265   4.059   1.162 -0.7146 -1.4550  0.5949
 2321TIP3   OH228377   4.827   3.482  13.636  0.1050 -0.1402 -0.0248
 2321TIP3    H128378   4.813   3.527  13.553 -0.6784  0.3804  0.3927
 2321TIP3    H228379   4.865   3.397  13.611  1.6157  0.7529 -0.8040
 2322TIP3   OH228380   3.149   2.177  16.545 -0.5117 -0.6141  0.1679
 2322TIP3    H128381   3.177   2.187  16.636  0.6871 -1.2472 -0.1271
 2322TIP3    H228382   3.053   2.186  16.549 -0.5172 -1.0460  1.5408
 2323TIP3   OH228383   6.762   3.473  13.888  0.3408  0.3036 -0.0808
 2323TIP3    H128384   6.748   3.543  13.824  1.1523  0.1179 -0.4688
 2323TIP3    H228385   6.837   3.424  13.854 -0.7031 -1.2233 -0.1978
 2324TIP3   OH228386   4.225   1.728   5.237  0.0378  0.5008  0.2733
 2324TIP3    H128387   4.177   1.779   5.302  0.1623  0.3839  0.4578
 2324TIP3    H228388   4.314   1.721   5.272 -0.2176 -0.6362  0.6986
 2325TIP3   OH228389   4.668   1.389   2.596 -0.0326  0.3480 -0.2139
 2325TIP3    H128390   4.649   1.483   2.591 -0.3241  0.3567  1.0032
 2325TIP3    H228391   4.594   1.347   2.552 -1.6661  0.5156  2.2691
 2326TIP3   OH228392   2.545   6.636  14.308  0.1807 -0.3119  0.3584
 2326TIP3    H128393   2.547   6.575  14.382  0.8877  0.6297  1.1342
 2326TIP3    H228394   2.636   6.665  14.299 -0.1062  0.4309 -0.1602
 2327TIP3   OH228395   1.117   6.199  15.849 -0.2027 -0.4957 -0.3971
 2327TIP3    H128396   1.125   6.233  15.939  0.6787 -1.0508 -0.2557
 2327TIP3    H228397   1.143   6.272  15.793 -1.6376  0.1422 -0.2397
 2328TIP3   OH228398   3.487   3.289  14.662  0.0625  0.9172  1.1260
 2328TIP3    H128399   3.487   3.246  14.748  0.1404 -0.1522  0.5993
 2328TIP3    H228400   3.423   3.359  14.671 -2.1675 -1.0654  1.1412
 2329TIP3   OH228401   3.387   0.445  12.631 -0.2257  0.6022  0.4428
 2329TIP3    H128402   3.324   0.398  12.686  0.3935  0.6104  1.1756
 2329TIP3    H228403   3.452   0.477  12.693  0.2540  0.9850 -0.2595
 2330TIP3   OH228404   5.617   0.762   4.445  0.0772  0.3300  0.6178
 2330TIP3    H128405   5.665   0.842   4.422 -0.2253  0.2897 -0.1855
 2330TIP3    H228406   5.570   0.784   4.525  2.0326  0.1279  1.8393
 2331TIP3   OH228407   2.229   2.753  16.641 -0.0224 -0.5178 -0.2745
 2331TIP3    H128408   2.208   2.750  16.734 -1.1403  1.4862 -0.4343
 2331TIP3    H228409   2.219   2.662  16.611 -4.2577 -0.4440  0.6024
 2332TIP3   OH228410   1.217   1.005  11.513 -0.2419 -0.2104 -0.3174
 2332TIP3    H128411   1.170   0.987  11.594 -0.2403  0.2295 -0.2220
 2332TIP3    H228412   1.249   1.095  11.522 -0.1576 -0.1945 -0.7612
 2333TIP3   OH228413   1.925   3.148   2.584  0.2175  0.0117 -0.0354
 2333TIP3    H128414   1.878   3.086   2.528 -0.8120  0.7945 -0.0355
 2333TIP3    H228415   1.944   3.098   2.664  2.5393 -1.4116 -1.4164
 2334TIP3   OH228416   0.799   4.644   5.046 -0.7726  0.2021  0.8137
 2334TIP3    H128417   0.870   4.580   5.051  0.1884  1.2841  1.4262
 2334TIP3    H228418   0.719   4.593   5.050 -0.0190 -0.9661  1.1184
 2335TIP3   OH228419   5.804   4.077   3.547  0.4713 -0.6573 -0.4667
 2335TIP3    H128420   5.798   4.079   3.452 -0.8860  1.7456 -0.3749
 2335TIP3    H228421   5.876   4.136   3.568  1.4024 -1.9239 -0.0143
 2336TIP3   OH228422   6.228   3.324  14.139 -0.1976 -0.0995  0.1124
 2336TIP3    H128423   6.265   3.392  14.082  3.0051 -1.8655 -0.0185
 2336TIP3    H228424   6.220   3.366  14.224 -3.0608  1.9216 -1.0586
 2337TIP3   OH228425   0.350   5.397  16.130  0.1484  0.6356 -0.2885
 2337TIP3    H128426   0.290   5.412  16.057  1.2326 -0.7432 -1.4776
 2337TIP3    H228427   0.431   5.367  16.090  0.2708 -1.6801  1.5484
 2338TIP3   OH228428   6.305   4.777  12.392  0.3871  0.2963 -0.0178
 2338TIP3    H128429   6.396   4.800  12.372  0.7230  0.5002  1.6542
 2338TIP3    H228430   6.303   4.770  12.488 -0.5096 -3.1313 -0.2030
 2339TIP3   OH228431   3.374   3.584   1.241  0.1047 -0.3688 -0.0674
 2339TIP3    H128432   3.279   3.584   1.255  0.1995 -0.9418  0.6403
 2339TIP3    H228433   3.389   3.512   1.179  0.3618 -2.2078  2.0614
 2340TIP3   OH228434   5.310   2.565   3.461  0.4219  0.6964 -0.1433
 2340TIP3    H128435   5.296   2.505   3.533  1.6280 -0.7787 -1.1068
 2340TIP3    H228436   5.223   2.576   3.422 -0.4226  2.2718  2.0688
 2341TIP3   OH228437   2.040   2.721  12.231  0.1406 -0.2627  0.6516
 2341TIP3    H128438   1.989   2.794  12.264  2.2925  1.4865  0.2392
 2341TIP3    H228439   1.981   2.674  12.172 -1.2678  1.1209  0.9558
 2342TIP3   OH228440   4.776   4.971  14.493 -0.0256 -0.2189 -0.0231
 2342TIP3    H128441   4.724   4.895  14.518 -0.1865 -0.7428 -1.8817
 2342TIP3    H228442   4.713   5.030  14.451  0.3895  0.3054  0.0759
 2343TIP3   OH228443   2.755   6.631  12.024 -0.2240  0.5480  0.1475
 2343TIP3    H128444   2.759   6.545  12.065  2.0328  1.6583  2.4321
 2343TIP3    H228445   2.724   6.615  11.935 -1.7938 -2.3705  1.1580
 2344TIP3   OH228446   5.076   2.612   2.120  0.0470  0.3338 -0.3390
 2344TIP3    H128447   5.060   2.554   2.195 -1.0639  0.0613 -0.7758
 2344TIP3    H228448   5.168   2.637   2.128  0.7972 -2.1977 -0.6561
 2345TIP3   OH228449   3.379   2.198   4.181 -0.7180 -0.0485  0.2081
 2345TIP3    H128450   3.368   2.129   4.247 -1.1585  0.5921  0.8121
 2345TIP3    H228451   3.338   2.162   4.102  0.6699 -1.2130 -0.0003
 2346TIP3   OH228452   4.769   4.492   2.700  0.4308  0.2178  0.1515
 2346TIP3    H128453   4.759   4.480   2.794 -0.4921  0.2709  0.0669
 2346TIP3    H228454   4.729   4.413   2.662  2.2447 -0.5666 -0.1493
 2347TIP3   OH228455   1.665   5.611  14.058 -0.3415 -0.0325 -0.0272
 2347TIP3    H128456   1.749   5.653  14.040  0.2689 -2.0094 -2.0645
 2347TIP3    H228457   1.614   5.625  13.978 -1.5679  0.2643  0.8046
 2348TIP3   OH228458   6.113   3.338   2.018  0.1087  0.1057 -0.1213
 2348TIP3    H128459   6.027   3.373   2.037 -0.1283 -0.1231 -0.7633
 2348TIP3    H228460   6.172   3.385   2.077 -0.2331  1.4203 -0.8100
 2349TIP3   OH228461   5.232   3.865   0.317 -0.7338 -0.4490  0.3082
 2349TIP3    H128462   5.319   3.901   0.337 -0.6645 -1.1781  1.3724
 2349TIP3    H228463   5.250   3.788   0.264 -0.8435  0.5830 -1.2681
 2350TIP3   OH228464   1.869   5.515  16.686  0.0129 -0.0000 -0.5596
 2350TIP3    H128465   1.816   5.447  16.644  1.4090 -1.0025 -0.7159
 2350TIP3    H228466   1.953   5.511  16.641  0.4697  1.0960  0.1835
 2351TIP3   OH228467   4.492   1.912  10.573 -0.1802 -0.2561  0.0011
 2351TIP3    H128468   4.493   1.817  10.568 -0.9961 -0.3696  1.6557
 2351TIP3    H228469   4.526   1.932  10.661 -0.0839  0.9654 -0.3024
 2352TIP3   OH228470   3.926   0.849  14.775 -0.7718  0.0517  0.7452
 2352TIP3    H128471   3.839   0.827  14.743 -0.3871  0.9575 -0.9347
 2352TIP3    H228472   3.982   0.847  14.698  0.3242  1.4685  1.4690
 2353TIP3   OH228473   3.787   3.477   2.602  0.9402 -0.1958 -0.5873
 2353TIP3    H128474   3.772   3.481   2.697  3.0171 -0.6523 -0.2196
 2353TIP3    H228475   3.765   3.565   2.571 -1.0043 -0.4039  0.0984
 2354TIP3   OH228476   5.465   3.012   0.393  0.3181  0.1100 -0.0153
 2354TIP3    H128477   5.395   2.987   0.333 -0.7654  1.7611  0.5307
 2354TIP3    H228478   5.521   3.069   0.340  1.1147 -0.9794 -0.3672
 2355TIP3   OH228479   3.953   4.293   2.445  0.2868 -0.1700  0.4062
 2355TIP3    H128480   3.980   4.365   2.389 -0.3952 -2.0479 -2.4932
 2355TIP3    H228481   3.868   4.266   2.410  0.0996 -1.7925  1.9902
 2356TIP3   OH228482   2.762   5.486  15.288 -0.4047 -0.0386  0.1650
 2356TIP3    H128483   2.725   5.450  15.208 -1.7891  2.4366 -0.3607
 2356TIP3    H228484   2.815   5.560  15.259 -0.7319  0.7336  1.5148
 2357TIP3   OH228485   4.468   1.076   3.515  0.2667 -0.2916  0.6197
 2357TIP3    H128486   4.398   1.099   3.577 -0.1202 -1.2730  0.5478
 2357TIP3    H228487   4.423   1.056   3.433  0.5963 -1.2617  0.6664
 2358TIP3   OH228488   5.508   1.952   1.680 -0.4616 -0.4902  0.3695
 2358TIP3    H128489   5.581   2.010   1.703 -1.8519  0.5638  2.3081
 2358TIP3    H228490   5.543   1.893   1.613  2.1353  0.0103  1.2627
 2359TIP3   OH228491   6.774   5.738  13.718  0.5261  0.7252  0.1333
 2359TIP3    H128492   6.754   5.654  13.676  2.9246  0.3842 -0.4568
 2359TIP3    H228493   6.732   5.804  13.663 -1.7057 -0.1084  0.8259
 2360TIP3   OH228494   1.472   5.373  10.694 -0.3352  0.1188 -0.6192
 2360TIP3    H128495   1.407   5.352  10.627  0.2690 -1.7740 -0.6351
 2360TIP3    H228496   1.549   5.322  10.669  0.2017  0.1139  0.9994
 2361TIP3   OH228497   3.706   1.404   1.339  0.8443 -0.0853 -0.4369
 2361TIP3    H128498   3.641   1.430   1.404  0.0032  0.8462 -1.6343
 2361TIP3    H228499   3.756   1.334   1.382 -0.1035  0.0787  0.9650
 2362TIP3   OH228500   4.396   4.147   4.242  0.0076 -0.8601  0.3067
 2362TIP3    H128501   4.425   4.079   4.303  1.1291  2.0242  3.1007
 2362TIP3    H228502   4.462   4.216   4.249 -1.6162  0.9808 -1.7311
 2363TIP3   OH228503   3.167   3.324   3.030  0.3871  0.4538 -0.7832
 2363TIP3    H128504   3.221   3.292   2.958 -1.2464  0.4266 -2.0131
 2363TIP3    H228505   3.214   3.296   3.109 -0.2888 -3.8733 -1.7707
 2364TIP3   OH228506   2.708   0.686   3.407  0.0358  0.2003  0.3697
 2364TIP3    H128507   2.748   0.605   3.376 -0.5040 -1.0051  2.7422
 2364TIP3    H228508   2.628   0.695   3.355 -1.6269 -2.5705  2.3854
 2365TIP3   OH228509   1.676   0.722   3.524 -0.4413  0.2506  0.1122
 2365TIP3    H128510   1.600   0.665   3.517 -1.4016  1.3934  0.8647
 2365TIP3    H228511   1.698   0.721   3.617 -0.4082  1.0151  0.1158
 2366TIP3   OH228512   2.801   4.603  15.602  0.3363  0.0585  1.1400
 2366TIP3    H128513   2.791   4.513  15.632  0.2355  0.2171  1.5750
 2366TIP3    H228514   2.875   4.638  15.652  1.4012 -0.2768 -0.1697
 2367TIP3   OH228515   2.365   0.008   4.262 -0.3458  0.2972 -0.1887
 2367TIP3    H128516   2.308   0.079   4.293  0.0547 -0.2724  1.9397
 2367TIP3    H228517   2.308  -0.048   4.210 -0.8150  1.8238 -1.3702
 2368TIP3   OH228518   5.294   6.561   0.134 -0.2822  0.3363 -0.0939
 2368TIP3    H128519   5.365   6.538   0.074  0.7458 -0.3279  1.3409
 2368TIP3    H228520   5.331   6.629   0.190 -1.5150  1.5805 -0.7506
 2369TIP3   OH228521   0.051   5.448   2.026 -0.2647  0.5878  0.5642
 2369TIP3    H128522   0.056   5.521   1.964 -0.2726  0.8308  0.8502
 2369TIP3    H228523  -0.031   5.403   2.004  0.3653 -0.0870 -0.4421
 2370TIP3   OH228524   2.228   3.401  15.617 -0.8995 -0.8556 -0.3315
 2370TIP3    H128525   2.240   3.493  15.593 -0.5720 -0.9839 -0.6714
 2370TIP3    H228526   2.317   3.365  15.619 -1.1885 -1.8941 -3.2016
 2371TIP3   OH228527   3.861   2.159  12.545 -0.2157  0.3814  0.1001
 2371TIP3    H128528   3.811   2.080  12.566  0.5198 -0.0414  0.2387
 2371TIP3    H228529   3.837   2.178  12.454 -1.4381  0.7826  0.4868
 2372TIP3   OH228530   6.578   0.061  11.888  0.0379  0.2200 -0.1883
 2372TIP3    H128531   6.492   0.024  11.908  0.0285 -0.9855 -2.3598
 2372TIP3    H228532   6.627  -0.011  11.851  1.2308  1.4917 -1.1284
 2373TIP3   OH228533   5.701   0.763  11.637  0.0367  0.4549  0.3144
 2373TIP3    H128534   5.770   0.697  11.629  0.2582  0.3474  2.8205
 2373TIP3    H228535   5.620   0.715  11.618  0.3999 -0.0407  0.0057
 2374TIP3   OH228536   1.442   0.538  13.624 -0.0256 -0.8765 -0.6674
 2374TIP3    H128537   1.406   0.506  13.541  0.0663 -1.5442 -0.4513
 2374TIP3    H228538   1.365   0.546  13.681 -0.2608  0.7601 -1.1857
 2375TIP3   OH228539   1.456   5.606  13.845  0.3581  0.2625 -0.6375
 2375TIP3    H128540   1.458   5.513  13.867 -0.6797  0.6125  1.0128
 2375TIP3    H228541   1.370   5.620  13.806 -0.0806  0.8319  0.5244
 2376TIP3   OH228542   2.575   3.480   0.209  0.6093 -0.7705 -0.0396
 2376TIP3    H128543   2.553   3.458   0.300 -1.4113 -1.8880 -0.7647
 2376TIP3    H228544   2.615   3.400   0.175 -0.1743 -0.9123 -0.6225
 2377TIP3   OH228545   3.362   4.913  14.757  0.0338  0.2000 -0.1032
 2377TIP3    H128546   3.383   4.937  14.847  1.1591  0.9311 -0.5543
 2377TIP3    H228547   3.324   4.992  14.720  0.1416  0.0871 -0.4515
 2378TIP3   OH228548   0.435   0.985   6.224  0.6630 -0.8394 -0.0036
 2378TIP3    H128549   0.477   0.981   6.310 -1.2719  1.4170  1.0931
 2378TIP3    H228550   0.394   0.899   6.213  0.8182 -1.0933  1.3898
 2379TIP3   OH228551   2.837   1.930   1.007 -0.5150  0.0311  0.6651
 2379TIP3    H128552   2.917   1.960   0.963  0.1404  0.6554  2.2456
 2379TIP3    H228553   2.866   1.857   1.062 -0.7702  1.0897  2.2275
 2380TIP3   OH228554   4.307   2.067  12.967  0.3596 -0.5406  0.5196
 2380TIP3    H128555   4.263   2.151  12.960 -0.0545 -0.7254  0.9213
 2380TIP3    H228556   4.397   2.089  12.993  0.5957 -0.1519 -0.5774
 2381TIP3   OH228557   1.053   0.839  13.381 -0.7407  0.5498  0.1755
 2381TIP3    H128558   1.134   0.847  13.332 -1.4582  0.4514 -1.0424
 2381TIP3    H228559   0.991   0.799  13.320 -1.3365 -0.6232  1.5136
 2382TIP3   OH228560   2.929   0.800  13.514  0.0887 -0.5909  0.2417
 2382TIP3    H128561   3.004   0.820  13.570  0.8537  1.6666 -1.5202
 2382TIP3    H228562   2.878   0.881  13.512 -1.0124 -1.2921 -0.7137
 2383TIP3   OH228563   2.074   5.040   1.515 -0.1682  0.1040  0.1411
 2383TIP3    H128564   2.140   4.981   1.479  0.0768  0.3960  0.1093
 2383TIP3    H228565   2.061   5.107   1.447 -0.0741  0.3714  0.3828
 2384TIP3   OH228566   6.220   6.376   0.841 -0.3199 -0.2827 -0.4404
 2384TIP3    H128567   6.190   6.297   0.886  1.2384 -0.2452  0.6729
 2384TIP3    H228568   6.243   6.346   0.753 -0.3353 -0.9491 -0.2210
 2385TIP3   OH228569   6.323   1.571  15.313 -0.0693  0.8056  0.4642
 2385TIP3    H128570   6.412   1.603  15.302 -0.6954  1.9041 -1.7365
 2385TIP3    H228571   6.268   1.650  15.309 -1.2696 -0.0379 -0.0294
 2386TIP3   OH228572   5.934   4.317  12.109  0.3663  0.2335 -0.4730
 2386TIP3    H128573   5.998   4.314  12.037  0.5892  0.2403 -0.2767
 2386TIP3    H228574   5.919   4.410  12.124  1.8123  0.2882  0.7978
 2387TIP3   OH228575   0.821   5.154   2.391  0.1813  0.2657 -0.2519
 2387TIP3    H128576   0.739   5.165   2.437  0.5270 -0.6579  0.5832
 2387TIP3    H228577   0.888   5.163   2.459  0.7367  0.1170 -0.7766
 2388TIP3   OH228578   0.355   4.915  12.401 -0.3897  0.3951  0.0320
 2388TIP3    H128579   0.356   4.986  12.466 -1.4820 -0.0902  0.5982
 2388TIP3    H228580   0.384   4.838  12.449 -2.8516 -0.3383  0.4396
 2389TIP3   OH228581   5.183   6.395  10.729 -0.0866  0.3344 -0.5352
 2389TIP3    H128582   5.142   6.339  10.794  1.5427 -0.3649 -0.0876
 2389TIP3    H228583   5.212   6.335  10.660  1.5425  0.6081 -0.1182
 2390TIP3   OH228584   4.278   5.535  10.858 -0.3078  0.6526  0.7966
 2390TIP3    H128585   4.252   5.444  10.845 -0.9848  1.1430 -1.4742
 2390TIP3    H228586   4.373   5.532  10.868 -0.2334 -0.2006 -0.1709
 2391TIP3   OH228587   6.592   1.766   0.923  0.4953 -0.1137 -0.3628
 2391TIP3    H128588   6.504   1.763   0.960  0.2033  0.9644 -0.9650
 2391TIP3    H228589   6.639   1.828   0.979  0.9084 -0.7518  0.0116
 2392TIP3   OH228590   0.115   3.462   1.031  0.2883  0.0746  0.1893
 2392TIP3    H128591   0.179   3.398   1.063 -0.8714 -1.8844 -1.3126
 2392TIP3    H228592   0.156   3.499   0.953 -0.1289 -0.6941 -0.3934
 2393TIP3   OH228593   0.952   4.337  16.370 -0.0778 -0.1461 -0.2107
 2393TIP3    H128594   0.960   4.384  16.287  0.0828 -1.0148 -0.6928
 2393TIP3    H228595   0.867   4.295  16.366  0.4632 -1.2278 -0.4814
 2394TIP3   OH228596   0.057   4.762  16.668  0.6415 -0.5386  0.2463
 2394TIP3    H128597   0.084   4.805  16.749  1.8419  0.6029 -0.7415
 2394TIP3    H228598   0.137   4.722  16.634  0.2482 -0.5955 -0.6198
 2395TIP3   OH228599   1.097   3.167   3.249  0.5170 -0.4415  0.2797
 2395TIP3    H128600   1.187   3.196   3.235 -0.0684  1.4357  0.2577
 2395TIP3    H228601   1.044   3.232   3.203 -0.8287 -1.9015 -0.2853
 2396TIP3   OH228602   5.047   0.231  14.105 -0.3190  0.0962  0.9469
 2396TIP3    H128603   4.978   0.179  14.147 -0.0405 -1.5261 -0.5394
 2396TIP3    H228604   5.127   0.182  14.121  0.0437  0.3904  0.0628
 2397TIP3   OH228605   6.503   5.520   5.954  0.0876 -0.2788  0.4351
 2397TIP3    H128606   6.525   5.499   5.863  1.5102  0.2570  0.6296
 2397TIP3    H228607   6.451   5.446   5.984  0.4156 -0.9214 -0.5365
 2398TIP3   OH228608   4.837   5.497  12.337 -0.0255  0.5595  0.6114
 2398TIP3    H128609   4.870   5.483  12.248 -2.2859  0.8348 -0.3039
 2398TIP3    H228610   4.747   5.528  12.324 -0.6153 -0.0958  3.0095
 2399TIP3   OH228611   2.909   1.025   2.104  0.0048  0.5856 -0.0893
 2399TIP3    H128612   2.879   0.973   2.178 -2.0360  1.9210  0.0440
 2399TIP3    H228613   2.992   1.062   2.133  0.5350 -1.0362  0.5163
 2400TIP3   OH228614   2.422   0.223  16.032  0.3596 -0.1204 -0.1057
 2400TIP3    H128615   2.510   0.189  16.046  0.4584 -0.5090 -1.5710
 2400TIP3    H228616   2.433   0.318  16.024  0.3855  0.0431  1.5873
 2401TIP3   OH228617   4.589   5.309  16.987 -0.1955  0.2457 -0.5287
 2401TIP3    H128618   4.669   5.357  16.967  0.4122 -0.5276  0.0186
 2401TIP3    H228619   4.523   5.377  17.001  0.5021  0.9031 -0.4353
 2402TIP3   OH228620   0.730   0.910  13.510  0.0563  0.3078  0.2773
 2402TIP3    H128621   0.799   0.843  13.510 -1.0731 -0.9044  1.9380
 2402TIP3    H228622   0.730   0.945  13.598  0.4060  2.3007 -0.5003
 2403TIP3   OH228623   1.939   1.427   2.537 -0.3462 -0.0864  0.0586
 2403TIP3    H128624   1.930   1.420   2.632 -0.9559  1.8720  0.1711
 2403TIP3    H228625   1.849   1.440   2.506 -0.0999 -0.2904 -0.7378
 2404TIP3   OH228626   5.084   3.276  14.834  0.2035  0.6113  0.1416
 2404TIP3    H128627   5.079   3.371  14.847  2.8218  0.8315 -0.1068
 2404TIP3    H228628   5.114   3.242  14.919 -1.3111 -0.0677  0.4102
 2405TIP3   OH228629   5.178   0.359   6.588 -0.6621 -0.0012  0.1757
 2405TIP3    H128630   5.152   0.422   6.656  1.7454  1.5576 -0.2705
 2405TIP3    H228631   5.254   0.314   6.625  0.8561  1.0643 -1.5461
 2406TIP3   OH228632   5.995   5.618  12.954 -0.3357 -0.5675 -0.3176
 2406TIP3    H128633   5.976   5.638  13.045 -0.5459 -0.4436 -0.3865
 2406TIP3    H228634   6.062   5.681  12.928  0.7306 -1.4878  0.1424
 2407TIP3   OH228635   2.197   0.147   2.344 -0.4313 -0.2745  0.6050
 2407TIP3    H128636   2.285   0.116   2.364 -0.2766 -0.7131 -0.7396
 2407TIP3    H228637   2.199   0.240   2.364  0.6034 -0.0958 -0.3272
 2408TIP3   OH228638   2.964   5.629  14.636  0.6893  0.2363  0.9162
 2408TIP3    H128639   3.050   5.608  14.599  0.4795  1.4030 -0.2615
 2408TIP3    H228640   2.982   5.697  14.701  0.3645  2.4114 -1.2093
 2409TIP3   OH228641   5.398   6.488  13.313 -0.0863  0.9622 -0.1626
 2409TIP3    H128642   5.320   6.463  13.362  1.3181  0.4622  1.9183
 2409TIP3    H228643   5.399   6.431  13.237  0.2815 -1.7089  1.7881
 2410TIP3   OH228644   0.652   2.970   4.405 -0.1065 -0.2393  0.4719
 2410TIP3    H128645   0.626   2.926   4.324 -3.2646  3.4167 -0.6462
 2410TIP3    H228646   0.626   2.909   4.475 -0.5286 -1.9517 -1.1462
 2411TIP3   OH228647   3.123   2.621  12.117  0.6696 -0.2165  0.1582
 2411TIP3    H128648   3.168   2.698  12.153  0.8776 -0.5424  0.6007
 2411TIP3    H228649   3.166   2.606  12.032 -0.2379  0.9253 -0.5286
 2412TIP3   OH228650   5.704   5.469   0.986  0.3761  0.2750  0.9610
 2412TIP3    H128651   5.740   5.380   0.985 -0.2619  0.0180 -1.2192
 2412TIP3    H228652   5.780   5.526   0.980  0.6974 -0.1486  0.9663
 2413TIP3   OH228653   3.483   0.364   5.256  0.1627  0.5789 -1.0540
 2413TIP3    H128654   3.474   0.408   5.341 -1.0316  1.0517 -1.4063
 2413TIP3    H228655   3.395   0.331   5.238  1.2034 -2.7103 -0.4141
 2414TIP3   OH228656   6.355   2.941   3.686 -0.7570  0.1296  0.0077
 2414TIP3    H128657   6.302   3.020   3.681 -3.4500 -1.5803  0.5033
 2414TIP3    H228658   6.355   2.905   3.597  0.2231  0.5203 -0.1567
 2415TIP3   OH228659   6.273   2.519   1.548 -0.1108 -0.3277 -0.0269
 2415TIP3    H128660   6.192   2.493   1.592  0.5043  0.7538  1.7953
 2415TIP3    H228661   6.343   2.487   1.606  0.7185  0.9139 -0.3316
 2416TIP3   OH228662   3.128   3.080  16.645 -0.3016  0.6244 -0.3350
 2416TIP3    H128663   3.185   3.007  16.626 -0.5359  0.2695  0.2964
 2416TIP3    H228664   3.170   3.156  16.605  1.1039  0.5375  0.9263
 2417TIP3   OH228665   2.843   3.663  10.615  0.1630  0.1295  0.1069
 2417TIP3    H128666   2.829   3.720  10.540  0.2927  0.4227  0.3017
 2417TIP3    H228667   2.934   3.681  10.642  0.3228 -0.4267 -0.0472
 2418TIP3   OH228668   3.553   6.058  13.451  0.1921 -0.2867  0.0101
 2418TIP3    H128669   3.612   5.984  13.434  1.6599  0.4163  1.8476
 2418TIP3    H228670   3.587   6.130  13.399  1.0231  0.1371  1.1188
 2419TIP3   OH228671   2.826   1.080  11.897  0.0683  0.1293 -0.7542
 2419TIP3    H128672   2.738   1.064  11.931  0.7689  0.1865  1.1616
 2419TIP3    H228673   2.840   1.011  11.832 -0.7793 -0.8621  0.1023
 2420TIP3   OH228674   3.282   2.952  15.843  0.2805  0.4666 -0.3680
 2420TIP3    H128675   3.251   2.941  15.933  0.8416  1.2494 -0.0740
 2420TIP3    H228676   3.214   3.005  15.800 -0.0171  0.0411 -0.4283
 2421TIP3   OH228677   2.618   2.625  15.003  0.0537  0.1693  0.1674
 2421TIP3    H128678   2.683   2.582  15.059 -0.6241  0.5265  1.2618
 2421TIP3    H228679   2.613   2.714  15.038  0.1803  0.6283 -0.9750
 2422TIP3   OH228680   4.907   2.430  11.747 -0.4244  0.1041 -0.4172
 2422TIP3    H128681   4.930   2.509  11.699 -0.8837 -0.1949 -1.1314
 2422TIP3    H228682   4.838   2.389  11.695 -0.5439 -0.5059  0.2089
 2423TIP3   OH228683   2.551   5.195  15.565 -0.6623 -0.4527 -0.4500
 2423TIP3    H128684   2.642   5.224  15.562 -0.3082 -1.6191 -1.8006
 2423TIP3    H228685   2.510   5.250  15.632  1.2460 -0.5298  0.8225
 2424TIP3   OH228686   2.912   5.729   0.401  0.0649  0.2261 -0.0606
 2424TIP3    H128687   2.964   5.682   0.467 -1.1204  0.2207  0.8726
 2424TIP3    H228688   2.901   5.817   0.438 -1.2843 -0.0178  0.1200
 2425TIP3   OH228689   4.150   3.814  11.635  0.0093  0.2743  0.2227
 2425TIP3    H128690   4.245   3.802  11.632 -0.0049  0.4531 -1.4509
 2425TIP3    H228691   4.114   3.727  11.614 -0.1720  0.5828 -0.7773
 2426TIP3   OH228692   5.138   5.323  10.930 -0.0472 -0.4625 -0.5373
 2426TIP3    H128693   5.181   5.240  10.949 -0.4568 -0.4777  0.3502
 2426TIP3    H228694   5.207   5.380  10.897  0.2528 -1.1274 -1.0540
 2427TIP3   OH228695   3.586   0.983  11.351  0.5076 -0.0256  0.5765
 2427TIP3    H128696   3.660   0.930  11.323 -1.5073 -2.8456  0.4001
 2427TIP3    H228697   3.520   0.970  11.282 -1.0687  0.4408  1.9657
 2428TIP3   OH228698   2.785   2.211  15.298 -0.0983  0.1564  0.0947
 2428TIP3    H128699   2.846   2.226  15.370 -2.2011  3.1978  1.3386
 2428TIP3    H228700   2.711   2.166  15.339 -0.3102 -0.2007 -0.6746
 2429TIP3   OH228701   1.805   5.772   4.042 -0.4719 -0.0434 -0.4692
 2429TIP3    H128702   1.784   5.862   4.068  0.2523  0.0513 -0.1739
 2429TIP3    H228703   1.824   5.777   3.949 -0.7495  0.0567 -0.5189
 2430TIP3   OH228704   6.641   5.577   1.193 -0.1568 -0.1013  0.1735
 2430TIP3    H128705   6.584   5.501   1.193 -2.0066  1.2353 -0.6706
 2430TIP3    H228706   6.590   5.645   1.237  0.7118  1.1521 -0.7015
 2431TIP3   OH228707   2.305   1.516  15.152 -0.0218  0.0374  0.2769
 2431TIP3    H128708   2.314   1.599  15.199  1.2488 -0.2559  0.5846
 2431TIP3    H228709   2.364   1.456  15.198 -1.6143 -1.2878  0.6133
 2432TIP3   OH228710   0.820   1.134  15.003  0.0709 -0.3904  0.2759
 2432TIP3    H128711   0.856   1.188  14.932 -0.2726  0.2284  0.5679
 2432TIP3    H228712   0.893   1.078  15.030  0.5370  0.1786  0.2047
 2433TIP3   OH228713   1.124   3.991  10.984  0.5700  0.1764 -0.3036
 2433TIP3    H128714   1.107   4.039  11.065  1.4537  1.6016 -0.9433
 2433TIP3    H228715   1.176   4.051  10.931 -0.8411 -0.3454 -2.3398
 2434TIP3   OH228716   2.829   0.661  14.659  0.3214  0.0691 -0.6199
 2434TIP3    H128717   2.880   0.592  14.616  0.4838 -1.6456  2.2093
 2434TIP3    H228718   2.895   0.715  14.703 -0.0300  0.2766 -0.3486
 2435TIP3   OH228719   4.292   1.536  10.940  0.7324 -0.4918 -0.5854
 2435TIP3    H128720   4.236   1.598  10.892 -1.0876  1.1199  3.3548
 2435TIP3    H228721   4.376   1.580  10.947 -0.5304  1.6975  2.1354
 2436TIP3   OH228722   5.316   1.058  13.360  0.1080 -0.2772 -0.4284
 2436TIP3    H128723   5.409   1.077  13.374 -0.2474  0.8890  0.4332
 2436TIP3    H228724   5.275   1.144  13.355 -0.7840 -0.7764 -1.8845
 2437TIP3   OH228725   3.532   6.491   0.129 -0.5960 -0.2047 -0.1405
 2437TIP3    H128726   3.447   6.481   0.087  1.1472 -0.2646 -3.8522
 2437TIP3    H228727   3.559   6.580   0.106  2.0982 -1.5751 -2.5626
 2438TIP3   OH228728   0.384   2.724   0.742  0.0155  0.0201  0.1165
 2438TIP3    H128729   0.344   2.727   0.829 -2.6663 -0.1715 -1.0675
 2438TIP3    H228730   0.355   2.804   0.699 -0.3216 -0.8506 -1.3085
 2439TIP3   OH228731   5.120   0.429  13.269 -0.5539 -0.0711 -0.3238
 2439TIP3    H128732   5.068   0.509  13.277  1.3730  1.3932 -1.9090
 2439TIP3    H228733   5.113   0.404  13.177  1.5228  0.1513 -0.5654
 2440TIP3   OH228734   6.017   2.209  14.200  0.0624  0.0268  0.0291
 2440TIP3    H128735   6.069   2.213  14.120  2.0143  1.0119  1.3238
 2440TIP3    H228736   5.980   2.297  14.210 -1.7302 -0.6040 -0.7659
 2441TIP3   OH228737   1.606   6.590   2.863 -0.3631 -0.5394  0.2730
 2441TIP3    H128738   1.542   6.641   2.812  2.8013  1.3799 -1.9668
 2441TIP3    H228739   1.609   6.633   2.948  2.5717  3.5528 -1.7098
 2442TIP3   OH228740   2.733   2.582  11.441  0.3544 -0.3880 -0.2066
 2442TIP3    H128741   2.764   2.670  11.463  1.6497 -1.2712  1.6628
 2442TIP3    H228742   2.637   2.588  11.445  0.4358  0.9367 -0.1499
 2443TIP3   OH228743   0.937   2.782   5.740  0.2529 -0.3319 -0.6769
 2443TIP3    H128744   1.002   2.762   5.807 -0.3599  0.1204  0.0617
 2443TIP3    H228745   0.898   2.698   5.717  0.8353 -0.5570 -0.8627
 2444TIP3   OH228746   0.607   2.977   1.310  0.1661  0.4348 -0.0328
 2444TIP3    H128747   0.629   2.886   1.330 -2.4367 -0.3910 -0.7771
 2444TIP3    H228748   0.638   3.027   1.386  1.0130 -1.1380  0.6764
 2445TIP3   OH228749   0.809   5.528   0.659 -0.1386 -0.1436  0.5515
 2445TIP3    H128750   0.836   5.620   0.654  0.0695 -0.1606  1.2948
 2445TIP3    H228751   0.714   5.530   0.649 -0.2281  0.2357  1.4026
 2446TIP3   OH228752   0.915   5.920  11.232  0.6056 -0.2631 -0.3856
 2446TIP3    H128753   0.936   6.013  11.240  0.2936 -0.1886 -0.4263
 2446TIP3    H228754   0.819   5.917  11.232  0.6129 -0.5194 -1.1467
 2447TIP3   OH228755   6.418   2.785  12.936  0.3929  0.2764  0.0024
 2447TIP3    H128756   6.464   2.722  12.991  0.0220 -0.6285 -0.6972
 2447TIP3    H228757   6.390   2.854  12.996  1.9236  0.4150  0.5663
 2448TIP3   OH228758   1.200   3.038  15.888  0.4055 -0.2952 -0.0121
 2448TIP3    H128759   1.212   2.974  15.959 -1.8940 -0.2903  0.4210
 2448TIP3    H228760   1.185   2.984  15.810 -2.0428 -0.3095  0.4471
 2449TIP3   OH228761   2.489   2.764  13.059 -0.4616 -0.1415 -0.0449
 2449TIP3    H128762   2.491   2.820  13.137 -1.6677  0.9189 -0.7538
 2449TIP3    H228763   2.471   2.676  13.093 -1.3797  0.3841  0.8423
 2450TIP3   OH228764   6.510   0.121  15.092 -0.0445  0.2720  0.2965
 2450TIP3    H128765   6.416   0.140  15.093 -0.5459 -2.1255  1.1655
 2450TIP3    H228766   6.522   0.063  15.016  0.7583  0.7093  0.0846
 2451TIP3   OH228767   2.112   5.842   3.248 -0.4306 -0.4795 -0.2632
 2451TIP3    H128768   2.019   5.864   3.242 -0.0767  0.7077 -1.4394
 2451TIP3    H228769   2.126   5.780   3.177 -0.6290 -1.7981  0.8240
 2452TIP3   OH228770   4.685   5.710  13.240  0.4438  0.6725 -0.4579
 2452TIP3    H128771   4.749   5.756  13.186  0.8421 -1.0235 -1.4624
 2452TIP3    H228772   4.606   5.708  13.185 -0.2974  2.1535  0.5049
 2453TIP3   OH228773   4.357   0.114  14.693  0.3447 -0.2000 -0.1324
 2453TIP3    H128774   4.421   0.045  14.672  2.3529  0.9798  1.8292
 2453TIP3    H228775   4.383   0.188  14.639  1.2438  0.5680  1.2991
 2454TIP3   OH228776   4.899   6.510   1.994 -0.0598 -0.0445 -0.4420
 2454TIP3    H128777   4.843   6.457   1.938 -0.5294 -1.5959  1.4237
 2454TIP3    H228778   4.839   6.544   2.061  0.9031 -0.2101  0.5136
 2455TIP3   OH228779   4.902   1.659   4.945  0.3247 -0.6792  0.2784
 2455TIP3    H128780   4.888   1.571   4.980 -0.5625 -0.8481 -0.4764
 2455TIP3    H228781   4.992   1.657   4.912  0.9078 -0.7502  1.8368
 2456TIP3   OH228782   0.039   5.259  11.360  0.4367  0.7380 -0.5634
 2456TIP3    H128783  -0.025   5.223  11.421  1.3009  0.9128  0.4646
 2456TIP3    H228784   0.007   5.234  11.274 -0.7980  0.4799 -0.0387
 2457TIP3   OH228785   3.965   1.451   1.180  0.4631  0.2645  0.4418
 2457TIP3    H128786   3.881   1.419   1.214  0.4115  0.7634  0.7793
 2457TIP3    H228787   3.981   1.532   1.228  1.3390 -0.0383  0.6732
 2458TIP3   OH228788   0.624   1.374   3.010  0.5518 -0.5363  0.2757
 2458TIP3    H128789   0.585   1.361   3.096  3.1210 -1.2339  1.3860
 2458TIP3    H228790   0.704   1.422   3.027  0.5937  0.1938 -1.8568
 2459TIP3   OH228791   0.891   3.134   1.202  0.1216  0.0538  0.6224
 2459TIP3    H128792   0.845   3.153   1.283 -0.3124 -0.4523  0.5010
 2459TIP3    H228793   0.837   3.173   1.133  0.1367 -0.1055  0.5193
 2460TIP3   OH228794   4.746   0.192  15.035 -0.2927  0.2928  0.6663
 2460TIP3    H128795   4.745   0.151  15.121 -0.4271  0.3228  0.6788
 2460TIP3    H228796   4.658   0.227  15.023  0.2283  1.8868  1.2920
 2461TIP3   OH228797   3.621   6.058   6.034 -0.2285  0.1982  0.3859
 2461TIP3    H128798   3.600   6.130   6.094 -1.2204  0.3804 -0.1706
 2461TIP3    H228799   3.564   6.072   5.959 -0.1815 -0.9710  0.1233
 2462TIP3   OH228800   6.033   5.924   0.150 -0.0329  0.0090  0.1230
 2462TIP3    H128801   6.015   6.010   0.189  1.9582  0.4379  0.1563
 2462TIP3    H228802   6.054   5.868   0.225  0.9214  0.0865 -0.0816
 2463TIP3   OH228803   4.753   5.271   4.066  0.5193 -0.2350  0.3203
 2463TIP3    H128804   4.710   5.199   4.021 -1.4609 -0.2188  2.1130
 2463TIP3    H228805   4.720   5.350   4.023  0.6585 -0.3065  0.0823
 2464TIP3   OH228806   2.529   2.684  13.935 -0.0821  0.3145 -0.2756
 2464TIP3    H128807   2.442   2.685  13.977  0.9083  0.7148  1.8278
 2464TIP3    H228808   2.583   2.630  13.992  1.2357  0.6007 -1.2264
 2465TIP3   OH228809   5.323   4.615  16.112 -0.2482  1.3202 -0.0722
 2465TIP3    H128810   5.260   4.684  16.091  2.2030  3.5566 -0.3873
 2465TIP3    H228811   5.356   4.586  16.027 -2.3750 -1.3891 -0.0272
 2466TIP3   OH228812   2.263   6.436  15.090  0.3970  0.0989  0.6311
 2466TIP3    H128813   2.295   6.526  15.093  1.6258 -0.2002 -2.2543
 2466TIP3    H228814   2.188   6.439  15.031 -0.1039 -0.6185  1.2264
 2467TIP3   OH228815   0.828   6.241   0.548 -0.3358 -0.3170  0.3941
 2467TIP3    H128816   0.797   6.156   0.579 -0.2926 -1.2643 -2.0756
 2467TIP3    H228817   0.891   6.220   0.479  1.4858  1.6917  1.3844
 2468TIP3   OH228818   1.887   4.386   5.593 -0.8689  0.6525 -0.8122
 2468TIP3    H128819   1.830   4.345   5.528 -0.2126  0.8676 -1.5240
 2468TIP3    H228820   1.971   4.343   5.582 -0.3701  1.6795 -1.0778
 2469TIP3   OH228821   2.852   6.621  13.176 -0.5216 -0.5342 -0.6965
 2469TIP3    H128822   2.776   6.679  13.168  0.2642  0.5584 -0.4251
 2469TIP3    H228823   2.886   6.612  13.087 -1.7041 -2.0394 -0.9992
 2470TIP3   OH228824   5.732   6.365  16.409 -0.6716 -0.0485 -0.1812
 2470TIP3    H128825   5.743   6.271  16.400 -1.2923 -0.4721  2.9003
 2470TIP3    H228826   5.706   6.395  16.321  1.7751 -2.3537 -1.7660
 2471TIP3   OH228827   5.728   4.100   5.786 -0.1003  0.0449 -0.3748
 2471TIP3    H128828   5.737   4.157   5.862 -0.2233 -0.8057  0.2735
 2471TIP3    H228829   5.818   4.077   5.762 -0.0263  0.8649 -0.9152
 2472TIP3   OH228830   5.925   1.045   6.088  0.1666  0.3035 -0.2806
 2472TIP3    H128831   5.940   0.984   6.160 -0.1895  0.4652 -0.0715
 2472TIP3    H228832   5.852   1.100   6.117  2.0681  2.4517  0.5804
 2473TIP3   OH228833   0.857   5.008   0.006  0.1282  0.8340 -0.0431
 2473TIP3    H128834   0.845   5.102  -0.008 -0.7267  0.5637 -1.1546
 2473TIP3    H228835   0.769   4.976   0.029  0.0371 -0.0103 -1.5369
 2474TIP3   OH228836   5.530   3.751  16.152 -0.6582 -0.2820 -0.0837
 2474TIP3    H128837   5.616   3.709  16.155 -0.1790  0.6091 -0.9570
 2474TIP3    H228838   5.541   3.832  16.202 -1.1110 -0.3707  0.1628
 2475TIP3   OH228839   0.126   4.906   1.430 -0.0888 -0.0477  0.6935
 2475TIP3    H128840   0.080   4.830   1.396  1.2821 -0.5651 -0.0201
 2475TIP3    H228841   0.181   4.936   1.357  0.7556  0.5210  1.5554
 2476TIP3   OH228842   1.900   2.684   5.606 -0.4111  0.0904 -0.1133
 2476TIP3    H128843   1.975   2.703   5.549 -0.0415  0.1299  0.3842
 2476TIP3    H228844   1.925   2.603   5.651 -1.6216 -1.1469 -1.6091
 2477TIP3   OH228845   5.915   2.581  15.666  0.0076  0.2014 -0.0325
 2477TIP3    H128846   5.936   2.640  15.737 -0.3439  1.1606 -0.7187
 2477TIP3    H228847   5.853   2.630  15.611 -0.2967 -0.7966 -0.5984
 2478TIP3   OH228848   0.226   5.843  13.456  0.2952  0.0221  0.0111
 2478TIP3    H128849   0.306   5.811  13.414  1.2042 -0.7573  2.2471
 2478TIP3    H228850   0.187   5.765  13.496 -0.1180  0.8391  1.2489
 2479TIP3   OH228851   3.048   0.305  15.575 -0.3842  0.0003  0.2799
 2479TIP3    H128852   2.983   0.372  15.598 -0.7157 -0.7249  1.5025
 2479TIP3    H228853   3.132   0.349  15.582 -0.6005  0.2922  1.1046
 2480TIP3   OH228854   6.280   2.034   3.650 -0.4061 -0.5971  0.3873
 2480TIP3    H128855   6.370   2.001   3.647  0.3553  1.2498  1.5014
 2480TIP3    H228856   6.235   1.976   3.711  0.9450  0.4490  2.4494
 2481TIP3   OH228857   3.101   4.752  14.508  0.5021 -0.0338  0.2045
 2481TIP3    H128858   3.018   4.749  14.555  0.8533  0.5820  0.8683
 2481TIP3    H228859   3.161   4.699  14.561  0.4495 -0.7448 -0.4410
 2482TIP3   OH228860   2.275   0.296   3.746  0.2619 -0.6783 -0.4288
 2482TIP3    H128861   2.201   0.236   3.729  1.0841 -1.5717 -0.9150
 2482TIP3    H228862   2.306   0.271   3.833 -2.1142  1.9616  1.2639
 2483TIP3   OH228863   3.032   4.120  15.081  0.1205 -0.6823 -0.0052
 2483TIP3    H128864   3.089   4.058  15.127  1.7398 -0.1197 -1.1789
 2483TIP3    H228865   2.984   4.166  15.150 -0.3926 -2.5669  0.9085
 2484TIP3   OH228866   4.155   1.561  17.104 -0.0354  0.2366 -0.0371
 2484TIP3    H128867   4.190   1.478  17.072  2.0040  0.3832  1.7240
 2484TIP3    H228868   4.137   1.545  17.197  3.0667  2.5498  1.0433
 2485TIP3   OH228869   4.243   3.612  12.018  0.1354 -0.2650 -0.4400
 2485TIP3    H128870   4.161   3.623  12.066  0.2555 -0.5174 -0.1746
 2485TIP3    H228871   4.311   3.632  12.082  0.2918 -0.4673 -0.5432
 2486TIP3   OH228872   5.168   3.324   0.461  0.0347  0.1952 -0.6967
 2486TIP3    H128873   5.186   3.231   0.472  0.2887  0.5367  2.2071
 2486TIP3    H228874   5.072   3.330   0.460 -0.0366  0.1445  2.0303
 2487TIP3   OH228875   4.234   0.200  12.125 -0.3213  0.2915 -0.1417
 2487TIP3    H128876   4.215   0.293  12.139 -1.3569  0.2856 -1.4248
 2487TIP3    H228877   4.302   0.199  12.058 -0.7199  0.1080 -0.5443
 2488TIP3   OH228878   0.981   5.897  12.946  0.0365  0.3365 -0.0187
 2488TIP3    H128879   0.940   5.891  12.860  0.3733 -0.3413 -0.1387
 2488TIP3    H228880   0.986   5.991  12.965  0.2216  0.4992 -0.8642
 2489TIP3   OH228881   6.066   1.331   1.036  0.2198  0.2126 -0.0546
 2489TIP3    H128882   5.975   1.320   1.062  0.9380 -0.6772  2.2002
 2489TIP3    H228883   6.068   1.309   0.943 -2.5094  3.7465 -1.0821
 2490TIP3   OH228884   4.540   3.466  14.251 -0.5413  0.0415 -0.0655
 2490TIP3    H128885   4.546   3.395  14.188 -1.8133 -0.6876  0.6023
 2490TIP3    H228886   4.454   3.454  14.292 -2.1819  3.7474 -2.0829
 2491TIP3   OH228887   2.222   5.785   2.752  0.9574 -0.1944 -0.3076
 2491TIP3    H128888   2.168   5.778   2.830  0.3359 -0.9168 -0.7996
 2491TIP3    H228889   2.252   5.876   2.751  0.2828  0.0323  0.3083
 2492TIP3   OH228890   4.293   0.903   1.055 -0.1954 -0.1316 -0.0180
 2492TIP3    H128891   4.379   0.900   1.098 -0.1839 -1.8643 -0.1321
 2492TIP3    H228892   4.234   0.936   1.123  0.2210 -0.7735  0.6723
 2493TIP3   OH228893   0.358   6.397   2.761  0.2560 -0.1318  0.3588
 2493TIP3    H128894   0.337   6.482   2.799 -0.6948 -0.8032  1.3326
 2493TIP3    H228895   0.352   6.335   2.833  1.4232 -0.9631 -0.2441
 2494TIP3   OH228896   4.390   2.115  10.433 -0.2212  0.3071  0.9372
 2494TIP3    H128897   4.328   2.076  10.371 -0.3711  1.0468  0.6256
 2494TIP3    H228898   4.435   2.039  10.471  0.9097 -0.1303 -1.1501
 2495TIP3   OH228899   6.060   4.675  15.145  0.4582  0.1993 -0.1310
 2495TIP3    H128900   6.151   4.687  15.171  1.0710  0.1284 -2.1991
 2495TIP3    H228901   6.015   4.649  15.226  2.1484  0.7948  1.0146
 2496TIP3   OH228902   2.227   0.508  11.744  0.3812 -0.2875 -0.7286
 2496TIP3    H128903   2.266   0.528  11.829 -0.9291  0.8976 -0.3928
 2496TIP3    H228904   2.146   0.462  11.765 -0.7604  1.4382 -1.2805
 2497TIP3   OH228905   3.864   0.043  13.074  0.4293  0.5072  0.0558
 2497TIP3    H128906   3.858  -0.052  13.073  1.3556  0.4148  1.5450
 2497TIP3    H228907   3.856   0.067  13.167  1.2705  1.7902 -0.1804
 2498TIP3   OH228908   6.152   5.615   2.387  0.5534  0.0518  0.5106
 2498TIP3    H128909   6.082   5.631   2.450 -0.9193  0.1640 -1.1231
 2498TIP3    H228910   6.154   5.519   2.376  0.1427  0.0993 -0.0027
 2499TIP3   OH228911   0.204   3.197  16.972 -0.2232 -0.6867 -0.3587
 2499TIP3    H128912   0.142   3.269  16.957  0.8789  0.6328  1.2947
 2499TIP3    H228913   0.177   3.159  17.056 -0.0698 -1.4601 -0.6546
 2500TIP3   OH228914   5.771   4.257  13.061 -0.7210 -0.0901  0.2587
 2500TIP3    H128915   5.743   4.184  13.007 -2.8255  0.9781 -0.1387
 2500TIP3    H228916   5.792   4.326  12.998  0.0076  0.0691  0.6773
 2501TIP3   OH228917   5.400   4.466  12.886  0.5554 -0.1816 -0.0732
 2501TIP3    H128918   5.454   4.416  12.825 -1.0405 -0.9191 -0.8905
 2501TIP3    H228919   5.380   4.547  12.840 -0.0871 -0.4515 -0.2767
 2502TIP3   OH228920   3.579   1.039  13.698  0.2438  0.3510 -0.8218
 2502TIP3    H128921   3.653   1.100  13.689 -0.3108  0.8130 -2.4560
 2502TIP3    H228922   3.554   1.019  13.608 -0.6533 -1.0071 -0.2861
 2503TIP3   OH228923   1.987   1.713   4.656 -0.4669 -0.4772  0.4581
 2503TIP3    H128924   1.950   1.675   4.576 -1.5169  0.2914  0.5654
 2503TIP3    H228925   2.043   1.644   4.692  0.4899 -0.6155 -1.2424
 2504TIP3   OH228926   4.064   4.602  15.394 -0.1502 -0.2364 -0.0218
 2504TIP3    H128927   4.033   4.693  15.392  2.4389  0.6780 -0.5593
 2504TIP3    H228928   4.056   4.576  15.486  0.7302  1.1363  0.4561
 2505TIP3   OH228929   3.304   0.317   6.187  0.8795  0.0639 -0.5679
 2505TIP3    H128930   3.279   0.409   6.182 -0.8253 -0.2013  2.0446
 2505TIP3    H228931   3.393   0.317   6.221  0.8452  0.7275 -0.4774
 2506TIP3   OH228932   3.194   3.973  10.631  0.2048  0.3800  0.6322
 2506TIP3    H128933   3.180   4.055  10.584  0.0323 -0.2878 -0.4771
 2506TIP3    H228934   3.143   3.983  10.712 -0.1287  1.1988  0.3226
 2507TIP3   OH228935   0.619   0.588  12.306  0.1812  0.5861  0.0246
 2507TIP3    H128936   0.666   0.523  12.254  0.8596  1.3403 -0.3235
 2507TIP3    H228937   0.528   0.577  12.281  0.4744  0.8039 -1.1983
 2508TIP3   OH228938   2.119   1.291  15.360 -0.3235 -0.4533  0.0654
 2508TIP3    H128939   2.187   1.357  15.370 -1.4171  0.8081 -0.7286
 2508TIP3    H228940   2.116   1.273  15.266 -0.6554 -0.9685  0.1698
 2509TIP3   OH228941   1.494   2.487  12.873 -0.9537  0.1601 -0.7726
 2509TIP3    H128942   1.512   2.575  12.841  1.3008  0.8951  2.3314
 2509TIP3    H228943   1.427   2.498  12.940 -0.3872 -0.4395 -0.0993
 2510TIP3   OH228944   1.253   0.269  11.754  0.0204 -0.4596 -1.0041
 2510TIP3    H128945   1.298   0.353  11.758 -0.4942 -0.2356  0.6146
 2510TIP3    H228946   1.273   0.228  11.838 -0.9726 -1.3065 -1.1735
 2511TIP3   OH228947   4.682   6.136  16.459 -0.2390  1.1998  0.1961
 2511TIP3    H128948   4.664   6.140  16.366 -2.3261  1.1033  0.5772
 2511TIP3    H228949   4.638   6.213  16.496 -0.7731  0.3898  1.2917
 2512TIP3   OH228950   1.985   2.259   2.159  0.1296 -0.0494 -0.1530
 2512TIP3    H128951   1.994   2.192   2.226  0.1795 -0.9086 -1.0182
 2512TIP3    H228952   1.960   2.212   2.079  2.0923  0.7052 -1.2600
 2513TIP3   OH228953   3.102   5.222  15.041 -0.4172 -0.5758  0.3593
 2513TIP3    H128954   3.174   5.159  15.050 -0.9497 -1.2398  0.0151
 2513TIP3    H228955   3.024   5.168  15.031 -0.6249  0.1356 -2.0741
 2514TIP3   OH228956   0.883   3.221  16.201 -0.0523  0.0542 -0.1509
 2514TIP3    H128957   0.800   3.224  16.153  0.2724 -1.2216 -0.7982
 2514TIP3    H228958   0.908   3.129  16.201 -0.3774 -0.0598  3.0630
 2515TIP3   OH228959   0.161   0.880   5.307  0.1438  0.0254  0.5087
 2515TIP3    H128960   0.204   0.931   5.238  1.1087 -0.7096  0.5581
 2515TIP3    H228961   0.104   0.943   5.352 -0.2867  0.5593 -0.7888
 2516TIP3   OH228962   5.723   5.542  14.040 -0.5905 -0.4643  0.3362
 2516TIP3    H128963   5.645   5.514  13.993 -1.9457  0.5460  1.9147
 2516TIP3    H228964   5.730   5.482  14.114 -0.4257  0.0539  0.7428
 2517TIP3   OH228965   0.144   2.035   0.472  0.1630 -0.2854 -0.3862
 2517TIP3    H128966   0.217   1.998   0.420 -0.8540  0.1560 -2.1644
 2517TIP3    H228967   0.071   2.040   0.410 -0.6561  1.6687  0.7095
 2518TIP3   OH228968   0.025   2.416   6.605  0.1212 -0.2738 -0.5999
 2518TIP3    H128969   0.078   2.471   6.548  2.0645 -0.4287  1.0095
 2518TIP3    H228970  -0.064   2.428   6.573  0.5310  3.5155 -0.5121
 2519TIP3   OH228971   1.316   4.134  16.834  0.3972 -0.2573  0.1184
 2519TIP3    H128972   1.370   4.064  16.798 -0.2086 -0.5525 -0.2150
 2519TIP3    H228973   1.373   4.212  16.832  1.3410 -0.8904  1.2094
 2520TIP3   OH228974   4.928   0.227  13.283 -0.3805  0.2740 -0.2763
 2520TIP3    H128975   4.972   0.194  13.361 -3.8481 -0.4623  1.4630
 2520TIP3    H228976   4.974   0.309  13.263  1.8845 -0.5514  1.2907
 2521TIP3   OH228977   3.225   5.550  15.403 -0.2110 -0.0924 -0.0500
 2521TIP3    H128978   3.191   5.476  15.452  0.8655  1.3753  3.0241
 2521TIP3    H228979   3.272   5.510  15.330 -4.0764 -2.2384 -1.4910
 2522TIP3   OH228980   4.104   1.661  16.806 -0.2980 -0.3396 -0.2863
 2522TIP3    H128981   4.127   1.751  16.829 -0.2764 -0.4828  0.2784
 2522TIP3    H228982   4.072   1.665  16.716 -1.3535  0.3939  0.1282
 2523TIP3   OH228983   2.824   5.872  16.746  0.1411  0.2946 -0.3141
 2523TIP3    H128984   2.887   5.940  16.768 -1.1126  1.1309  0.7677
 2523TIP3    H228985   2.784   5.849  16.830 -2.0413  0.8540 -1.1776
 2524TIP3   OH228986   1.883   0.232   6.097  0.1705 -0.2955  1.0424
 2524TIP3    H128987   1.837   0.154   6.127 -0.9254  0.6365  1.8379
 2524TIP3    H228988   1.840   0.254   6.013 -0.9131  0.6050  1.8112
 2525TIP3   OH228989   2.867   6.558   6.332 -0.1313 -0.4738  0.1164
 2525TIP3    H128990   2.798   6.578   6.268  0.1067  0.3800  0.1130
 2525TIP3    H228991   2.935   6.623   6.314  0.3994 -0.9093  0.5380
 2526TIP3   OH228992   2.037   2.734  17.093  0.0426  0.2400 -0.2891
 2526TIP3    H128993   1.976   2.667  17.124 -0.5280  1.1164  0.5087
 2526TIP3    H228994   2.100   2.686  17.038  0.9694 -1.3172  2.0660
 2527TIP3   OH228995   2.993   2.820   3.401 -0.0573  0.5075  0.6226
 2527TIP3    H128996   2.964   2.782   3.318  2.0257 -0.0969  0.1384
 2527TIP3    H228997   2.983   2.750   3.465  0.6484  0.1944  0.3905
 2528TIP3   OH228998   1.046   3.376  14.089  0.7604  0.5488 -0.0165
 2528TIP3    H128999   1.083   3.319  14.155  0.2033 -2.7179 -2.4080
 2528TIP3    H229000   1.116   3.386  14.024 -0.2722 -0.1934 -1.2639
 2529TIP3   OH229001   3.024   1.843   2.822 -0.2725 -0.4458  0.4487
 2529TIP3    H129002   3.098   1.791   2.790 -2.1244 -3.2718  0.5498
 2529TIP3    H229003   3.043   1.856   2.915  0.7090 -0.0422  0.2025
 2530TIP3   OH229004   6.385   3.189  12.761  0.0163  0.4924  0.3164
 2530TIP3    H129005   6.371   3.282  12.776  0.6554  0.5508  0.5719
 2530TIP3    H229006   6.476   3.174  12.786 -0.9611 -0.8114  3.4032
 2531TIP3   OH229007   0.977   6.042   5.907 -0.0845  0.5841  0.0538
 2531TIP3    H129008   1.029   6.029   5.986 -3.3561  0.1275  2.2491
 2531TIP3    H229009   1.014   5.981   5.843 -0.2432 -2.4915  2.7373
 2532TIP3   OH229010   1.015   3.610   2.281 -0.3151 -0.2528  0.1469
 2532TIP3    H129011   1.078   3.540   2.298  0.1549  0.5140  1.6765
 2532TIP3    H229012   1.067   3.690   2.288 -1.4290  0.3876  1.3746
 2533TIP3   OH229013   1.184   0.520   5.218 -0.0740 -0.0665  0.0116
 2533TIP3    H129014   1.106   0.529   5.162 -0.0138  1.6982  0.1698
 2533TIP3    H229015   1.247   0.581   5.180  0.1090  0.8507  1.7635
 2534TIP3   OH229016   3.974   4.997   0.264 -0.1863  0.1452  0.2879
 2534TIP3    H129017   4.058   5.037   0.242 -0.9000  0.9477 -1.0655
 2534TIP3    H229018   3.910   5.047   0.214 -1.2141 -2.0750 -0.6831
 2535TIP3   OH229019   4.548   3.770  17.096  0.4716 -0.7252  0.0057
 2535TIP3    H129020   4.575   3.854  17.059 -1.4757 -0.6384 -1.3022
 2535TIP3    H229021   4.576   3.774  17.188  0.2592  1.4208  0.0083
 2536TIP3   OH229022   4.022   5.933   1.127  0.0969  0.3727  0.1646
 2536TIP3    H129023   4.101   5.977   1.158 -1.0497  2.2555  0.4635
 2536TIP3    H229024   3.968   6.003   1.090 -2.1430 -0.6355  1.4628
 2537TIP3   OH229025   0.064   2.030   6.191  0.4123 -0.5428  0.2907
 2537TIP3    H129026   0.157   2.027   6.213  0.3883  0.0613  0.4613
 2537TIP3    H229027   0.033   2.114   6.224  0.0433 -0.2786 -0.6959
 2538TIP3   OH229028   0.634   2.870   2.656  0.0072 -0.1104  0.1165
 2538TIP3    H129029   0.707   2.813   2.680  0.8836  1.9159  2.5571
 2538TIP3    H229030   0.669   2.959   2.665 -1.5202  0.8859 -2.8806
 2539TIP3   OH229031   4.088   1.452   2.642  0.5133 -0.6236 -0.6264
 2539TIP3    H129032   4.156   1.458   2.575  0.0682  0.0351 -1.0237
 2539TIP3    H229033   4.136   1.439   2.724  1.1295  0.0631 -0.8746
 2540TIP3   OH229034   0.039   5.703  14.008  0.4369 -0.0694 -0.0912
 2540TIP3    H129035   0.130   5.697  13.979  0.3620  0.4821 -0.4438
 2540TIP3    H229036  -0.011   5.660  13.938  0.4177 -0.3124  0.0715
 2541TIP3   OH229037   3.116   6.085   3.653  0.1987 -0.0578  0.4741
 2541TIP3    H129038   3.047   6.091   3.719 -1.0927  0.7138 -0.9162
 2541TIP3    H229039   3.073   6.111   3.571  2.0382  0.0316 -0.4806
 2542TIP3   OH229040   1.169   6.728   1.835 -0.3812  0.0240 -0.0111
 2542TIP3    H129041   1.177   6.809   1.884  2.2066 -0.5037  0.5272
 2542TIP3    H229042   1.088   6.688   1.866  0.0242  0.8154  2.1102
 2543TIP3   OH229043   2.232   3.893   3.572  0.8103  0.0358 -0.4500
 2543TIP3    H129044   2.151   3.843   3.575  0.2041  0.7862 -2.8636
 2543TIP3    H229045   2.279   3.857   3.496  2.5185 -0.0472  0.6107
 2544TIP3   OH229046   3.492   2.386  15.290 -0.9070  0.2695  0.0140
 2544TIP3    H129047   3.453   2.462  15.334 -0.2092  1.0456 -0.6852
 2544TIP3    H229048   3.585   2.394  15.308 -0.7797 -0.1587 -0.4626
 2545TIP3   OH229049   4.837   1.440   0.701  1.0013  0.4982 -0.3865
 2545TIP3    H129050   4.812   1.482   0.619 -0.9528 -0.4171 -0.3035
 2545TIP3    H229051   4.819   1.347   0.687 -3.9991  0.8297  2.6052
 2546TIP3   OH229052   3.171   1.304  14.959  0.2914  0.3925 -0.3449
 2546TIP3    H129053   3.222   1.381  14.934  1.0324  0.6413  1.7926
 2546TIP3    H229054   3.234   1.231  14.956 -0.1733  0.0316 -1.4342
 2547TIP3   OH229055   4.502   1.959  13.241 -0.2952 -0.0478 -0.0157
 2547TIP3    H129056   4.573   2.023  13.252  1.1356 -1.6843  0.4178
 2547TIP3    H229057   4.429   1.996  13.290 -0.4360  2.6661 -2.1123
 2548TIP3   OH229058   2.950   3.537  16.530  0.0092 -0.3594 -0.0157
 2548TIP3    H129059   2.861   3.508  16.509 -1.3748  3.1399  0.6209
 2548TIP3    H229060   2.959   3.517  16.623 -0.4911  0.1606  0.1489
 2549TIP3   OH229061   3.320   3.079   5.068 -0.5750  0.2000  0.1674
 2549TIP3    H129062   3.282   3.131   4.998  0.9536  1.0708 -0.0307
 2549TIP3    H229063   3.413   3.100   5.067  0.1014 -2.5871  0.0483
 2550TIP3   OH229064   5.584   0.521   2.298 -0.0394  0.0912  0.1825
 2550TIP3    H129065   5.545   0.454   2.354  0.0580  0.6914  0.9893
 2550TIP3    H229066   5.510   0.565   2.257 -0.0899 -0.8007 -0.7084
 2551TIP3   OH229067   5.242   6.499  10.346 -0.2976 -0.2494  0.1123
 2551TIP3    H129068   5.318   6.501  10.403  0.8363 -2.9839 -1.2217
 2551TIP3    H229069   5.201   6.414  10.362 -2.8415  0.9983  0.4870
 2552TIP3   OH229070   1.627   4.956   1.425  0.4489 -0.1771  0.1565
 2552TIP3    H129071   1.537   4.983   1.412 -0.3940 -1.4543  2.9610
 2552TIP3    H229072   1.628   4.863   1.403  1.4267  0.1442 -1.2435
 2553TIP3   OH229073   1.465   0.566   3.598  0.6550  0.1895  0.0771
 2553TIP3    H129074   1.399   0.538   3.535  0.0160 -1.0979  1.2957
 2553TIP3    H229075   1.476   0.491   3.656  0.0668  1.9305  2.4744
 2554TIP3   OH229076   3.814   4.930  11.789 -0.4107 -0.3624  0.2063
 2554TIP3    H129077   3.793   4.841  11.760 -1.4457  0.3014 -1.1799
 2554TIP3    H229078   3.830   4.978  11.707  0.2477  0.6976  0.9464
 2555TIP3   OH229079   6.139   3.664   0.535 -0.0330 -0.3344  0.4686
 2555TIP3    H129080   6.208   3.661   0.469 -0.0372 -0.2017  0.4573
 2555TIP3    H229081   6.072   3.721   0.497 -1.6511 -3.0760 -0.9264
 2556TIP3   OH229082   1.337   4.455  12.394  0.3289 -0.1939 -0.2255
 2556TIP3    H129083   1.265   4.401  12.362  0.5295  0.3489 -1.6059
 2556TIP3    H229084   1.332   4.535  12.343  1.9109 -0.1460 -0.3331
 2557TIP3   OH229085   2.022   3.800   2.461  0.3381 -0.2434  0.0845
 2557TIP3    H129086   2.015   3.716   2.415  1.4369 -1.1237  1.4767
 2557TIP3    H229087   1.986   3.783   2.548  1.6712  0.4118  0.7739
 2558TIP3   OH229088   2.823   2.046  17.216  0.3476  0.2164  0.4330
 2558TIP3    H129089   2.760   2.005  17.275  1.9069  0.1675  2.0727
 2558TIP3    H229090   2.794   2.137  17.211  0.9767  0.5304  2.3253
 2559TIP3   OH229091   1.844   3.712  12.622  0.0657 -0.2573 -0.3674
 2559TIP3    H129092   1.788   3.707  12.699  1.8900  1.8645  1.1525
 2559TIP3    H229093   1.792   3.762  12.558 -0.4743  0.1649  0.3882
 2560TIP3   OH229094   2.899   2.148   0.761 -0.2865 -0.3590 -0.0332
 2560TIP3    H129095   2.940   2.074   0.716 -0.0277  0.7371 -1.6000
 2560TIP3    H229096   2.967   2.182   0.819  0.1006 -0.3412 -0.5023
 2561TIP3   OH229097   4.548   3.358  15.217  0.0980 -0.1567  0.5651
 2561TIP3    H129098   4.469   3.367  15.164 -1.2544 -2.0700  2.1520
 2561TIP3    H229099   4.612   3.317  15.159 -0.5554  0.0670 -0.3179
 2562TIP3   OH229100   3.846   4.225   1.817  0.4007  0.1831  0.0411
 2562TIP3    H129101   3.835   4.195   1.726  0.6077  1.6796 -0.4876
 2562TIP3    H229102   3.763   4.202   1.859 -0.1665  0.5499 -0.8407
 2563TIP3   OH229103   3.898   2.350   1.649 -0.8223 -0.2330 -0.2676
 2563TIP3    H129104   3.878   2.444   1.655 -0.6448 -0.1743 -0.5873
 2563TIP3    H229105   3.926   2.326   1.738 -0.3174  0.1475 -0.3203
 2564TIP3   OH229106   2.367   0.970   4.988  0.3746 -0.4834 -0.1665
 2564TIP3    H129107   2.443   0.930   5.029  0.5684 -0.5616 -0.6016
 2564TIP3    H229108   2.382   0.961   4.894  0.5540  0.8483 -0.2762
 2565TIP3   OH229109   5.918   1.972   2.279 -0.6947  0.2089 -0.0117
 2565TIP3    H129110   5.857   1.913   2.323  2.0207 -0.7467  2.7011
 2565TIP3    H229111   5.943   2.035   2.347 -0.7121  2.2243 -1.8342
 2566TIP3   OH229112   1.344   0.838   1.565  0.7375 -0.4568  0.0662
 2566TIP3    H129113   1.333   0.747   1.592  1.8783 -0.7678 -0.4718
 2566TIP3    H229114   1.259   0.864   1.531  0.7023 -1.6728 -0.8052
 2567TIP3   OH229115   2.787   4.928  16.138 -0.3234  0.3139 -0.3866
 2567TIP3    H129116   2.839   4.997  16.099  1.5937 -0.3232  0.9625
 2567TIP3    H229117   2.758   4.874  16.065  1.4167  0.3465 -1.1124
 2568TIP3   OH229118   4.463   3.482  14.696 -0.0723  0.0741  0.5598
 2568TIP3    H129119   4.486   3.403  14.646 -0.9155 -1.3464  2.3644
 2568TIP3    H229120   4.377   3.507  14.663  1.5351  2.1461 -2.2626
 2569TIP3   OH229121   1.390   3.801   4.284  0.0355 -0.2129 -0.6553
 2569TIP3    H129122   1.427   3.745   4.353 -0.7224 -0.9164 -0.8078
 2569TIP3    H229123   1.466   3.834   4.236  0.4483 -2.0739 -1.3101
 2570TIP3   OH229124   2.294   6.491  11.403 -0.2596 -0.1273  0.0031
 2570TIP3    H129125   2.281   6.396  11.402  1.3772 -0.3749 -0.1022
 2570TIP3    H229126   2.334   6.511  11.318  1.2660  0.3428  0.7986
 2571TIP3   OH229127   0.312   1.716  12.823  0.2515  0.0326 -0.3337
 2571TIP3    H129128   0.265   1.653  12.878 -0.9070  0.2090 -1.0943
 2571TIP3    H229129   0.399   1.679  12.813  0.1700 -0.4875  0.8099
 2572TIP3   OH229130   5.900   5.554  16.158 -0.2749  0.4970  0.4617
 2572TIP3    H129131   5.937   5.631  16.114 -0.9726  0.2926 -0.4912
 2572TIP3    H229132   5.813   5.544  16.120 -0.6114 -0.1197  1.3713
 2573TIP3   OH229133   1.437   5.164   5.844 -0.1956 -0.0488  0.1188
 2573TIP3    H129134   1.369   5.203   5.900  0.3619 -2.2050  2.4170
 2573TIP3    H229135   1.453   5.230   5.777 -1.0874  2.5773  2.3658
 2574TIP3   OH229136   1.648   4.883   3.938 -0.0582  0.4352  0.3401
 2574TIP3    H129137   1.560   4.898   3.904 -0.0608  3.2987  1.4866
 2574TIP3    H229138   1.644   4.795   3.977 -1.8472 -0.2049 -1.2078
 2575TIP3   OH229139   0.841   1.704  13.878 -0.6014 -0.6819  0.4868
 2575TIP3    H129140   0.921   1.674  13.921  0.3600 -1.2456 -1.6329
 2575TIP3    H229141   0.786   1.625  13.871 -0.5556 -0.6939  0.2559
 2576TIP3   OH229142   6.177   3.634  13.442 -0.8421  0.0506 -0.0707
 2576TIP3    H129143   6.112   3.652  13.374 -0.5672  0.5540 -0.1982
 2576TIP3    H229144   6.252   3.599  13.395 -0.5447  0.6641 -0.0641
 2577TIP3   OH229145   0.504   1.793   1.952 -0.7001  0.1353 -0.2956
 2577TIP3    H129146   0.478   1.804   2.044  1.0040 -0.7629  0.3127
 2577TIP3    H229147   0.433   1.834   1.902 -0.8696  2.0437  1.4685
 2578TIP3   OH229148   3.991   2.792   3.922 -0.0432 -0.6478 -0.1976
 2578TIP3    H129149   3.998   2.714   3.867 -0.8623  0.9458 -2.6441
 2578TIP3    H229150   4.079   2.830   3.920  0.1570 -1.0669  0.3606
 2579TIP3   OH229151   0.154   5.920   4.865  0.0740 -0.0267 -0.4141
 2579TIP3    H129152   0.106   6.003   4.864 -0.3917 -0.2945 -0.6509
 2579TIP3    H229153   0.093   5.857   4.826  0.9861 -0.1713 -1.6477
 2580TIP3   OH229154   4.033   5.038  14.116  0.2597  0.2314  0.2061
 2580TIP3    H129155   4.119   5.006  14.090  0.3673 -0.4438  1.4039
 2580TIP3    H229156   3.972   4.969  14.089  0.5353 -1.2243  3.1742
 2581TIP3   OH229157   2.547   6.671   0.051  0.2196 -0.1330  0.0146
 2581TIP3    H129158   2.561   6.623  -0.031 -0.2771 -0.3379  0.0466
 2581TIP3    H229159   2.520   6.759   0.023 -1.5760 -0.6896 -0.0470
 2582TIP3   OH229160   0.523   2.030  14.702  0.1945  0.0010 -0.3489
 2582TIP3    H129161   0.484   2.117  14.696 -1.2114 -0.5693  0.3207
 2582TIP3    H229162   0.485   1.983  14.627  0.2095 -0.3226 -0.1510
 2583TIP3   OH229163   0.271   4.740  17.150 -0.8251 -0.5297  0.0878
 2583TIP3    H129164   0.363   4.712  17.151 -0.6632 -0.0204 -0.6024
 2583TIP3    H229165   0.224   4.667  17.191 -0.5532 -2.2994 -2.6469
 2584TIP3   OH229166   3.874   6.122  15.821  0.0102 -0.1317  0.5631
 2584TIP3    H129167   3.843   6.034  15.844  0.4253 -0.1761  0.9593
 2584TIP3    H229168   3.815   6.150  15.751 -1.4156  0.1121  1.8463
 2585TIP3   OH229169   3.599   0.597  13.203 -0.1467 -0.2547  0.4891
 2585TIP3    H129170   3.587   0.527  13.266 -0.0131 -0.5109  0.2333
 2585TIP3    H229171   3.559   0.564  13.122 -0.3685  0.0917  0.4554
 2586TIP3   OH229172   6.108   4.160   1.537 -0.4252 -0.2296  0.5702
 2586TIP3    H129173   6.024   4.120   1.514 -0.4018 -0.3663  0.7189
 2586TIP3    H229174   6.085   4.231   1.598 -0.3985 -0.5308  0.9356
 2587TIP3   OH229175   1.249   3.788  14.875 -0.2260  0.2652  0.1338
 2587TIP3    H129176   1.322   3.813  14.819  0.8125  0.5144  1.5668
 2587TIP3    H229177   1.245   3.692  14.869 -0.8228  0.3644 -1.1982
 2588TIP3   OH229178   4.415   2.803   6.307 -0.2727 -0.3862 -0.7399
 2588TIP3    H129179   4.339   2.834   6.357  0.1093  1.2702 -1.1830
 2588TIP3    H229180   4.379   2.736   6.249 -1.3074  0.0222 -0.5838
 2589TIP3   OH229181   2.881   5.224  11.351  0.1451  0.0509  0.7491
 2589TIP3    H129182   2.821   5.151  11.364  1.5982 -1.0521  1.3555
 2589TIP3    H229183   2.882   5.238  11.256  0.3891 -1.1707  0.5672
 2590TIP3   OH229184   5.340   5.633   1.258 -0.4814 -0.5884 -0.1378
 2590TIP3    H129185   5.357   5.671   1.171  1.1484  0.0710  0.4578
 2590TIP3    H229186   5.382   5.547   1.255 -1.1060 -0.8950 -0.2604
 2591TIP3   OH229187   1.558   6.685   5.327 -0.2419 -0.1264  0.4246
 2591TIP3    H129188   1.627   6.746   5.354 -0.7636  1.4039 -1.5446
 2591TIP3    H229189   1.591   6.646   5.246 -0.9312 -0.6826  0.4083
 2592TIP3   OH229190   6.699   1.611  10.844 -0.4320 -0.6777 -0.3322
 2592TIP3    H129191   6.738   1.695  10.819 -0.5008 -0.1165  1.3705
 2592TIP3    H229192   6.621   1.635  10.893 -0.4665 -1.7489  0.1507
 2593TIP3   OH229193   3.416   1.648   4.455  0.0992 -0.2399  0.1161
 2593TIP3    H129194   3.400   1.570   4.402 -0.2404 -0.9132  1.1886
 2593TIP3    H229195   3.446   1.613   4.539  0.8584  0.8196  0.2836
 2594TIP3   OH229196   5.752   3.336   1.538 -0.1496  0.0671  0.1988
 2594TIP3    H129197   5.675   3.314   1.486 -0.7552 -1.7688  1.8154
 2594TIP3    H229198   5.718   3.345   1.627  1.1729  1.3048  0.5936
 2595TIP3   OH229199   0.686   1.329  12.039  0.2794  0.1995 -0.2798
 2595TIP3    H129200   0.738   1.254  12.069  0.9992 -0.0591 -2.1030
 2595TIP3    H229201   0.662   1.307  11.949  0.7257  2.2703 -0.9362
 2596TIP3   OH229202   3.700   3.870  13.675  0.6064  0.5635  0.1988
 2596TIP3    H129203   3.704   3.961  13.648 -3.4138  0.6571 -0.3936
 2596TIP3    H229204   3.615   3.860  13.717  2.1814 -2.2418  2.9818
 2597TIP3   OH229205   0.513   5.553  10.810 -0.1391 -0.2891  0.1570
 2597TIP3    H129206   0.577   5.544  10.880 -0.4986  1.7901  0.7892
 2597TIP3    H229207   0.550   5.504  10.736  0.8117 -1.4840  1.3996
 2598TIP3   OH229208   6.167   3.176   1.512 -0.2604 -0.4592  0.6854
 2598TIP3    H129209   6.095   3.195   1.452  0.1843  0.0786  0.3236
 2598TIP3    H229210   6.124   3.163   1.597 -0.6084  1.7886  0.8702
 2599TIP3   OH229211   5.854   2.783   4.305 -0.4038 -0.1083 -0.6152
 2599TIP3    H129212   5.945   2.794   4.279 -0.5032  1.0290 -0.4964
 2599TIP3    H229213   5.841   2.688   4.310  1.0693 -0.2629  0.4323
 2600TIP3   OH229214   6.704   1.113   0.919  0.3561  0.5342 -0.4917
 2600TIP3    H129215   6.646   1.174   0.873 -0.7044 -0.3751 -0.3687
 2600TIP3    H229216   6.724   1.158   1.001 -0.4178  0.7372 -0.4031
 2601TIP3   OH229217   0.505   6.376  13.639 -0.5334  0.0856  0.7992
 2601TIP3    H129218   0.505   6.297  13.693 -0.0265 -0.8595 -0.5367
 2601TIP3    H229219   0.545   6.443  13.694  0.9766 -1.1310  1.2089
 2602TIP3   OH229220   3.545   5.595  13.039  0.1071  0.0790  0.8652
 2602TIP3    H129221   3.619   5.568  12.985  0.1918  0.1591  0.9418
 2602TIP3    H229222   3.522   5.517  13.089 -0.1437 -0.0728  0.5196
 2603TIP3   OH229223   3.152   1.339   4.184 -0.2219  0.3004 -0.6723
 2603TIP3    H129224   3.072   1.334   4.237  0.3408 -1.1775  0.0875
 2603TIP3    H229225   3.221   1.358   4.248  0.1983  0.3882 -1.1525
 2604TIP3   OH229226   4.581   1.022  12.220 -0.1536  0.3795 -0.0282
 2604TIP3    H129227   4.554   1.027  12.128 -2.0765 -1.2121  0.4061
 2604TIP3    H229228   4.500   1.000  12.267  1.1772 -0.6543  1.8092
 2605TIP3   OH229229   4.848   4.363   2.346 -0.2789  0.5841 -0.1737
 2605TIP3    H129230   4.873   4.319   2.427 -0.0939  0.5134 -0.2709
 2605TIP3    H229231   4.927   4.408   2.317 -0.3294  0.5584 -0.3504
 2606TIP3   OH229232   4.841   1.784   3.202  0.6653  0.4526 -0.0677
 2606TIP3    H129233   4.813   1.828   3.121  0.3413  1.1878  0.4455
 2606TIP3    H229234   4.778   1.712   3.213  0.5602  0.5032 -0.3288
 2607TIP3   OH229235   5.362   4.937   4.707  0.5844 -0.0502  0.1733
 2607TIP3    H129236   5.414   4.899   4.636  0.9405 -2.4084  1.6481
 2607TIP3    H229237   5.272   4.907   4.689  0.5834 -0.1845  0.3993
 2608TIP3   OH229238   5.851   4.152  14.494  0.7464  0.3279  0.4812
 2608TIP3    H129239   5.807   4.190  14.570  1.1332  1.1052  0.3277
 2608TIP3    H229240   5.794   4.174  14.420  0.2284 -0.6733  0.5823
 2609TIP3   OH229241   5.545   5.104  14.590 -0.0812  0.4565 -0.9216
 2609TIP3    H129242   5.465   5.113  14.642 -0.0815  0.0682 -0.8577
 2609TIP3    H229243   5.593   5.033  14.632  0.9365  1.5948 -0.1338
 2610TIP3   OH229244   4.754   4.181  11.041  0.5621 -0.1137 -0.0144
 2610TIP3    H129245   4.734   4.263  11.086 -0.3149 -0.8924  1.0490
 2610TIP3    H229246   4.712   4.114  11.094 -0.1712 -1.0953 -1.7936
 2611TIP3   OH229247   0.288   4.034   5.532  0.2329  0.2623  0.3181
 2611TIP3    H129248   0.378   4.035   5.499 -0.1613  0.8767 -0.7343
 2611TIP3    H229249   0.277   3.946   5.568  0.8266 -0.2550 -0.7581
 2612TIP3   OH229250   1.012   4.669   2.722  0.1926  0.0283 -0.2060
 2612TIP3    H129251   0.995   4.753   2.765 -1.0198 -0.8891  1.1424
 2612TIP3    H229252   1.024   4.607   2.794  0.3826 -1.0978 -1.1983
 2613TIP3   OH229253   4.666   6.736   3.344  0.2524  0.5705  0.1928
 2613TIP3    H129254   4.733   6.771   3.404 -0.4106  0.1484  1.1905
 2613TIP3    H229255   4.619   6.672   3.396 -1.5373  1.5162 -0.2142
 2614TIP3   OH229256   2.725   4.691   2.978 -0.2660  0.0758  0.0220
 2614TIP3    H129257   2.717   4.756   2.908  1.7679 -0.7310 -0.9935
 2614TIP3    H229258   2.656   4.627   2.958 -1.0414  0.9103 -0.0509
 2615TIP3   OH229259   4.736   6.631  12.243 -0.5026 -0.5826 -0.0974
 2615TIP3    H129260   4.830   6.636  12.222 -0.2487 -1.8485  0.7217
 2615TIP3    H229261   4.703   6.718  12.220  1.4230  0.8611  2.2774
 2616TIP3   OH229262   5.536   1.632   4.316 -0.4096 -0.6673 -0.7798
 2616TIP3    H129263   5.464   1.665   4.263  0.8076  1.2993 -1.2333
 2616TIP3    H229264   5.576   1.710   4.354 -0.4011 -1.9334  1.9444
 2617TIP3   OH229265   0.102   3.455  14.324  0.0233 -0.0192 -0.2527
 2617TIP3    H129266   0.110   3.531  14.267  3.4480 -0.0574  0.0796
 2617TIP3    H229267   0.071   3.490  14.407 -0.2974  0.7046 -0.6754
 2618TIP3   OH229268   1.684   2.551   1.989 -0.0785  0.7358  0.2420
 2618TIP3    H129269   1.777   2.546   2.010  0.0424  1.4211 -0.1228
 2618TIP3    H229270   1.671   2.641   1.958 -1.2590  1.3074  2.2393
 2619TIP3   OH229271   0.504   2.998   2.182  0.2823  0.1117  0.2043
 2619TIP3    H129272   0.489   2.905   2.165  0.6079 -0.6938  3.8702
 2619TIP3    H229273   0.442   3.044   2.126 -0.3947 -2.3538 -1.1117
 2620TIP3   OH229274   5.539   5.876  12.835 -0.3983 -0.2364  0.2490
 2620TIP3    H129275   5.449   5.903  12.853 -0.0544  0.0383  1.6022
 2620TIP3    H229276   5.562   5.818  12.908  0.1749 -1.1233 -0.6219
 2621TIP3   OH229277   2.135   6.649  14.562 -0.3472  0.5503 -0.1736
 2621TIP3    H129278   2.130   6.585  14.491  0.5579 -0.8137  0.9740
 2621TIP3    H229279   2.166   6.729  14.519  2.5931 -0.9265 -0.9410
 2622TIP3   OH229280   0.621   1.107  14.230  0.8726 -0.2583 -0.0086
 2622TIP3    H129281   0.663   1.192  14.245 -0.1033  0.3121 -0.4895
 2622TIP3    H229282   0.532   1.118  14.261 -0.0124 -0.3006 -2.4475
 2623TIP3   OH229283   4.292   3.590  11.738 -0.1137 -1.2609  0.2477
 2623TIP3    H129284   4.274   3.592  11.832 -1.2701 -1.4151  0.0466
 2623TIP3    H229285   4.215   3.546  11.701 -2.0091  3.0541 -1.2601
 2624TIP3   OH229286   4.110   1.897  10.635 -0.1170 -0.0987  0.0858
 2624TIP3    H129287   4.160   1.971  10.668 -2.1426  1.4043 -0.0824
 2624TIP3    H229288   4.128   1.896  10.541 -0.5842  0.6206 -0.0218
 2625TIP3   OH229289   4.899   3.771   3.107  0.0025 -0.4840 -0.5218
 2625TIP3    H129290   4.907   3.690   3.057  0.5277 -0.1699 -0.9462
 2625TIP3    H229291   4.814   3.762   3.152 -0.9787 -0.3124 -2.2939
 2626TIP3   OH229292   2.632   2.499   4.840 -0.3518 -0.0551 -0.3823
 2626TIP3    H129293   2.550   2.517   4.886 -0.2980  0.6852 -0.5782
 2626TIP3    H229294   2.624   2.545   4.757  0.9366  1.3901  0.2656
 2627TIP3   OH229295   2.844   4.452   1.961  0.3720 -0.2343 -0.0707
 2627TIP3    H129296   2.809   4.525   1.911  1.5554  0.4602  0.1066
 2627TIP3    H229297   2.768   4.416   2.007 -0.4362  0.0791 -1.1579
 2628TIP3   OH229298   3.702   2.254   5.431 -0.2747 -0.4621  0.2356
 2628TIP3    H129299   3.709   2.320   5.500  1.7760 -0.3245 -0.0601
 2628TIP3    H229300   3.782   2.266   5.379  0.6373 -3.7981  0.7715
 2629TIP3   OH229301   2.644   5.879  11.399 -0.0732  0.1825  0.6483
 2629TIP3    H129302   2.673   5.801  11.447 -1.3555  0.2707  1.6061
 2629TIP3    H229303   2.714   5.896  11.337  0.1101 -1.9119  0.2289
 2630TIP3   OH229304   3.415   5.862  11.368 -0.3045  0.4410 -0.0791
 2630TIP3    H129305   3.486   5.910  11.412 -0.2030 -1.1441  1.5547
 2630TIP3    H229306   3.338   5.877  11.424 -1.3832  2.3685 -1.9769
 2631TIP3   OH229307   1.433   4.829  14.174 -0.8180 -0.0880  0.1395
 2631TIP3    H129308   1.447   4.922  14.157  0.7375 -0.2356  0.4984
 2631TIP3    H229309   1.482   4.811  14.254 -0.0120 -1.4715 -0.6246
 2632TIP3   OH229310   3.566   5.292   5.210  0.3204 -0.0574  0.2103
 2632TIP3    H129311   3.623   5.225   5.171  1.3971  0.2298  1.2667
 2632TIP3    H229312   3.578   5.369   5.154  2.7162  0.7050  1.6689
 2633TIP3   OH229313   6.462   3.619   3.120  0.2197 -0.2341 -0.0909
 2633TIP3    H129314   6.513   3.700   3.111  1.3679 -0.8598  0.6441
 2633TIP3    H229315   6.430   3.621   3.210 -2.5219  0.9719 -1.0201
 2634TIP3   OH229316   6.757   4.441   5.024 -0.3791  0.6295 -0.4731
 2634TIP3    H129317   6.670   4.407   5.005 -0.9101  1.5381  0.3358
 2634TIP3    H229318   6.788   4.387   5.097 -0.4566  0.6337 -0.4376
 2635TIP3   OH229319   2.930   3.451   6.250 -0.4078  0.1383  0.7276
 2635TIP3    H129320   2.939   3.530   6.302  0.5576 -0.6086  1.7317
 2635TIP3    H229321   2.934   3.379   6.314 -1.6142 -0.7077 -0.1227
 2636TIP3   OH229322   6.149   4.603   5.586 -0.6853 -0.6865 -0.3583
 2636TIP3    H129323   6.152   4.628   5.678 -1.3863 -1.2102 -0.1853
 2636TIP3    H229324   6.187   4.677   5.539 -2.4611  0.5679  0.1518
 2637TIP3   OH229325   4.903   5.315   5.429  0.4266 -0.5076  0.1351
 2637TIP3    H129326   4.836   5.338   5.493 -0.2725 -0.1076 -0.7210
 2637TIP3    H229327   4.886   5.373   5.355  0.6304 -1.6028 -0.7859
 2638TIP3   OH229328   1.628   0.832   3.780  0.4409  0.7884  0.2611
 2638TIP3    H129329   1.687   0.841   3.856  0.0466 -2.0638  0.9533
 2638TIP3    H229330   1.546   0.802   3.818 -0.5594  1.8253 -1.0578
 2639TIP3   OH229331   0.841   1.712   1.515 -0.8647  0.1958  0.5626
 2639TIP3    H129332   0.887   1.764   1.581  0.1009 -0.8105  0.6994
 2639TIP3    H229333   0.752   1.704   1.549 -0.4395 -0.1039  1.6384
 2640TIP3   OH229334   5.684   3.523  16.426 -0.1374  0.0958 -0.0239
 2640TIP3    H129335   5.752   3.561  16.370  2.6527 -3.1271  1.0212
 2640TIP3    H229336   5.619   3.488  16.364 -0.3013  2.1406 -1.0548
 2641TIP3   OH229337   6.675   3.469  12.181 -0.8041 -0.3005  0.2018
 2641TIP3    H129338   6.743   3.522  12.221 -0.1925  0.7513 -2.1358
 2641TIP3    H229339   6.715   3.435  12.101 -1.8018 -2.7959  0.7096
 2642TIP3   OH229340   6.048   2.168   0.862  0.2800 -0.2444 -0.1438
 2642TIP3    H129341   5.958   2.182   0.891  0.0203 -2.2469  0.1455
 2642TIP3    H229342   6.043   2.092   0.804  1.7691 -0.3142 -0.2122
 2643TIP3   OH229343   5.064   0.904  13.400  0.0367  0.4184 -0.5603
 2643TIP3    H129344   5.150   0.920  13.362 -1.3073  2.3062 -2.9109
 2643TIP3    H229345   5.023   0.839  13.342 -0.7737  0.8242 -0.4547
 2644TIP3   OH229346   2.273   4.981   3.342 -0.2191 -0.1268  0.1951
 2644TIP3    H129347   2.361   4.944   3.336  0.1817  0.8375  0.0393
 2644TIP3    H229348   2.278   5.063   3.293 -1.8963 -1.3128 -2.0259
 2645TIP3   OH229349   1.973   3.174   0.304 -0.3422  0.0141 -0.2580
 2645TIP3    H129350   2.011   3.256   0.270 -0.0590 -0.5547 -1.3393
 2645TIP3    H229351   1.879   3.186   0.294 -0.4878  1.3900  2.3401
 2646TIP3   OH229352   3.287   3.213  13.643 -0.3810  0.3742  0.0883
 2646TIP3    H129353   3.327   3.129  13.618 -0.7051 -0.0905  1.0863
 2646TIP3    H229354   3.327   3.234  13.727  0.9859  2.1128 -0.9753
 2647TIP3   OH229355   5.957   4.656  13.069  0.2991 -0.2089  0.4022
 2647TIP3    H129356   5.898   4.634  12.997  0.1423 -2.2081  1.0945
 2647TIP3    H229357   5.951   4.580  13.128 -0.6926  2.0093  3.2525
 2648TIP3   OH229358   5.217   0.813  12.063  0.0599 -0.3243  0.3503
 2648TIP3    H129359   5.203   0.735  12.117  1.7181 -0.1730  1.0325
 2648TIP3    H229360   5.147   0.811  11.998 -1.8266 -0.6604  2.3403
 2649TIP3   OH229361   0.730   1.099   2.530  0.0645 -0.3095  0.3870
 2649TIP3    H129362   0.710   1.077   2.621  2.7391 -3.0779  0.3869
 2649TIP3    H229363   0.802   1.163   2.536  0.6027 -0.8927  0.2361
 2650TIP3   OH229364   1.642   1.837  14.252  0.0092 -0.5533 -0.5718
 2650TIP3    H129365   1.734   1.836  14.277  0.1793 -0.3486 -1.1677
 2650TIP3    H229366   1.632   1.761  14.194 -0.6814 -1.7934  1.1517
 2651TIP3   OH229367   5.093   1.020  16.600  0.0306 -0.3106 -0.0922
 2651TIP3    H129368   5.041   0.980  16.530  0.7281 -0.2268 -0.6649
 2651TIP3    H229369   5.165   1.063  16.554  1.0721 -1.1297  0.7547
 2652TIP3   OH229370   5.787   5.470   3.783 -0.2824  0.1863 -0.3417
 2652TIP3    H129371   5.790   5.563   3.760 -1.2735 -0.0207 -1.3769
 2652TIP3    H229372   5.703   5.440   3.747 -0.6509 -0.7667  1.2872
 2653TIP3   OH229373   4.917   5.156   3.114 -0.2091 -0.2611  0.1111
 2653TIP3    H129374   4.974   5.136   3.040 -1.2681 -1.4941 -0.3917
 2653TIP3    H229375   4.967   5.218   3.167  0.5333  0.6635 -1.6525
 2654TIP3   OH229376   0.962   3.831  12.020 -0.0160  0.4957  0.3737
 2654TIP3    H129377   0.887   3.885  12.046  1.2188  2.4724 -0.1106
 2654TIP3    H229378   1.014   3.888  11.964  2.4780 -0.4396  1.6666
 2655TIP3   OH229379   6.393   4.822  16.375  0.7369  0.3014  0.9502
 2655TIP3    H129380   6.426   4.868  16.298 -1.6681  0.3276 -0.1174
 2655TIP3    H229381   6.458   4.840  16.444  2.5253  0.8984 -0.8509
 2656TIP3   OH229382   3.190   5.795   1.956  0.6563  0.3708 -0.5961
 2656TIP3    H129383   3.157   5.885   1.961 -0.5330 -0.0964  0.0904
 2656TIP3    H229384   3.179   5.771   1.863 -0.6700  0.3339 -0.4440
 2657TIP3   OH229385   4.673   6.488   0.378 -0.3297 -0.2199  0.2539
 2657TIP3    H129386   4.580   6.480   0.397 -0.1349 -3.1708  0.1669
 2657TIP3    H229387   4.704   6.398   0.367  1.9927  0.8253 -2.3622
 2658TIP3   OH229388   6.370   1.128  16.879 -0.5085 -0.3951 -0.2902
 2658TIP3    H129389   6.304   1.190  16.910  0.2323  0.8716 -1.2157
 2658TIP3    H229390   6.339   1.043  16.909 -2.5286  0.1893 -0.6674
 2659TIP3   OH229391   2.961   3.713  14.041 -0.6062 -0.1906  0.2803
 2659TIP3    H129392   2.920   3.651  14.102  0.6015 -1.0065  0.2740
 2659TIP3    H229393   2.905   3.711  13.963 -0.6115 -1.2371  0.3084
 2660TIP3   OH229394   1.041   5.537  12.693  0.0247  0.0040  0.4985
 2660TIP3    H129395   1.118   5.594  12.684 -0.1261  0.0342 -0.6455
 2660TIP3    H229396   0.988   5.556  12.615  0.3086 -2.2214 -0.2512
 2661TIP3   OH229397   2.389   3.403   5.520 -0.1822 -0.9452  0.2036
 2661TIP3    H129398   2.393   3.482   5.466  1.2628 -0.1525  1.4453
 2661TIP3    H229399   2.297   3.377   5.515 -1.9013  3.6867  3.7329
 2662TIP3   OH229400   4.325   1.390  15.868 -0.0438 -0.4061  0.3430
 2662TIP3    H129401   4.376   1.320  15.827 -0.8580 -0.9817  0.3206
 2662TIP3    H229402   4.303   1.449  15.796  0.4201 -0.2510  0.3231
 2663TIP3   OH229403   2.846   2.851  15.213  0.0447  0.1408 -0.4669
 2663TIP3    H129404   2.924   2.806  15.181 -0.8153 -0.3221 -1.9875
 2663TIP3    H229405   2.848   2.839  15.308  0.5144 -2.0524 -0.7156
 2664TIP3   OH229406   4.261   6.600  11.823 -0.0085 -0.5854  0.3991
 2664TIP3    H129407   4.215   6.624  11.743 -0.5273 -0.1974  0.8090
 2664TIP3    H229408   4.347   6.642  11.816  0.6225 -2.0405 -0.7715
 2665TIP3   OH229409   2.652   4.912  15.615  0.1576 -0.1193  0.3615
 2665TIP3    H129410   2.632   4.826  15.579 -1.1501  0.6563 -0.8020
 2665TIP3    H229411   2.715   4.949  15.552 -2.0163  1.1783 -1.1105
 2666TIP3   OH229412   1.986   1.248  15.858 -0.0092  0.2512 -0.3211
 2666TIP3    H129413   2.082   1.245  15.863  0.1113 -0.1539 -2.1954
 2666TIP3    H229414   1.968   1.322  15.800 -0.7445 -0.7793 -1.4277
 2667TIP3   OH229415   4.795   4.720  13.384  0.3235  0.1296  0.7441
 2667TIP3    H129416   4.702   4.700  13.382  0.3113  0.0418  2.1570
 2667TIP3    H229417   4.838   4.635  13.395  0.6445  0.0188 -1.1692
 2668TIP3   OH229418   2.537   2.220  13.578  0.1247 -0.2239 -0.2640
 2668TIP3    H129419   2.608   2.197  13.638 -0.1176 -1.8751 -0.5853
 2668TIP3    H229420   2.466   2.159  13.600 -1.3761  1.7216  0.3704
 2669TIP3   OH229421   0.039   2.997   1.819 -0.1995 -0.1040  0.0678
 2669TIP3    H129422  -0.057   2.997   1.823 -0.2606  2.2157 -0.3604
 2669TIP3    H229423   0.059   2.941   1.744 -1.0377 -3.1980  2.0495
 2670TIP3   OH229424   0.035   2.307  15.946 -0.0614 -0.2225  0.1456
 2670TIP3    H129425   0.067   2.397  15.938  0.8142 -0.5770 -0.4387
 2670TIP3    H229426   0.084   2.258  15.880 -1.5453 -0.8651 -0.5168
 2671TIP3   OH229427   2.634   0.062   4.232  0.2524 -0.2439  0.2887
 2671TIP3    H129428   2.541   0.038   4.238  0.7476 -1.8579  1.7700
 2671TIP3    H229429   2.678  -0.020   4.211  1.3483  0.5250 -0.4080
 2672TIP3   OH229430   0.023   5.229   1.683 -0.3716  0.1062 -0.5171
 2672TIP3    H129431   0.108   5.266   1.707 -0.5558 -1.2424  2.5568
 2672TIP3    H229432  -0.039   5.301   1.696  0.0677  0.5726 -0.9917
 2673TIP3   OH229433   6.606   6.592   6.841  0.2027 -0.4249  0.4799
 2673TIP3    H129434   6.574   6.659   6.780 -0.1494 -0.7301  0.3243
 2673TIP3    H229435   6.697   6.577   6.816  0.7569  1.1177  1.5092
 2674TIP3   OH229436   6.471   3.338   4.915  0.2480 -0.0777 -0.1859
 2674TIP3    H129437   6.552   3.300   4.949  1.6397  2.1700 -0.8855
 2674TIP3    H229438   6.416   3.350   4.993  0.4506 -1.8529  0.2624
 2675TIP3   OH229439   5.012   4.235  15.044 -0.0111  0.5785  0.0263
 2675TIP3    H129440   4.938   4.284  15.007 -0.4803 -0.3523 -0.2898
 2675TIP3    H229441   5.011   4.258  15.137 -1.7323 -0.6886  0.3543
 2676TIP3   OH229442   6.566   6.442  12.706 -0.0887  0.2861 -0.9803
 2676TIP3    H129443   6.630   6.399  12.762 -2.5745 -1.7095  0.4341
 2676TIP3    H229444   6.574   6.398  12.621 -1.0132 -1.4113 -0.2033
 2677TIP3   OH229445   4.733   3.529  17.187 -0.0200 -0.5626  0.7170
 2677TIP3    H129446   4.756   3.464  17.121  2.3014  0.6195  0.2701
 2677TIP3    H229447   4.781   3.501  17.265 -1.1700 -0.8536  1.3320
 2678TIP3   OH229448   4.377   2.869  16.172 -0.1087  0.3641 -0.1026
 2678TIP3    H129449   4.440   2.918  16.225  0.5945  1.0512 -1.5466
 2678TIP3    H229450   4.420   2.859  16.087 -1.9631  0.8771 -1.1347
 2679TIP3   OH229451   6.634   1.899   4.482 -0.0256 -0.6596  0.3932
 2679TIP3    H129452   6.669   1.831   4.538 -1.2088 -0.2958  1.6065
 2679TIP3    H229453   6.567   1.855   4.430 -0.4849 -0.5275  0.8663
 2680TIP3   OH229454   0.011   1.943   3.433 -0.1449  0.6169 -0.4126
 2680TIP3    H129455   0.038   1.895   3.511 -0.4897  0.3845 -0.4365
 2680TIP3    H229456   0.057   2.027   3.440 -0.8126  0.9121  0.4582
 2681TIP3   OH229457   2.404   1.641  11.673 -0.2531  0.7249  0.3210
 2681TIP3    H129458   2.368   1.700  11.607 -1.2818  1.5429  1.5868
 2681TIP3    H229459   2.341   1.645  11.745  1.6487  1.0989  2.0134
 2682TIP3   OH229460   6.710   5.379  17.062  0.5952  0.3853  0.1627
 2682TIP3    H129461   6.777   5.312  17.047 -0.2723 -0.3890 -0.3626
 2682TIP3    H229462   6.681   5.404  16.974  0.3742  0.8871  0.3723
 2683TIP3   OH229463   6.244   4.012  13.957  0.3774 -0.6125 -0.1079
 2683TIP3    H129464   6.195   4.033  14.037 -0.1068 -0.2075 -0.5048
 2683TIP3    H229465   6.332   4.045  13.973 -0.2191  1.2573 -0.5003
 2684TIP3   OH229466   1.710   4.745   4.198 -0.0577  0.4157  0.1708
 2684TIP3    H129467   1.802   4.772   4.204 -0.4763  2.5818 -2.4607
 2684TIP3    H229468   1.665   4.799   4.263  0.2166  0.7108  0.1130
 2685TIP3   OH229469   2.645   2.464   0.514 -0.2830 -0.1282  0.6148
 2685TIP3    H129470   2.664   2.402   0.444 -2.1039 -0.1137  0.0622
 2685TIP3    H229471   2.662   2.550   0.475 -2.6218 -0.0403 -0.3153
 2686TIP3   OH229472   4.010   0.788   5.232 -0.2323  0.0984 -0.0026
 2686TIP3    H129473   4.063   0.852   5.186  2.8912 -1.2575  1.5482
 2686TIP3    H229474   4.000   0.716   5.170  0.6142 -0.0612  0.0418
 2687TIP3   OH229475   2.325   0.593   4.195  0.2631 -0.1682 -0.3536
 2687TIP3    H129476   2.379   0.514   4.205 -1.0205 -1.0809 -0.4946
 2687TIP3    H229477   2.386   0.665   4.207  1.4542 -1.1855 -0.1645
 2688TIP3   OH229478   6.604   2.442  15.518  0.2856 -0.2866  0.3193
 2688TIP3    H129479   6.639   2.454  15.606  1.2325  0.7229 -0.1838
 2688TIP3    H229480   6.549   2.364  15.525  1.6801 -1.2168  1.4213
 2689TIP3   OH229481   4.981   5.418  16.691  0.2312 -0.5256  0.2268
 2689TIP3    H129482   5.010   5.335  16.730  2.6939 -0.6588 -1.7500
 2689TIP3    H229483   5.044   5.483  16.722 -0.0653  0.0859 -0.4321
 2690TIP3   OH229484   3.028   3.811   5.702 -0.2575 -0.1985  0.4009
 2690TIP3    H129485   3.020   3.734   5.759  0.2745 -1.1409 -0.7799
 2690TIP3    H229486   2.952   3.864   5.723 -0.0751 -0.5380  1.9966
 2691TIP3   OH229487   4.925   4.969  13.032  0.3960 -0.5756  0.4765
 2691TIP3    H129488   4.961   4.893  13.077  0.1165 -1.8180 -1.3278
 2691TIP3    H229489   4.991   4.991  12.965 -0.8238 -1.0243 -0.8976
 2692TIP3   OH229490   0.701   0.185  16.711 -0.1894  0.6017  0.0847
 2692TIP3    H129491   0.610   0.181  16.680 -0.5380 -3.0694  1.3531
 2692TIP3    H229492   0.750   0.131  16.650  0.8575  1.2446  0.3511
 2693TIP3   OH229493   0.419   3.930   1.969 -0.6169 -0.7307  0.0008
 2693TIP3    H129494   0.449   3.845   1.936 -0.0486 -0.1294 -1.0628
 2693TIP3    H229495   0.424   3.988   1.893 -0.6117  0.3547  0.8245
 2694TIP3   OH229496   0.473   4.597  16.902 -0.2716 -0.0071  0.4969
 2694TIP3    H129497   0.501   4.688  16.888 -1.1859  0.4200  1.3176
 2694TIP3    H229498   0.388   4.592  16.861 -0.0554 -0.6041  0.1268
 2695TIP3   OH229499   0.132   6.615  14.994  0.5074  0.5410  0.0011
 2695TIP3    H129500   0.066   6.581  15.054  0.9300 -1.0475 -0.4000
 2695TIP3    H229501   0.136   6.550  14.924  1.7678  1.1257 -0.4842
 2696TIP3   OH229502   1.344   3.858   5.315  0.2367  0.4416 -0.4618
 2696TIP3    H129503   1.424   3.904   5.339  0.5329 -1.1557  1.8050
 2696TIP3    H229504   1.277   3.895   5.372 -0.1844  0.2569 -0.8273
 2697TIP3   OH229505   2.891   4.914  14.783  0.0291  0.4170 -0.0548
 2697TIP3    H129506   2.917   4.995  14.739  1.4796 -0.1759 -0.2962
 2697TIP3    H229507   2.889   4.848  14.714  1.6764 -0.3791  0.6245
 2698TIP3   OH229508   5.718   4.877   1.668 -0.4561 -0.0237  0.0565
 2698TIP3    H129509   5.634   4.831   1.660 -1.4059  1.6868  0.0391
 2698TIP3    H229510   5.718   4.912   1.756  0.5250 -0.5196  0.2605
 2699TIP3   OH229511   0.075   0.944  11.222 -0.0152  0.1885 -0.0328
 2699TIP3    H129512   0.156   0.903  11.192 -0.8019 -0.4685 -1.2740
 2699TIP3    H229513   0.075   1.030  11.181  0.3560  0.4487  0.4933
 2700TIP3   OH229514   6.494   4.883  16.993  0.3372 -0.5855  0.2956
 2700TIP3    H129515   6.536   4.967  17.010  0.9364 -0.8125 -0.0579
 2700TIP3    H229516   6.411   4.906  16.950  0.5114 -0.1806  0.1770
 2701TIP3   OH229517   1.627   0.070  16.941  0.4566  0.3968  0.5149
 2701TIP3    H129518   1.629  -0.025  16.955  1.1563  0.4236  0.6046
 2701TIP3    H229519   1.551   0.084  16.883  1.6963 -0.4789 -1.3824
 2702TIP3   OH229520   4.802   4.334   4.450  0.1980  0.0803 -0.9178
 2702TIP3    H129521   4.849   4.257   4.482 -0.0629  0.0238 -0.6715
 2702TIP3    H229522   4.740   4.354   4.519  1.1613  1.3074 -0.3995
 2703TIP3   OH229523   5.369   3.269   1.886  0.4534 -0.6822 -0.1916
 2703TIP3    H129524   5.390   3.215   1.962 -0.8238 -0.5816  0.2525
 2703TIP3    H229525   5.323   3.345   1.923  0.1016 -0.4768 -1.0360
 2704TIP3   OH229526   2.600   3.148  16.273 -0.0012  0.1515  0.3286
 2704TIP3    H129527   2.510   3.171  16.294 -0.2284  0.2086 -0.6961
 2704TIP3    H229528   2.593   3.073  16.214  0.6891 -1.3236  2.0657
 2705TIP3   OH229529   0.723   3.066  14.971  0.0223  0.5363  0.4277
 2705TIP3    H129530   0.750   3.157  14.972  0.7852  0.3192 -0.3077
 2705TIP3    H229531   0.679   3.054  14.887  0.6369  0.0199  0.1785
 2706TIP3   OH229532   2.552   1.357   4.859  0.5245 -0.2406  0.0441
 2706TIP3    H129533   2.632   1.307   4.841 -0.4900 -1.5549 -0.9748
 2706TIP3    H229534   2.583   1.442   4.889  2.3176 -0.5198 -0.9376
 2707TIP3   OH229535   1.887   0.395   2.437 -0.8646 -0.0859 -0.2471
 2707TIP3    H129536   1.931   0.361   2.515  1.4421  0.5054 -1.2615
 2707TIP3    H229537   1.795   0.399   2.462 -0.3790 -1.3816  1.9178
 2708TIP3   OH229538   2.071   2.828  16.268  0.1097  0.0034  0.1481
 2708TIP3    H129539   2.123   2.774  16.209  0.9971  1.1858 -0.1847
 2708TIP3    H229540   2.029   2.766  16.328 -0.7591 -1.2142 -1.6813
 2709TIP3   OH229541   2.673   5.870   2.395  0.0949  0.1570 -0.3846
 2709TIP3    H129542   2.761   5.905   2.388  0.7751 -1.7138 -1.4252
 2709TIP3    H229543   2.669   5.829   2.481  1.6532 -3.3959 -1.8979
 2710TIP3   OH229544   6.173   6.399   2.823  0.2483  0.6610 -0.5236
 2710TIP3    H129545   6.112   6.333   2.853  0.1274  0.2540 -1.6549
 2710TIP3    H229546   6.124   6.450   2.758  0.7067  1.1246 -0.5128
 2711TIP3   OH229547   5.312   6.454   1.918 -0.5213  0.2510 -0.0472
 2711TIP3    H129548   5.389   6.508   1.929  0.1481 -0.6295 -0.3336
 2711TIP3    H229549   5.326   6.379   1.977 -0.4201 -0.6881 -1.2337
 2712TIP3   OH229550   5.898   2.231  12.206  1.0788  0.2188 -0.1559
 2712TIP3    H129551   5.852   2.305  12.167  1.5035  0.3673 -0.3783
 2712TIP3    H229552   5.850   2.154  12.176 -0.5293  0.4751  1.6165
 2713TIP3   OH229553   2.885   5.961   0.167 -0.2853 -0.1544 -0.5182
 2713TIP3    H129554   2.976   5.983   0.188 -0.0677 -0.4899 -1.0640
 2713TIP3    H229555   2.853   6.036   0.118 -0.2643 -0.0834 -0.4221
 2714TIP3   OH229556   2.537   1.373   0.614  0.1833  0.0364  0.5303
 2714TIP3    H129557   2.575   1.456   0.643  0.5221  0.3982 -0.9131
 2714TIP3    H229558   2.610   1.327   0.572 -0.2249 -0.5856  0.4994
 2715TIP3   OH229559   2.422   3.231   3.460 -0.5989 -0.2081  0.1604
 2715TIP3    H129560   2.414   3.307   3.517  0.8337  0.1534 -0.0993
 2715TIP3    H229561   2.485   3.257   3.393 -0.9825 -1.2164 -0.6156
 2716TIP3   OH229562   5.518   5.519   0.748 -0.2868  0.3155 -0.0307
 2716TIP3    H129563   5.509   5.526   0.843  1.3496  2.6812  0.0010
 2716TIP3    H229564   5.447   5.572   0.713  1.5375  2.8784 -0.0192
 2717TIP3   OH229565   1.174   6.165  11.263  0.0475  0.0518  0.4921
 2717TIP3    H129566   1.190   6.259  11.250 -0.4763  0.1746  0.7394
 2717TIP3    H229567   1.082   6.159  11.287  0.3008 -0.4450  1.3448
 2718TIP3   OH229568   4.862   5.171  13.213 -0.0506 -0.3007 -0.4981
 2718TIP3    H129569   4.896   5.101  13.157 -1.2264 -0.7193 -0.7038
 2718TIP3    H229570   4.782   5.200  13.169 -1.8127 -1.6437  1.6707
 2719TIP3   OH229571   3.113   3.848  11.780 -0.3986 -0.6401 -0.0927
 2719TIP3    H129572   3.194   3.802  11.803  0.6306  0.6169 -1.1511
 2719TIP3    H229573   3.125   3.936  11.814 -0.8347 -0.1254 -1.2501
 2720TIP3   OH229574   3.879   2.399   0.019  0.0242  0.0518 -0.6261
 2720TIP3    H129575   3.855   2.445   0.099 -0.6854  0.1496 -0.8961
 2720TIP3    H229576   3.971   2.375   0.032  0.8977  2.8701 -1.0835
 2721TIP3   OH229577   1.587   5.472  14.305 -0.2027 -0.0695  0.0479
 2721TIP3    H129578   1.562   5.548  14.357 -3.2027 -1.7899  1.2070
 2721TIP3    H229579   1.633   5.509  14.230 -0.3454  2.7800  1.2959
 2722TIP3   OH229580   0.619   0.125  16.969 -0.0806  0.0956  0.5223
 2722TIP3    H129581   0.532   0.151  16.942  0.4605 -0.3343 -1.6878
 2722TIP3    H229582   0.673   0.134  16.891  1.6533 -0.6235  1.5928
 2723TIP3   OH229583   4.535   5.791  13.437  0.3872  0.2336  0.7952
 2723TIP3    H129584   4.587   5.754  13.366 -0.4150 -0.1611  0.4096
 2723TIP3    H229585   4.542   5.726  13.507 -1.1771 -0.7647  0.0496
 2724TIP3   OH229586   5.935   2.177  15.548  0.4338  0.4915  0.2944
 2724TIP3    H129587   5.845   2.178  15.582  0.5635 -0.7095  0.7030
 2724TIP3    H229588   5.945   2.262  15.505 -1.3495  0.1442 -0.8875
 2725TIP3   OH229589   1.521   3.248   4.007  0.2105  0.7626  0.2017
 2725TIP3    H129590   1.428   3.237   3.987  0.2220 -0.6016  0.8525
 2725TIP3    H229591   1.562   3.263   3.922 -0.4602  0.2307 -0.2255
 2726TIP3   OH229592   6.101   0.062  17.195  0.2046  0.3233  0.4855
 2726TIP3    H129593   6.189   0.038  17.226 -0.3389 -1.0203  1.0213
 2726TIP3    H229594   6.074   0.133  17.254  1.5460  1.8301 -0.6727
 2727TIP3   OH229595   5.575   0.132  16.383 -0.5084  0.5598 -0.2969
 2727TIP3    H129596   5.574   0.047  16.339  0.4325  0.4424 -0.0917
 2727TIP3    H229597   5.607   0.193  16.317  1.9942  0.1979  0.5391
 2728TIP3   OH229598   3.916   4.436  11.986 -0.1434  0.1032  0.2305
 2728TIP3    H129599   3.956   4.350  11.999  0.9553  0.4255 -0.9744
 2728TIP3    H229600   3.989   4.497  11.987 -0.4769  0.6335 -2.6397
 2729TIP3   OH229601   5.432   6.198  16.671 -0.2092 -0.6352 -0.4560
 2729TIP3    H129602   5.511   6.150  16.645 -0.9317 -1.3505 -1.3581
 2729TIP3    H229603   5.432   6.195  16.767  0.6088 -1.0330 -0.4719
 2730TIP3   OH229604   2.908   4.181   2.623  0.3846  0.2893 -0.1929
 2730TIP3    H129605   2.923   4.092   2.591  1.2933  1.6327 -3.7769
 2730TIP3    H229606   2.994   4.224   2.615 -0.1539  1.6184  1.0281
 2731TIP3   OH229607   4.776   3.260   4.989  0.5447  0.4032  0.0467
 2731TIP3    H129608   4.684   3.261   4.965  0.5147 -0.4816  0.1215
 2731TIP3    H229609   4.813   3.336   4.945 -0.0957  0.4099 -0.4771
 2732TIP3   OH229610   1.397   6.602  15.021  0.0883 -0.3215  0.6946
 2732TIP3    H129611   1.381   6.584  15.114 -0.5450  1.0305  0.8473
 2732TIP3    H229612   1.389   6.516  14.979  0.0215 -0.8830  1.8289
 2733TIP3   OH229613   5.052   4.562  14.408 -0.6646  0.2060 -0.6278
 2733TIP3    H129614   5.007   4.610  14.477 -1.0582 -0.8577 -0.1455
 2733TIP3    H229615   5.140   4.548  14.443 -0.2538  1.3675 -1.1473
 2734TIP3   OH229616   1.193   2.148   4.393 -0.3256  0.1364  0.0049
 2734TIP3    H129617   1.281   2.177   4.370 -0.3243  1.0206  1.0914
 2734TIP3    H229618   1.159   2.108   4.312  0.8656  0.2665 -0.5689
 2735TIP3   OH229619   2.038   6.650  15.209 -0.2337 -0.0585  0.7037
 2735TIP3    H129620   1.971   6.610  15.265 -1.2577  0.3266 -0.2118
 2735TIP3    H229621   2.116   6.655  15.264 -1.4104  0.9730  2.3327
 2736TIP3   OH229622   6.608   5.784   2.784 -0.1447  0.1361 -0.1014
 2736TIP3    H129623   6.697   5.809   2.763 -0.2528  1.1773  0.6794
 2736TIP3    H229624   6.561   5.789   2.700 -0.0734  2.1689 -0.0442
 2737TIP3   OH229625   0.201   0.715  15.361  0.6048  0.1740  0.0208
 2737TIP3    H129626   0.139   0.650  15.329 -0.7961  1.4378  0.0613
 2737TIP3    H229627   0.189   0.714  15.456  0.2652  0.7642 -0.0093
 2738TIP3   OH229628   5.725   1.342  10.868 -0.4447 -0.3452 -0.1261
 2738TIP3    H129629   5.782   1.265  10.871 -1.5697 -1.2222 -1.1229
 2738TIP3    H229630   5.737   1.378  10.780 -0.4528  0.2227  0.0986
 2739TIP3   OH229631   1.594   0.606   5.667  0.3335  0.6856 -0.6783
 2739TIP3    H129632   1.620   0.609   5.759  0.5950  1.1965 -0.7675
 2739TIP3    H229633   1.658   0.661   5.622  0.0627  0.6326 -1.1335
 2740TIP3   OH229634   3.851   3.234  11.152 -0.1593 -0.0473  0.1808
 2740TIP3    H129635   3.775   3.284  11.123  1.1842  1.1397 -1.4126
 2740TIP3    H229636   3.926   3.288  11.129  1.1438 -0.3654  3.3793
 2741TIP3   OH229637   2.817   5.193   0.095  0.4621  0.2334 -0.6577
 2741TIP3    H129638   2.794   5.224   0.183 -3.4399  1.5903 -2.0621
 2741TIP3    H229639   2.847   5.103   0.109  1.5067  0.9681  2.2224
 2742TIP3   OH229640   3.570   1.494   3.291  0.0119 -0.2537 -0.2326
 2742TIP3    H129641   3.555   1.419   3.233 -0.1845  0.5501 -1.2417
 2742TIP3    H229642   3.571   1.570   3.232 -2.0282  0.7847  0.9935
 2743TIP3   OH229643   5.555   0.336   0.194  0.2829  0.5434 -0.7208
 2743TIP3    H129644   5.604   0.263   0.157  0.0719  0.9373 -1.7865
 2743TIP3    H229645   5.466   0.324   0.162  0.3436  1.5139 -1.2735
 2744TIP3   OH229646   3.483   3.646  11.217 -0.3135 -0.0248 -0.5210
 2744TIP3    H129647   3.416   3.607  11.272  1.4791 -0.5909  1.3402
 2744TIP3    H229648   3.462   3.616  11.129 -1.0257 -2.3188  0.3777
 2745TIP3   OH229649   4.946   6.583  14.590 -0.5621 -0.0080 -0.5922
 2745TIP3    H129650   4.989   6.623  14.665 -1.1742 -1.8585  0.7682
 2745TIP3    H229651   5.002   6.607  14.516  1.2240  0.0701  0.7350
 2746TIP3   OH229652   5.395   0.648  16.901  0.2956  0.0007 -0.1974
 2746TIP3    H129653   5.368   0.560  16.928 -0.2999  0.3377  0.3194
 2746TIP3    H229654   5.457   0.676  16.969 -1.0450  0.7661  0.7404
 2747TIP3   OH229655   2.597   1.201  11.772  0.3009 -0.5850 -0.2161
 2747TIP3    H129656   2.502   1.187  11.771 -0.0745  1.7975 -0.4873
 2747TIP3    H229657   2.625   1.171  11.858 -1.2562  1.8728  1.2064
 2748TIP3   OH229658   2.419   6.254   4.300  0.1492  0.1052  0.1880
 2748TIP3    H129659   2.342   6.200   4.279 -0.5195  1.2511 -0.3374
 2748TIP3    H229660   2.493   6.195   4.289 -0.6389 -0.9839  0.5752
 2749TIP3   OH229661   0.328   2.269  15.412  0.1754 -0.2802  0.1208
 2749TIP3    H129662   0.342   2.298  15.322  1.3594  1.4377  0.8161
 2749TIP3    H229663   0.309   2.350  15.460 -2.8188 -1.4250  1.0190
 2750TIP3   OH229664   0.021   0.579   1.893 -0.0821 -0.0871 -0.1415
 2750TIP3    H129665  -0.009   0.640   1.826 -0.5927 -0.1479  0.0214
 2750TIP3    H229666   0.067   0.634   1.957  0.9245 -0.1219 -0.8484
 2751TIP3   OH229667   1.355   1.299  15.747 -0.0657  0.4135 -0.1691
 2751TIP3    H129668   1.334   1.214  15.707  1.8936  0.5080 -1.4893
 2751TIP3    H229669   1.375   1.356  15.673  0.1364  1.6103  0.7871
 2752TIP3   OH229670   0.702   4.846  15.348 -0.4594 -0.1369  0.1543
 2752TIP3    H129671   0.762   4.801  15.288 -1.0763 -0.1647 -0.4461
 2752TIP3    H229672   0.643   4.777  15.378 -1.1632  0.1930 -0.4647
 2753TIP3   OH229673   0.649   3.013  10.909 -0.1356 -0.2276 -0.3700
 2753TIP3    H129674   0.678   2.978  10.825 -0.4542 -0.6136 -0.3198
 2753TIP3    H229675   0.643   3.107  10.895  0.2900 -0.2368 -0.6360
 2754TIP3   OH229676   2.557   2.484   3.861  0.5542  0.1671  0.8273
 2754TIP3    H129677   2.510   2.531   3.931 -0.9793  0.1344 -0.1606
 2754TIP3    H229678   2.488   2.442   3.810  1.6784  0.1075 -0.6648
 2755TIP3   OH229679   4.199   4.677   1.340 -0.0481  0.0228 -0.4053
 2755TIP3    H129680   4.167   4.670   1.430  1.3585  1.3246  0.2162
 2755TIP3    H229681   4.287   4.639   1.343  0.7252  1.7184 -0.8085
 2756TIP3   OH229682   0.785   4.873  11.394 -0.0025  0.0843 -0.0909
 2756TIP3    H129683   0.861   4.896  11.448  0.9128  1.1683 -1.8068
 2756TIP3    H229684   0.817   4.808  11.332 -1.1331 -1.4025  0.8510
 2757TIP3   OH229685   1.131   2.014   2.042 -0.1784 -0.3906  0.2507
 2757TIP3    H129686   1.043   2.002   2.005 -0.6302  0.5992  0.9832
 2757TIP3    H229687   1.116   2.032   2.135  0.6383  2.3418 -0.1053
 2758TIP3   OH229688   0.589   4.913  13.213 -0.0236 -0.6056  0.5510
 2758TIP3    H129689   0.605   5.007  13.225  2.8542 -0.8597 -0.7513
 2758TIP3    H229690   0.537   4.908  13.133  3.9966 -0.2309 -2.2968
 2759TIP3   OH229691   1.389   3.826  10.750  0.2938 -0.6680  0.3519
 2759TIP3    H129692   1.443   3.766  10.699 -1.3639 -0.2842 -1.9405
 2759TIP3    H229693   1.364   3.777  10.828  1.8012 -1.7212  0.1842
 2760TIP3   OH229694   2.631   1.175   5.192 -0.7643 -0.2612 -0.2283
 2760TIP3    H129695   2.561   1.227   5.231 -2.1869 -1.6676 -0.8107
 2760TIP3    H229696   2.699   1.238   5.169 -1.9593  1.1671  0.1193
 2761TIP3   OH229697   5.864   0.013  17.033  0.8963  0.3169  0.0044
 2761TIP3    H129698   5.899   0.074  17.098  0.7302 -0.3036  0.6784
 2761TIP3    H229699   5.795   0.063  16.988 -0.6476 -0.0325  1.9355
 2762TIP3   OH229700   4.106   2.036  14.932  0.2447 -0.4139 -0.1581
 2762TIP3    H129701   4.103   2.060  14.839  0.3624 -1.4167 -0.4287
 2762TIP3    H229702   4.014   2.032  14.958  0.2227  0.2293 -0.1360
 2763TIP3   OH229703   0.232   3.539  16.926 -0.8425  0.2958  0.5143
 2763TIP3    H129704   0.300   3.520  16.991 -0.2819  1.3770  0.2734
 2763TIP3    H229705   0.281   3.570  16.849 -1.6292  1.3705  0.4376
 2764TIP3   OH229706   2.558   2.820  15.222 -0.0487  0.1298  0.5438
 2764TIP3    H129707   2.613   2.876  15.168 -0.4229 -0.7638 -0.7918
 2764TIP3    H229708   2.619   2.773  15.279  0.3386  1.1324  0.9600
 2765TIP3   OH229709   0.967   0.579   6.076 -0.3128  0.3246  0.0113
 2765TIP3    H129710   0.936   0.629   6.151  0.4790  0.4718  0.2475
 2765TIP3    H229711   0.956   0.488   6.101  2.3809  0.3390  1.3673
 2766TIP3   OH229712   2.470   2.930  16.745 -0.1838 -0.5943  0.6752
 2766TIP3    H129713   2.429   2.858  16.794  0.3887  0.3880  2.6428
 2766TIP3    H229714   2.560   2.933  16.777 -0.0998  0.7615  0.3465
 2767TIP3   OH229715   2.567   0.111  15.187  0.0451 -0.0675 -0.2626
 2767TIP3    H129716   2.610   0.196  15.178  1.4697 -0.8250 -0.7324
 2767TIP3    H229717   2.626   0.049  15.145 -1.3933 -1.1847 -0.7127
 2768TIP3   OH229718   5.069   1.742  13.089 -0.1592  0.4001  0.3358
 2768TIP3    H129719   4.974   1.737  13.081 -0.2018 -1.3994  1.5465
 2768TIP3    H229720   5.091   1.832  13.065 -1.9362  0.2535 -2.0233
 2769TIP3   OH229721   5.811   0.784   3.273  0.1592 -0.2257 -0.6089
 2769TIP3    H129722   5.863   0.864   3.266 -1.3198  0.9052  1.0263
 2769TIP3    H229723   5.817   0.760   3.366 -2.1789 -0.1111 -0.4152
 2770TIP3   OH229724   3.086   3.158   4.774  0.4002  0.1139  0.4949
 2770TIP3    H129725   3.112   3.104   4.700 -0.6501  2.1528 -1.3958
 2770TIP3    H229726   3.167   3.193   4.809  0.7927  0.1256 -0.4359
 2771TIP3   OH229727   4.290   0.977   3.299 -0.0105  0.2858  0.0631
 2771TIP3    H129728   4.210   0.938   3.264  0.0315  0.9070 -0.7321
 2771TIP3    H229729   4.339   1.007   3.222  0.7112  0.4491  0.5730
 2772TIP3   OH229730   1.118   5.513   2.887 -0.1870 -0.3652 -0.0851
 2772TIP3    H129731   1.029   5.542   2.903  0.2188  1.5648 -1.2184
 2772TIP3    H229732   1.172   5.565   2.947  0.2400 -1.1112  0.1929
 2773TIP3   OH229733   0.089   4.444   2.999  0.1072  0.2450 -0.2127
 2773TIP3    H129734   0.062   4.480   3.084 -3.7879  2.3437 -2.1789
 2773TIP3    H229735   0.130   4.519   2.954  1.5480 -0.6824 -0.4862
 2774TIP3   OH229736   0.373   3.532  12.187 -0.1011  0.1229 -0.0569
 2774TIP3    H129737   0.408   3.451  12.224 -1.4975 -0.7647 -0.6633
 2774TIP3    H229738   0.406   3.534  12.097 -0.7068 -0.1587 -0.2844
 2775TIP3   OH229739   3.610   6.461  15.475 -0.4470 -0.0068  0.6870
 2775TIP3    H129740   3.587   6.553  15.480 -0.9814 -0.1500  0.8947
 2775TIP3    H229741   3.528   6.417  15.451  0.2798 -0.1841 -1.6454
 2776TIP3   OH229742   4.419   5.558   6.255  0.5746 -1.1155 -0.2500
 2776TIP3    H129743   4.471   5.638   6.257 -0.3290 -0.5456  0.9428
 2776TIP3    H229744   4.464   5.498   6.315  0.6315 -1.1140 -0.2913
 2777TIP3   OH229745   3.072   3.634   5.952  0.1852 -0.1903  0.0953
 2777TIP3    H129746   3.137   3.666   6.015  1.3868 -1.7185 -0.3352
 2777TIP3    H229747   3.029   3.561   5.995 -0.3615  0.0178 -0.0995
 2778TIP3   OH229748   6.329   0.458   4.033  0.1255 -0.2054  0.0922
 2778TIP3    H129749   6.361   0.542   4.066 -1.4523  0.5306 -0.2131
 2778TIP3    H229750   6.378   0.393   4.083  0.3888  0.8919  1.3006
 2779TIP3   OH229751   6.249   6.502  11.247 -0.2536  0.1150  0.2211
 2779TIP3    H129752   6.191   6.571  11.277 -0.4679 -0.5868  1.4312
 2779TIP3    H229753   6.191   6.434  11.213 -0.1104 -0.2238  0.6498
 2780TIP3   OH229754   1.168   1.894  15.581  0.3490 -0.2605 -0.2537
 2780TIP3    H129755   1.202   1.917  15.667  1.2290 -0.6540 -0.4880
 2780TIP3    H229756   1.100   1.829  15.599 -0.2279  0.4672  0.2150
 2781TIP3   OH229757   0.407   4.671   6.043  0.2066  0.1830 -0.6255
 2781TIP3    H129758   0.457   4.619   6.107 -0.9274 -1.1039 -0.7648
 2781TIP3    H229759   0.349   4.725   6.095  0.8706  0.8008 -0.5073
 2782TIP3   OH229760   1.870   2.566   4.285  0.2275  0.3094 -0.3107
 2782TIP3    H129761   1.891   2.553   4.193 -0.7277  1.6081 -0.7398
 2782TIP3    H229762   1.875   2.479   4.324  2.0517 -0.0455 -1.2803
 2783TIP3   OH229763   5.210   5.915  11.789 -0.2197 -0.0678  0.6211
 2783TIP3    H129764   5.136   5.911  11.728 -0.1068  1.3942  0.3708
 2783TIP3    H229765   5.172   5.941  11.873 -0.1107 -0.1668  0.7023
 2784TIP3   OH229766   4.394   0.054   4.555 -0.5832  0.0844 -0.5076
 2784TIP3    H129767   4.392  -0.029   4.603 -1.6167 -0.3619 -1.3102
 2784TIP3    H229768   4.392   0.121   4.624 -2.6065 -0.5475  0.1022
 2785TIP3   OH229769   6.003   0.488  12.859  0.3447 -0.1601 -0.1006
 2785TIP3    H129770   6.010   0.553  12.928  1.0842  0.0216 -0.3418
 2785TIP3    H229771   6.051   0.527  12.785  0.0990 -0.6250 -0.5058
 2786TIP3   OH229772   6.136   1.529   1.751  0.4657 -0.2633 -0.2082
 2786TIP3    H129773   6.171   1.473   1.820 -1.1838 -1.2813 -0.1747
 2786TIP3    H229774   6.042   1.531   1.767 -0.3376 -2.7058 -3.9727
 2787TIP3   OH229775   5.906   1.190   1.574  0.1863  0.3158  0.4209
 2787TIP3    H129776   5.895   1.140   1.655  1.7308 -1.3048 -0.3297
 2787TIP3    H229777   5.823   1.178   1.527  0.1240 -0.6327  0.7528
 2788TIP3   OH229778   3.281   5.894   4.966  0.1272 -0.1724  0.4596
 2788TIP3    H129779   3.338   5.920   5.038 -0.1225  0.9483  0.2527
 2788TIP3    H229780   3.193   5.890   5.004 -0.2852  2.1775 -0.1779
 2789TIP3   OH229781   2.114   0.098   4.349  0.5564 -0.0723 -0.0247
 2789TIP3    H129782   2.086   0.023   4.401  1.1265  0.9356  1.7707
 2789TIP3    H229783   2.124   0.169   4.412  0.2735  1.4682 -1.6459
 2790TIP3   OH229784   4.963   4.511   3.268  0.2582 -0.3289 -0.6337
 2790TIP3    H129785   5.004   4.425   3.264  2.7679  0.7274  0.9814
 2790TIP3    H229786   5.001   4.559   3.194  0.5960  0.0921 -0.1889
 2791TIP3   OH229787   4.245   6.616  12.345  0.3887  0.1360  0.3693
 2791TIP3    H129788   4.277   6.535  12.384  0.0114 -0.4055 -0.4402
 2791TIP3    H229789   4.258   6.605  12.251  0.4244  1.0514  0.2614
 2792TIP3   OH229790   3.422   5.391   2.940 -0.3352 -0.4000  0.3459
 2792TIP3    H129791   3.391   5.452   2.873  0.1153  0.2941  0.7501
 2792TIP3    H229792   3.511   5.420   2.958 -0.7659  0.0216  1.8981
 2793TIP3   OH229793   5.610   3.760   1.126  0.4705 -0.2118  0.0626
 2793TIP3    H129794   5.519   3.770   1.153  0.7032  0.7552  0.4963
 2793TIP3    H229795   5.626   3.832   1.066  1.8958  1.6278  2.5343
 2794TIP3   OH229796   3.617   1.678  16.929 -0.6692 -0.7957  0.5249
 2794TIP3    H129797   3.611   1.618  17.003 -0.9273 -0.3130  0.8982
 2794TIP3    H229798   3.703   1.718  16.937  0.0106 -2.0076 -0.4245
 2795TIP3   OH229799   3.189   1.531  14.634 -0.4172  0.1193 -0.3428
 2795TIP3    H129800   3.258   1.560  14.694 -1.6329  0.9039  0.7073
 2795TIP3    H229801   3.166   1.609  14.584  0.7183 -0.5770 -1.9865
 2796TIP3   OH229802   0.535   2.144   0.458 -0.2598  0.2757 -0.8021
 2796TIP3    H129803   0.618   2.159   0.503 -0.9264  0.7996  0.2533
 2796TIP3    H229804   0.480   2.218   0.482 -0.9445  0.0818 -1.7353
 2797TIP3   OH229805   6.483   4.387   4.956 -0.1135 -0.4925 -0.0206
 2797TIP3    H129806   6.468   4.297   4.927 -3.8319  0.4998 -1.4445
 2797TIP3    H229807   6.491   4.438   4.875 -0.1858  0.7767  0.7510
 2798TIP3   OH229808   0.882   5.908  15.986  0.0483  0.0022  0.4369
 2798TIP3    H129809   0.901   5.980  16.046  0.7706 -0.1318  0.3727
 2798TIP3    H229810   0.849   5.951  15.907 -0.2486  0.2170  0.6752
 2799TIP3   OH229811   2.054   1.215   4.908 -0.4529  0.2515 -0.0531
 2799TIP3    H129812   2.034   1.251   4.995  0.6633  2.3407 -0.6164
 2799TIP3    H229813   1.970   1.219   4.861 -0.5000  1.5440  0.1151
 2800TIP3   OH229814   4.337   6.017   1.030 -0.2135 -0.3528  0.4955
 2800TIP3    H129815   4.269   6.083   1.046  0.3688 -0.1232  2.1567
 2800TIP3    H229816   4.403   6.064   0.978 -2.0073 -1.0276 -2.5112
 2801TIP3   OH229817   2.678   0.743   5.438  0.3952  0.0370 -0.4083
 2801TIP3    H129818   2.757   0.796   5.429  0.8890 -0.9503 -1.9890
 2801TIP3    H229819   2.606   0.802   5.417  0.9335  0.1629 -1.9620
 2802TIP3   OH229820   2.720   1.404   3.655 -0.3135 -0.6261 -0.1906
 2802TIP3    H129821   2.796   1.361   3.695  0.5513  1.3654  0.3842
 2802TIP3    H229822   2.661   1.332   3.634 -0.0297 -1.9244  3.0415
 2803TIP3   OH229823   1.064   3.641  17.097 -0.2828  0.3129 -0.2248
 2803TIP3    H129824   1.160   3.639  17.094 -0.2344  1.5570  0.1073
 2803TIP3    H229825   1.040   3.715  17.042 -1.1444 -0.9823 -1.6354
 2804TIP3   OH229826   3.929   0.048  16.279 -0.1644  0.1413 -0.1336
 2804TIP3    H129827   3.833   0.047  16.282 -0.2110 -1.7586 -1.1885
 2804TIP3    H229828   3.952  -0.037  16.241  1.9516  0.4722  0.3689
 2805TIP3   OH229829   5.190   4.743   0.196  0.3555  0.4187  0.0256
 2805TIP3    H129830   5.121   4.704   0.249 -0.1407  1.3795  0.0801
 2805TIP3    H229831   5.187   4.695   0.113  2.1785 -2.1815  1.4103
 2806TIP3   OH229832   2.349   1.846  11.044 -0.1919 -0.5515 -0.3573
 2806TIP3    H129833   2.409   1.905  10.998  0.0080 -0.4149  0.0810
 2806TIP3    H229834   2.263   1.868  11.009 -0.1696  0.2882  0.1012
 2807TIP3   OH229835   5.983   4.792   6.885  0.1450 -0.0034  0.1513
 2807TIP3    H129836   6.018   4.797   6.796 -1.9606 -0.3657 -0.7239
 2807TIP3    H229837   5.958   4.700   6.895  1.2559 -0.1817  1.4935
 2808TIP3   OH229838   5.927   6.684   3.202 -0.6414  1.2466 -0.6182
 2808TIP3    H129839   5.924   6.719   3.291  1.2046  1.5091 -0.6375
 2808TIP3    H229840   5.959   6.595   3.212 -2.6196  0.4875 -0.8318
 2809TIP3   OH229841   0.630   1.141  10.843 -0.0404 -0.3846  0.4068
 2809TIP3    H129842   0.707   1.161  10.789 -0.8140 -1.2746 -1.0741
 2809TIP3    H229843   0.590   1.065  10.800 -3.8296  2.2661 -1.0573
 2810TIP3   OH229844   5.163   6.128  16.576  0.3228  0.1661  0.3291
 2810TIP3    H129845   5.252   6.133  16.609  0.9207  0.8254 -1.3303
 2810TIP3    H229846   5.143   6.216  16.545 -1.2961  0.2884  1.6319
 2811TIP3   OH229847   6.172   2.197   0.513  0.0260 -0.1896  0.1421
 2811TIP3    H129848   6.220   2.243   0.582 -2.7354  0.8077  1.4978
 2811TIP3    H229849   6.131   2.268   0.462  0.7280 -0.9798 -1.5712
 2812TIP3   OH229850   0.169   0.345   2.963 -0.1789 -0.2606  0.1584
 2812TIP3    H129851   0.229   0.294   2.909  1.1482  2.0161 -0.5875
 2812TIP3    H229852   0.194   0.325   3.053  0.3385 -0.9002 -0.1303
 2813TIP3   OH229853   3.571   3.620  11.794 -0.5714  0.5059 -0.5189
 2813TIP3    H129854   3.574   3.577  11.880  1.1382 -0.2891 -0.9403
 2813TIP3    H229855   3.630   3.567  11.739 -0.8253  1.6214 -1.8897
 2814TIP3   OH229856   1.666   0.675  14.306  0.1619  0.3528 -0.6089
 2814TIP3    H129857   1.580   0.647  14.274 -0.6996  2.8228 -0.5759
 2814TIP3    H229858   1.667   0.769  14.291  2.8937  0.3470 -0.6103
 2815TIP3   OH229859   5.173   2.200   4.019  0.6546  0.0116  0.2987
 2815TIP3    H129860   5.157   2.149   4.098  0.8159  0.2461  0.4836
 2815TIP3    H229861   5.211   2.138   3.957 -1.0857 -0.5933 -0.1875
 2816TIP3   OH229862   4.995   4.589  11.469 -0.0063  0.3511 -0.4832
 2816TIP3    H129863   4.956   4.609  11.554 -1.3316  0.7167 -1.1584
 2816TIP3    H229864   4.921   4.559  11.416  0.9600 -0.7054 -1.2468
 2817TIP3   OH229865   3.220   6.485   4.832 -0.1717  0.4784  0.0105
 2817TIP3    H129866   3.242   6.576   4.854 -1.4879  1.2779 -1.7884
 2817TIP3    H229867   3.181   6.450   4.912 -0.5270  1.7979  0.4329
 2818TIP3   OH229868   4.525   1.384  16.408  0.3320 -0.7038  0.0544
 2818TIP3    H129869   4.494   1.336  16.331 -1.7306  1.5749 -0.6044
 2818TIP3    H229870   4.573   1.459  16.372  0.2574 -0.1895  1.0142
 2819TIP3   OH229871   6.108   4.242   4.575 -0.3219 -0.3575  0.7512
 2819TIP3    H129872   6.021   4.214   4.547  0.3463  1.2374 -3.2312
 2819TIP3    H229873   6.099   4.336   4.589  0.7511 -0.2240  0.5329
 2820TIP3   OH229874   0.281   3.575  16.440 -0.0300 -0.7215  0.3004
 2820TIP3    H129875   0.230   3.544  16.364  0.1516  1.2751 -0.6844
 2820TIP3    H229876   0.372   3.572  16.410  0.0778 -0.3886  0.5904
 2821TIP3   OH229877   2.580   6.220  14.689  0.2581 -0.1632 -0.3270
 2821TIP3    H129878   2.660   6.232  14.739 -0.6863  1.6569  0.8266
 2821TIP3    H229879   2.518   6.182  14.751 -0.5231  0.8622 -0.4528
 2822TIP3   OH229880   2.401   4.655  10.851 -0.6456 -0.4063 -0.1907
 2822TIP3    H129881   2.457   4.653  10.774 -0.5506 -0.6349 -0.1165
 2822TIP3    H229882   2.314   4.677  10.817 -0.8061 -1.4530 -0.4966
 2823TIP3   OH229883   0.651   4.261  15.946 -0.0386 -0.3074 -0.7262
 2823TIP3    H129884   0.610   4.342  15.977  0.7471 -0.3900  0.5791
 2823TIP3    H229885   0.579   4.211  15.909 -1.1787 -0.4944  1.6190
 2824TIP3   OH229886   3.096   2.149   4.461 -0.2905  0.2266 -0.0573
 2824TIP3    H129887   3.166   2.134   4.398 -0.7287  1.1208 -0.7743
 2824TIP3    H229888   3.112   2.237   4.495  0.0433 -0.3145  1.2228
 2825TIP3   OH229889   0.955   0.787  10.561 -0.8322 -0.3687 -0.5502
 2825TIP3    H129890   0.944   0.693  10.550 -1.1800 -0.7662  2.6258
 2825TIP3    H229891   0.866   0.823  10.556 -1.1191 -0.6827  1.7114
 2826TIP3   OH229892   5.096   1.394  15.608 -0.2396  0.1685  0.1899
 2826TIP3    H129893   5.132   1.420  15.524  0.2833  0.6227  0.5482
 2826TIP3    H229894   5.122   1.464  15.668  0.1570 -0.5812  0.9122
 2827TIP3   OH229895   3.638   1.410  16.862 -0.2571  0.1423 -0.4539
 2827TIP3    H129896   3.577   1.364  16.920 -0.3658  1.6807  0.6628
 2827TIP3    H229897   3.610   1.501  16.865  1.1669  0.6130 -1.1229
 2828TIP3   OH229898   1.902   5.058  13.892  0.0274 -0.2816 -0.0322
 2828TIP3    H129899   1.958   5.125  13.853  1.2619 -0.3461  1.6182
 2828TIP3    H229900   1.823   5.106  13.919  0.3437  0.2570 -0.0641
 2829TIP3   OH229901   3.162   4.335  11.525  0.1081 -0.1050  0.3442
 2829TIP3    H129902   3.205   4.250  11.515 -0.5349 -0.3273 -0.6611
 2829TIP3    H229903   3.176   4.379  11.441  1.6859  1.3860  1.3609
 2830TIP3   OH229904   5.902   4.521   2.283 -0.2143  0.1034 -0.1731
 2830TIP3    H129905   5.886   4.611   2.313  3.3847  0.0662  2.1235
 2830TIP3    H229906   5.916   4.471   2.363 -3.2947 -2.8190 -1.3525
 2831TIP3   OH229907   3.091   4.383  16.544  0.2723 -0.0790  0.2252
 2831TIP3    H129908   3.108   4.455  16.483 -0.2682  0.1642  0.3620
 2831TIP3    H229909   3.020   4.333  16.503  1.1413 -0.9527 -0.2232
 2832TIP3   OH229910   6.461   3.834   0.576  0.0337  0.2118 -0.3378
 2832TIP3    H129911   6.414   3.789   0.505  0.8695 -0.8305 -0.2447
 2832TIP3    H229912   6.410   3.815   0.654 -1.4483  2.1888 -0.7792
 2833TIP3   OH229913   5.723   1.541  15.171 -0.8146  0.8272 -0.7456
 2833TIP3    H129914   5.761   1.542  15.083 -1.6753  1.5752 -1.1111
 2833TIP3    H229915   5.732   1.450  15.200  1.7700  1.1075 -0.5864
 2834TIP3   OH229916   2.803   5.633   4.894  0.0782 -0.2529 -0.3037
 2834TIP3    H129917   2.720   5.605   4.855  0.4676 -2.0282  0.1129
 2834TIP3    H229918   2.780   5.711   4.946 -0.8048  0.9096 -2.3970
 2835TIP3   OH229919   2.939   3.717   3.296  0.2912  0.2201 -0.7384
 2835TIP3    H129920   3.000   3.682   3.362 -0.2087  0.7021 -0.0191
 2835TIP3    H229921   2.958   3.666   3.217  0.5715 -0.6914 -0.0946
 2836TIP3   OH229922   1.334   6.231   0.840 -0.5136  0.2215  0.7341
 2836TIP3    H129923   1.374   6.249   0.755  0.4510  1.9319  1.5292
 2836TIP3    H229924   1.355   6.139   0.858 -0.5706 -0.0999 -0.7767
 2837TIP3   OH229925   5.380   3.259   6.457  0.4249  0.5239  0.4537
 2837TIP3    H129926   5.368   3.266   6.552  2.6140  0.1004  0.7993
 2837TIP3    H229927   5.341   3.175   6.434  2.1073 -0.5526  1.4161
 2838TIP3   OH229928   3.520   3.668  14.387  0.2084  0.3116 -0.2854
 2838TIP3    H129929   3.616   3.675  14.384  0.3442 -1.1343  0.3376
 2838TIP3    H229930   3.490   3.745  14.339  1.6516  1.6657  0.9233
 2839TIP3   OH229931   6.267   4.032   2.264 -0.0180  0.2499  0.1044
 2839TIP3    H129932   6.203   3.974   2.221 -0.1760  1.0128 -0.7189
 2839TIP3    H229933   6.294   4.092   2.195  1.5315 -0.0068  0.4814
 2840TIP3   OH229934   2.852   6.023  13.666  0.7465  0.6515  0.4337
 2840TIP3    H129935   2.911   6.092  13.634 -0.3050  1.1224 -0.5246
 2840TIP3    H229936   2.897   5.941  13.646  1.2836  1.0173  0.1256
 2841TIP3   OH229937   3.809   3.601   5.330 -0.2914  0.1909 -0.0219
 2841TIP3    H129938   3.714   3.605   5.345 -0.5098 -1.5652 -0.8548
 2841TIP3    H229939   3.819   3.614   5.236  0.0243 -2.8489 -0.4634
 2842TIP3   OH229940   2.091   0.325  10.558  0.9267  0.2389 -0.5875
 2842TIP3    H129941   2.068   0.395  10.498  1.9791  0.4540 -0.7622
 2842TIP3    H229942   2.008   0.292  10.591  0.4006  1.0399 -1.1112
 2843TIP3   OH229943   4.791   6.649   0.557 -0.2360 -0.5017  0.6658
 2843TIP3    H129944   4.754   6.590   0.491  1.3954 -0.5194 -0.2743
 2843TIP3    H229945   4.834   6.592   0.620 -2.5816 -0.5312  2.2793
 2844TIP3   OH229946   0.321   4.804  13.558 -0.7818 -0.1473 -0.6722
 2844TIP3    H129947   0.407   4.763  13.555 -1.1367 -1.1080  1.4425
 2844TIP3    H229948   0.335   4.888  13.600 -1.0135 -0.7422  0.6280
 2845TIP3   OH229949   0.537   1.748  16.653  0.0659 -0.1800 -0.3086
 2845TIP3    H129950   0.593   1.808  16.702 -1.2367  0.5489  0.3040
 2845TIP3    H229951   0.450   1.758  16.692 -0.4851 -1.3602 -1.1851
 2846TIP3   OH229952   5.180   2.136   3.691  0.1957  0.4816  0.3592
 2846TIP3    H129953   5.246   2.067   3.692 -0.8322 -0.5141  0.0854
 2846TIP3    H229954   5.098   2.092   3.713 -0.5979  1.4861 -0.5176
 2847TIP3   OH229955   4.455   2.512   2.407  0.8688  0.0671  0.0219
 2847TIP3    H129956   4.423   2.426   2.378  0.4411  0.2858 -0.1632
 2847TIP3    H229957   4.423   2.573   2.340  1.1633  0.3733  0.1574
 2848TIP3   OH229958   0.967   0.026   3.096  0.2770 -0.1760 -0.0441
 2848TIP3    H129959   0.941   0.090   3.162  1.3457 -0.8257  1.0091
 2848TIP3    H229960   1.053   0.055   3.067  0.6534 -1.0103  0.2533
 2849TIP3   OH229961   0.958   0.272   1.115 -0.2795 -0.0326 -0.1575
 2849TIP3    H129962   0.921   0.200   1.167 -2.3007  0.2324 -1.1715
 2849TIP3    H229963   0.933   0.351   1.161  0.1945  0.1128 -0.1423
 2850TIP3   OH229964   5.632   6.524  16.931 -0.6777 -0.0631  0.1358
 2850TIP3    H129965   5.642   6.462  16.858  1.5818  0.4293 -0.0216
 2850TIP3    H229966   5.580   6.595  16.895  0.4883  0.2139 -1.0486
 2851TIP3   OH229967   2.420   3.087   4.745  0.0631 -0.1160 -0.3206
 2851TIP3    H129968   2.349   3.149   4.729  0.6088  0.4275 -0.6525
 2851TIP3    H229969   2.384   3.026   4.810 -0.6152  0.3002 -0.2956
 2852TIP3   OH229970   5.844   4.890  11.704 -0.1123  0.1509  0.1128
 2852TIP3    H129971   5.771   4.925  11.756  0.0496  0.2769  0.2574
 2852TIP3    H229972   5.904   4.964  11.695  0.3004 -0.1274  0.5423
 2853TIP3   OH229973   0.589   1.253   2.752  1.0627  0.3897 -0.2238
 2853TIP3    H129974   0.534   1.309   2.697  2.3095  2.4153  0.5354
 2853TIP3    H229975   0.609   1.306   2.829  1.1131 -1.6352  1.1912
 2854TIP3   OH229976   3.824   5.047   3.931 -0.1726  0.0331  0.2378
 2854TIP3    H129977   3.756   4.981   3.946 -0.0797 -0.6043 -1.9405
 2854TIP3    H229978   3.811   5.112   4.000 -2.3807 -0.5635  0.4009
 2855TIP3   OH229979   2.295   3.552  13.155 -0.0622 -0.1627 -0.0697
 2855TIP3    H129980   2.365   3.558  13.090 -1.4301  1.3978 -1.4503
 2855TIP3    H229981   2.223   3.510  13.109 -0.9424  0.6816  0.5059
 2856TIP3   OH229982   0.902   5.270   2.826 -0.3789 -0.5756  0.1652
 2856TIP3    H129983   0.826   5.268   2.884  0.5468 -0.4575  1.3981
 2856TIP3    H229984   0.878   5.332   2.757 -1.4279 -0.5982  0.4995
 2857TIP3   OH229985   0.526   4.858  11.325  0.3244  0.0344  0.2957
 2857TIP3    H129986   0.609   4.852  11.373 -0.1568 -0.3853  1.1004
 2857TIP3    H229987   0.465   4.807  11.379 -0.2174 -0.4797 -0.7995
 2858TIP3   OH229988   6.081   2.412  11.869 -0.2320  0.5564 -0.3476
 2858TIP3    H129989   6.041   2.471  11.806  1.1746  1.6458 -0.2555
 2858TIP3    H229990   6.063   2.324  11.836 -1.8368  1.0439 -0.7996
 2859TIP3   OH229991   2.051   4.481  12.974 -0.0203 -0.0835  0.8550
 2859TIP3    H129992   1.965   4.524  12.967  0.7798  1.4898  0.5483
 2859TIP3    H229993   2.085   4.483  12.884  0.8578  0.4110  1.1935
 2860TIP3   OH229994   2.902   1.869  13.280  0.2434  0.5589 -0.1211
 2860TIP3    H129995   2.938   1.908  13.200  0.4163  0.5616 -0.0421
 2860TIP3    H229996   2.884   1.944  13.337 -0.3326  0.5882 -0.3465
 2861TIP3   OH229997   3.651   2.666  12.434  0.5669  0.4668 -0.0936
 2861TIP3    H129998   3.633   2.752  12.472  0.9332  0.9333 -0.9598
 2861TIP3    H229999   3.650   2.606  12.509 -0.7715  1.0491  0.3682
 2862TIP3   OH230000   4.224   1.978  13.324  0.2350 -0.0164  0.2808
 2862TIP3    H130001   4.168   1.944  13.394 -0.2485 -1.2005 -0.6605
 2862TIP3    H230002   4.187   1.942  13.244  1.9875 -0.3363 -0.4137
 2863TIP3   OH230003   6.497   4.406  14.415 -0.3560  0.0526 -0.4641
 2863TIP3    H130004   6.512   4.497  14.388 -0.5263  0.0107 -0.7031
 2863TIP3    H230005   6.471   4.413  14.507  0.5812  0.1649 -0.2073
 2864TIP3   OH230006   2.946   4.054   5.023 -0.7921 -0.0264  0.0195
 2864TIP3    H130007   2.963   3.983   5.085  0.1596  0.6767  0.5654
 2864TIP3    H230008   2.861   4.032   4.985 -0.9591 -0.9411  0.9027
 2865TIP3   OH230009   0.151   5.849   2.932  0.0909  0.4956  0.5579
 2865TIP3    H130010   0.234   5.866   2.887 -0.8362  1.4543 -0.8317
 2865TIP3    H230011   0.166   5.768   2.980  1.1402 -0.5393 -1.4535
 2866TIP3   OH230012   0.297   5.706  16.207 -0.0271  0.0194 -0.2101
 2866TIP3    H130013   0.362   5.680  16.142 -0.7471  0.8881 -1.3127
 2866TIP3    H230014   0.344   5.709  16.289  0.5641 -2.6331 -0.4069
 2867TIP3   OH230015   4.307   6.190  12.675  0.2243  0.0956 -0.3560
 2867TIP3    H130016   4.255   6.270  12.689 -0.1451 -0.2648  0.3921
 2867TIP3    H230017   4.362   6.184  12.753 -0.5144 -0.9560  0.0949
 2868TIP3   OH230018   5.265   1.566  16.794 -0.4336 -0.2634 -0.2305
 2868TIP3    H130019   5.170   1.554  16.791 -0.0688 -3.5518 -0.7266
 2868TIP3    H230020   5.277   1.661  16.797 -3.7117  0.2281 -0.4671
 2869TIP3   OH230021   5.307   1.226   2.787 -0.3207 -0.2461  0.2794
 2869TIP3    H130022   5.402   1.231   2.790 -0.2734 -0.1357 -1.1922
 2869TIP3    H230023   5.278   1.316   2.794 -0.2772 -0.1826 -0.3180
 2870TIP3   OH230024   6.743   5.973  15.729 -0.3522  0.5416  0.0577
 2870TIP3    H130025   6.813   5.941  15.785 -2.7697 -0.8222  2.4158
 2870TIP3    H230026   6.737   5.908  15.658  0.2836  0.2525  0.2679
 2871TIP3   OH230027   6.117   5.509  15.516 -0.2726 -0.8920  0.4074
 2871TIP3    H130028   6.073   5.430  15.486  1.1729 -1.3650 -0.5289
 2871TIP3    H230029   6.162   5.483  15.596 -0.8740 -0.6604  0.8267
 2872TIP3   OH230030   1.299   2.017   4.641 -0.0979 -0.0197 -0.1407
 2872TIP3    H130031   1.264   2.071   4.570  1.1809 -0.9441 -1.5054
 2872TIP3    H230032   1.302   2.075   4.716 -1.3961  1.0122 -0.8664
 2873TIP3   OH230033   6.374   4.550  16.218 -0.3128 -0.6258  0.0603
 2873TIP3    H130034   6.336   4.564  16.131 -0.8730 -0.7250  0.2856
 2873TIP3    H230035   6.437   4.622  16.229 -2.2242  1.0088  0.6784
 2874TIP3   OH230036   6.297   4.235  15.074  0.8761  0.4588  0.0974
 2874TIP3    H130037   6.335   4.275  15.153 -0.9626  0.0603  1.2285
 2874TIP3    H230038   6.224   4.293  15.052  0.0732 -0.6016 -0.0487
 2875TIP3   OH230039   3.823   5.597   1.023 -0.1376 -0.3090  0.1183
 2875TIP3    H130040   3.800   5.568   0.935 -0.2350 -0.4526  0.1898
 2875TIP3    H230041   3.795   5.525   1.079  0.0159 -0.2608  0.2562
 2876TIP3   OH230042   1.026   1.403   4.791 -0.0406 -0.3179  0.4477
 2876TIP3    H130043   1.100   1.436   4.842 -0.6475  0.9890  0.4884
 2876TIP3    H230044   1.044   1.432   4.701  0.7652 -2.1725 -0.0227
 2877TIP3   OH230045   4.370   1.658  14.400 -0.1351  0.3731 -0.0942
 2877TIP3    H130046   4.410   1.573  14.383  2.7212  1.8829 -1.1435
 2877TIP3    H230047   4.360   1.661  14.496  0.8702 -0.6336  0.0491
 2878TIP3   OH230048   1.878   1.028  13.598  0.0327  0.7350 -0.6638
 2878TIP3    H130049   1.966   1.065  13.593 -0.2028  1.3010 -0.6605
 2878TIP3    H230050   1.844   1.038  13.509  0.7349 -1.3984 -1.1970
 2879TIP3   OH230051   5.263   5.690  10.775  0.6044  0.5725 -0.2447
 2879TIP3    H130052   5.285   5.780  10.799 -0.0158  0.8744 -0.7838
 2879TIP3    H230053   5.173   5.679  10.804  1.0531 -0.2433  0.8242
 2880TIP3   OH230054   4.139   4.801  13.269 -0.2829 -0.1865 -0.3884
 2880TIP3    H130055   4.187   4.722  13.244  1.8676  0.1093  2.4510
 2880TIP3    H230056   4.049   4.783  13.244  0.1004 -3.6769  0.4023
 2881TIP3   OH230057   0.888   0.411  14.690  0.2282 -0.1251  0.2572
 2881TIP3    H130058   0.808   0.451  14.723  1.5893  1.6181  1.5459
 2881TIP3    H230059   0.869   0.389  14.599 -0.9317  2.5068 -0.1725
 2882TIP3   OH230060   4.531   6.108  16.223 -0.3458 -0.5770  0.1507
 2882TIP3    H130061   4.513   6.200  16.241  1.1621 -0.5348  1.5415
 2882TIP3    H230062   4.444   6.069  16.207 -1.2176  0.6280  1.7516
 2883TIP3   OH230063   2.123   0.792   2.291 -0.2986 -0.5464 -0.2571
 2883TIP3    H130064   2.133   0.703   2.257 -1.6289 -0.2094 -1.5824
 2883TIP3    H230065   2.032   0.814   2.272 -0.1563  0.8570  0.6703
 2884TIP3   OH230066   3.935   3.323  12.876  0.2297 -0.0192  0.2754
 2884TIP3    H130067   3.889   3.242  12.900 -3.2653  0.8115 -3.0749
 2884TIP3    H230068   3.890   3.392  12.925 -0.4051  0.4723 -0.9619
 2885TIP3   OH230069   4.433   3.294   4.394  0.3919 -0.2052  0.3900
 2885TIP3    H130070   4.483   3.303   4.313 -0.4634  1.8808  0.0649
 2885TIP3    H230071   4.419   3.199   4.403  0.0590 -0.4498 -2.1819
 2886TIP3   OH230072   3.125   3.055  12.855 -0.4798 -0.0420  0.0447
 2886TIP3    H130073   3.155   3.086  12.941 -2.4438 -1.0765  1.1327
 2886TIP3    H230074   3.055   3.116  12.831  0.1169  0.2948 -0.8808
 2887TIP3   OH230075   3.605   4.238   3.799 -0.0519 -0.1382  0.3466
 2887TIP3    H130076   3.628   4.315   3.749  1.1535 -0.7362 -0.0405
 2887TIP3    H230077   3.684   4.216   3.848 -0.9939  0.0475  2.0292
 2888TIP3   OH230078   1.844   3.751   3.708 -0.7714  0.2574 -0.4315
 2888TIP3    H130079   1.914   3.778   3.649 -2.2670 -0.3957 -2.5384
 2888TIP3    H230080   1.795   3.685   3.659 -1.7208 -0.6969  1.7486
 2889TIP3   OH230081   3.305   0.369  14.566  0.5652  0.0398 -0.0949
 2889TIP3    H130082   3.250   0.443  14.592 -1.2215 -1.3895  0.3553
 2889TIP3    H230083   3.375   0.366  14.631  1.2517  1.9298 -0.7053
 2890TIP3   OH230084   6.673   2.269   4.663 -0.0873 -0.3393  0.4888
 2890TIP3    H130085   6.596   2.289   4.716 -0.7616 -2.0302  0.1807
 2890TIP3    H230086   6.718   2.353   4.653 -0.6409  0.2390  2.6273
 2891TIP3   OH230087   4.652   2.531   4.089  0.5364 -0.0421 -0.4554
 2891TIP3    H130088   4.704   2.600   4.130  1.0740 -1.1178  0.7322
 2891TIP3    H230089   4.685   2.526   3.999  1.7998 -0.0208 -0.0056
 2892TIP3   OH230090   6.039   3.480  14.462  0.1354 -0.1171 -0.4619
 2892TIP3    H130091   6.077   3.560  14.427  0.0220 -0.3180 -1.0383
 2892TIP3    H230092   6.046   3.490  14.557 -2.5096  1.8525 -0.4347
 2893TIP3   OH230093   3.527   5.247  15.504  0.0998  0.9265 -0.2909
 2893TIP3    H130094   3.464   5.284  15.566 -0.8067 -1.0164 -0.0400
 2893TIP3    H230095   3.553   5.322  15.449 -0.1972  2.3404  1.4616
 2894TIP3   OH230096   4.940   2.694  13.776 -0.1030 -0.1962 -0.6041
 2894TIP3    H130097   4.927   2.612  13.729  0.2662 -0.3015 -0.5206
 2894TIP3    H230098   4.891   2.758  13.725 -3.6435 -1.1343  1.4549
 2895TIP3   OH230099   4.776   5.070   5.981 -0.1662 -0.6915  0.0627
 2895TIP3    H130100   4.737   5.085   6.066 -0.0206 -4.3376  0.8488
 2895TIP3    H230101   4.704   5.040   5.926 -0.5332  2.8901 -1.5369
 2896TIP3   OH230102   4.787   3.228  11.822  0.1566 -0.3291  0.0556
 2896TIP3    H130103   4.698   3.234  11.788 -1.0138 -2.5660  2.4627
 2896TIP3    H230104   4.829   3.159  11.770 -0.4553 -1.2082  0.7020
 2897TIP3   OH230105   4.713   4.136  13.665 -0.4792  0.0322 -0.4200
 2897TIP3    H130106   4.761   4.072  13.718 -0.4826  0.2437 -0.1611
 2897TIP3    H230107   4.703   4.094  13.579 -1.4325 -0.7702  0.0712
 2898TIP3   OH230108   3.052   3.995  16.366 -0.2350 -0.2868  0.2100
 2898TIP3    H130109   3.004   4.078  16.360  2.8068  1.4468 -1.7689
 2898TIP3    H230110   3.105   4.003  16.445  0.0605 -0.3421  0.0165
 2899TIP3   OH230111   0.080   0.819   3.011 -0.2935  0.1518 -0.2476
 2899TIP3    H130112   0.068   0.741   3.065 -0.7639  0.7352  0.5023
 2899TIP3    H230113   0.165   0.807   2.969  1.3623  0.9791  2.7576
 2900TIP3   OH230114   3.114   0.492   5.531 -0.5627 -0.0923  0.7247
 2900TIP3    H130115   3.151   0.566   5.483  0.4325 -0.5231  0.8365
 2900TIP3    H230116   3.163   0.489   5.612  0.5053 -1.8922  0.0282
 2901TIP3   OH230117   4.020   4.996  16.632  0.1408 -0.3644 -0.2711
 2901TIP3    H130118   4.066   4.963  16.555 -0.7608 -0.1905 -0.8891
 2901TIP3    H230119   3.962   4.924  16.659 -2.4578  0.9348 -2.1287
 2902TIP3   OH230120   3.963   0.754  11.869 -0.0282  0.1608 -0.3453
 2902TIP3    H130121   3.874   0.785  11.855  0.0192  0.7152  0.5330
 2902TIP3    H230122   3.979   0.693  11.797 -0.6993  0.9646 -1.1876
 2903TIP3   OH230123   1.893   6.694   1.645  0.1690 -0.4491  0.1674
 2903TIP3    H130124   1.977   6.737   1.665  0.5959 -0.2604 -1.8851
 2903TIP3    H230125   1.907   6.653   1.559 -2.0374  0.1217 -0.4935
 2904TIP3   OH230126   4.989   5.035   3.510 -0.0447 -0.1834  0.3870
 2904TIP3    H130127   4.911   5.053   3.457  0.4953  2.2441  0.3952
 2904TIP3    H230128   5.003   5.115   3.560  1.3444 -1.3027  1.8245
 2905TIP3   OH230129   1.685   0.261   6.354 -0.2738 -0.3748 -0.0873
 2905TIP3    H130130   1.726   0.218   6.278 -1.6041  1.7679 -2.0771
 2905TIP3    H230131   1.636   0.191   6.398  1.7374 -1.9688 -0.3096
 2906TIP3   OH230132   6.031   5.533   4.969 -0.8429  0.0647  1.3169
 2906TIP3    H130133   6.082   5.546   5.049 -0.3031 -2.3709  1.3964
 2906TIP3    H230134   6.094   5.544   4.898 -0.3577 -2.0512  1.3884
 2907TIP3   OH230135   1.346   6.133   5.534 -0.0504  0.1016  0.3107
 2907TIP3    H130136   1.345   6.188   5.612 -0.8687  1.0947 -0.3916
 2907TIP3    H230137   1.432   6.149   5.495 -0.3829  1.0770 -0.0283
 2908TIP3   OH230138   3.698   0.492  15.595 -0.1004  0.1434  0.2813
 2908TIP3    H130139   3.660   0.471  15.681 -1.9552  0.0771 -0.5311
 2908TIP3    H230140   3.740   0.410  15.568  2.9586  0.9341  2.3169
 2909TIP3   OH230141   1.681   3.308  12.453 -0.5181  0.9034 -0.5716
 2909TIP3    H130142   1.659   3.346  12.538 -0.2353 -0.4545  0.1158
 2909TIP3    H230143   1.661   3.215  12.462  0.9329  0.4854 -1.5035
 2910TIP3   OH230144   1.314   5.140  12.467  0.0446  0.0549  1.1631
 2910TIP3    H130145   1.247   5.108  12.407  2.9223 -1.1887 -1.5891
 2910TIP3    H230146   1.327   5.069  12.529 -0.3549 -0.2091  0.9441
 2911TIP3   OH230147   3.116   1.201  11.110  0.2572 -0.0015 -1.0040
 2911TIP3    H130148   3.187   1.164  11.057 -2.1618 -1.3266 -3.4397
 2911TIP3    H230149   3.070   1.260  11.051 -3.0995 -2.2479 -0.7648
 2912TIP3   OH230150   1.284   6.725  11.246 -0.4536 -0.3343  0.2160
 2912TIP3    H130151   1.356   6.684  11.293 -0.6341 -0.3482  0.4815
 2912TIP3    H230152   1.205   6.695  11.292 -0.7229 -1.5848 -1.0239
 2913TIP3   OH230153   3.157   4.779   3.235  0.1038  0.5385 -0.2359
 2913TIP3    H130154   3.182   4.688   3.251 -2.1307 -0.0335  0.1679
 2913TIP3    H230155   3.133   4.781   3.142 -0.7256  0.4875 -0.0273
 2914TIP3   OH230156   4.547   2.794  13.571  0.4747 -0.0396  0.1302
 2914TIP3    H130157   4.528   2.801  13.478  1.1011 -1.2726 -0.1034
 2914TIP3    H230158   4.464   2.812  13.614  0.3694  1.3435 -0.6351
 2915TIP3   OH230159   1.951   4.772  15.449  0.9755 -0.1310 -0.1676
 2915TIP3    H130160   1.957   4.687  15.405  0.1791 -2.9307  4.7714
 2915TIP3    H230161   1.858   4.787  15.460  1.1122  1.4796 -1.0615
 2916TIP3   OH230162   3.436   2.396   1.884  0.2860  0.5582  0.7367
 2916TIP3    H130163   3.504   2.460   1.867  1.6964 -1.4423 -1.4602
 2916TIP3    H230164   3.481   2.324   1.929 -0.8323  0.1686  1.2560
 2917TIP3   OH230165   5.118   3.995  14.062 -0.6086  0.5087 -0.2135
 2917TIP3    H130166   5.210   3.971  14.059 -0.3554  1.4080  0.3067
 2917TIP3    H230167   5.073   3.923  14.017  0.3389  0.0738 -0.4717
 2918TIP3   OH230168   3.665   2.441  13.505  0.5276 -0.4285  0.2221
 2918TIP3    H130169   3.688   2.484  13.588 -0.9234 -0.5103  0.6859
 2918TIP3    H230170   3.695   2.351  13.515  1.2313 -0.1955  0.2660
 2919TIP3   OH230171   0.187   1.432   2.594  0.2611  0.2643 -0.0341
 2919TIP3    H130172   0.205   1.399   2.682  0.7932  1.3965  0.2960
 2919TIP3    H230173   0.154   1.521   2.608  0.7389  0.6074 -0.9952
 2920TIP3   OH230174   1.973   6.503   2.655 -0.2730  0.2322 -0.0137
 2920TIP3    H130175   1.963   6.475   2.746 -2.6279  0.4011 -0.1827
 2920TIP3    H230176   2.051   6.558   2.655 -0.4177  0.4862  1.9848
 2921TIP3   OH230177   3.208   1.547   1.535  0.4051 -0.2879  0.4014
 2921TIP3    H130178   3.119   1.525   1.506  0.9427 -1.1548 -0.6212
 2921TIP3    H230179   3.210   1.522   1.627  0.1063 -1.8070  0.0034
 2922TIP3   OH230180   2.473   4.911   0.314 -0.2308  0.1030 -0.6186
 2922TIP3    H130181   2.549   4.954   0.354 -1.0343  1.2472 -0.2859
 2922TIP3    H230182   2.422   4.878   0.388 -0.2226 -0.3632 -0.8239
 2923TIP3   OH230183   2.996   0.426  14.538 -0.0604  0.6178 -0.2388
 2923TIP3    H130184   3.066   0.487  14.515 -0.2959  0.2484 -2.0388
 2923TIP3    H230185   2.970   0.387  14.455 -0.0922 -1.7542  0.8526
 2924TIP3   OH230186   6.212   4.063   3.584  0.6239 -0.1852 -0.3022
 2924TIP3    H130187   6.131   4.109   3.608  1.4045  0.8315  0.4268
 2924TIP3    H230188   6.206   4.052   3.489  0.7739  2.1243 -0.6113
 2925TIP3   OH230189   4.093   5.860  13.517 -0.0845 -0.2915 -0.3566
 2925TIP3    H130190   4.007   5.840  13.552 -0.2429  0.7205 -0.1574
 2925TIP3    H230191   4.094   5.955  13.507  0.9446 -0.3067 -0.5129
 2926TIP3   OH230192   2.363   1.875   5.387  0.1404  0.5964  0.7524
 2926TIP3    H130193   2.419   1.817   5.438 -0.3654 -2.6936 -2.2575
 2926TIP3    H230194   2.408   1.886   5.304 -2.5052 -0.1618 -0.8360
 2927TIP3   OH230195   5.869   3.801   4.345  0.1190 -0.1196 -0.1643
 2927TIP3    H130196   5.880   3.841   4.259  0.5076  1.2137  0.4873
 2927TIP3    H230197   5.801   3.853   4.387  1.1719  0.3673  0.9797
 2928TIP3   OH230198   3.668   0.535  12.400 -0.2689  0.6113  0.1977
 2928TIP3    H130199   3.608   0.496  12.464 -0.8380  0.0849 -0.6537
 2928TIP3    H230200   3.622   0.529  12.317  0.9944  0.1413 -0.4814
 2929TIP3   OH230201   0.226   0.489   0.938 -0.0327 -0.0080 -0.2811
 2929TIP3    H130202   0.272   0.514   0.857  0.3618  0.0825 -0.0273
 2929TIP3    H230203   0.295   0.479   1.003 -0.5445  2.1427  0.6312
 2930TIP3   OH230204   6.083   1.663   2.979 -0.0210  0.5523 -0.0189
 2930TIP3    H130205   6.158   1.717   3.006 -1.0810  1.5490  0.9920
 2930TIP3    H230206   6.112   1.620   2.899  1.7630  0.6594  0.5547
 2931TIP3   OH230207   0.845   1.105   3.082 -0.1714  0.5939 -0.0042
 2931TIP3    H130208   0.855   1.151   3.166  2.0551  1.3563 -0.6623
 2931TIP3    H230209   0.916   1.138   3.028 -2.0376  0.6518 -2.4816
 2932TIP3   OH230210   5.647   4.733   3.527 -0.2018 -0.1950 -0.7400
 2932TIP3    H130211   5.552   4.737   3.531 -0.0981  1.7263  0.5727
 2932TIP3    H230212   5.666   4.655   3.474 -2.4482 -2.3123  1.4493
 2933TIP3   OH230213   2.003   5.970   2.701 -0.0705 -0.5455 -0.2715
 2933TIP3    H130214   2.087   5.937   2.672 -0.9832  0.1570 -3.9151
 2933TIP3    H230215   2.009   6.065   2.692  0.1510 -0.0978  3.5521
 2934TIP3   OH230216   1.823   6.538  11.401 -0.6738 -0.3804 -0.2303
 2934TIP3    H130217   1.788   6.474  11.339 -2.9119  0.3923  0.1656
 2934TIP3    H230218   1.787   6.510  11.486  0.8905 -0.3945  0.4427
 2935TIP3   OH230219   2.602   3.932  11.631  0.2183 -0.3303  0.1593
 2935TIP3    H130220   2.617   3.850  11.679  1.5874  0.3306  0.8808
 2935TIP3    H230221   2.684   3.948  11.584 -0.7925 -0.4972 -1.7276
 2936TIP3   OH230222   2.539   1.950  12.276 -0.6674 -0.0662  0.0701
 2936TIP3    H130223   2.469   1.996  12.230  1.3213  2.9373 -0.1161
 2936TIP3    H230224   2.530   1.977  12.367 -0.4339 -0.5636  0.2430
 2937TIP3   OH230225   3.281   6.371  13.927 -0.0531  0.3590 -0.8289
 2937TIP3    H130226   3.285   6.298  13.864  1.5796  0.8986 -1.3828
 2937TIP3    H230227   3.265   6.448  13.873 -0.0055  0.6453 -0.4294
 2938TIP3   OH230228   3.385   4.719   2.926 -0.4778 -0.2785  0.4583
 2938TIP3    H130229   3.400   4.811   2.906 -2.3521  0.4666  2.2740
 2938TIP3    H230230   3.442   4.700   3.000 -0.7723 -0.3278  0.6724
 2939TIP3   OH230231   4.636   4.927  13.013 -0.3357  0.0867  0.3551
 2939TIP3    H130232   4.729   4.945  12.999 -0.4046 -0.6568 -1.1070
 2939TIP3    H230233   4.630   4.832  13.023 -0.9873  0.0988  0.1217
 2940TIP3   OH230234   0.477   4.564   3.055  0.0966  0.0646 -0.0739
 2940TIP3    H130235   0.495   4.657   3.069 -0.3414  0.3669 -1.4510
 2940TIP3    H230236   0.404   4.563   2.992  0.1605 -1.2098 -0.1355
 2941TIP3   OH230237   6.295   1.778   3.072  0.1638 -0.5072  0.7485
 2941TIP3    H130238   6.301   1.823   3.157  1.1439 -0.2158  0.5323
 2941TIP3    H230239   6.330   1.690   3.089  1.0847 -0.1998  0.4764
 2942TIP3   OH230240   1.779   2.988  12.617  0.0397 -0.1236 -0.2034
 2942TIP3    H130241   1.841   2.943  12.675 -0.7141 -1.2790 -0.2788
 2942TIP3    H230242   1.716   3.029  12.677 -0.8608 -1.4943 -0.2004
 2943TIP3   OH230243   1.820   1.146   3.936  1.0805  0.5409  0.0190
 2943TIP3    H130244   1.812   1.051   3.923  0.0162  0.2804  2.2722
 2943TIP3    H230245   1.732   1.180   3.920  0.8118  0.7713  1.8575
 2944TIP3   OH230246   0.323   2.298   0.579 -0.2193  0.7063 -0.1429
 2944TIP3    H130247   0.275   2.334   0.504 -1.3923 -0.4216  0.0589
 2944TIP3    H230248   0.290   2.348   0.654  0.0005  0.9485 -0.2097
 2945TIP3   OH230249   1.782   4.221  10.342 -0.0292 -0.0609 -0.0593
 2945TIP3    H130250   1.701   4.171  10.333 -0.4316  0.5434  0.1687
 2945TIP3    H230251   1.755   4.305  10.379  0.6216  0.3660 -0.5219
 2946TIP3   OH230252   1.472   5.281  15.882 -0.2269 -0.3872 -0.0179
 2946TIP3    H130253   1.420   5.341  15.828 -0.9188 -1.3057 -0.3798
 2946TIP3    H230254   1.414   5.260  15.956 -0.0656 -0.7694  0.0017
 2947TIP3   OH230255   2.281   4.203   3.422 -0.4298 -0.1364 -0.2696
 2947TIP3    H130256   2.301   4.137   3.357  0.1619  0.8435 -1.0950
 2947TIP3    H230257   2.352   4.267   3.414 -1.8141  1.4047 -0.5706
 2948TIP3   OH230258   2.211   5.233   5.470 -0.3772  0.4852  0.2895
 2948TIP3    H130259   2.202   5.164   5.535  0.9137  0.9353  0.9707
 2948TIP3    H230260   2.305   5.251   5.467 -0.5381  1.1817 -0.9529
 2949TIP3   OH230261   1.851   0.839  12.193 -0.4668 -0.2268 -0.6191
 2949TIP3    H130262   1.791   0.785  12.142 -0.7752  0.1131 -0.6228
 2949TIP3    H230263   1.811   0.842  12.280 -1.3129  1.3297 -1.0396
 2950TIP3   OH230264   4.418   2.069  12.430  0.2792 -0.0878  0.0338
 2950TIP3    H130265   4.391   2.134  12.495  0.7009 -2.0164  2.1824
 2950TIP3    H230266   4.346   2.066  12.368 -0.8170  0.6733  1.2472
 2951TIP3   OH230267   3.642   1.038   5.793 -0.5703  0.3978  0.1546
 2951TIP3    H130268   3.684   0.953   5.808  1.7123  1.8341  2.5073
 2951TIP3    H230269   3.576   1.045   5.862  0.9200  1.4947  1.5252
 2952TIP3   OH230270   3.313   4.642  12.938  0.5771 -0.2596  0.1206
 2952TIP3    H130271   3.289   4.551  12.953  0.3378 -0.4574 -1.3967
 2952TIP3    H230272   3.362   4.641  12.855 -0.1252  1.0976 -0.3304
 2953TIP3   OH230273   3.411   0.132  16.736 -0.0507  0.1247 -0.1694
 2953TIP3    H130274   3.343   0.190  16.702  0.0089  0.5189  0.3660
 2953TIP3    H230275   3.452   0.183  16.807  1.0604  0.0573 -0.7472
 2954TIP3   OH230276   6.511   1.458   4.417  0.5480 -1.0226  0.3923
 2954TIP3    H130277   6.454   1.427   4.488  2.3139 -1.6693  1.5647
 2954TIP3    H230278   6.554   1.378   4.385 -0.7282 -0.8357 -1.8866
 2955TIP3   OH230279   3.578   6.657   2.338  0.1541  0.3556  0.2072
 2955TIP3    H130280   3.644   6.660   2.268 -1.0042  1.5407 -0.8580
 2955TIP3    H230281   3.626   6.628   2.415  1.4176 -1.2495 -1.1372
 2956TIP3   OH230282   3.206   3.973  16.601  0.1336 -0.7077 -0.1445
 2956TIP3    H130283   3.176   4.047  16.654  0.9289 -1.2230  1.0378
 2956TIP3    H230284   3.290   3.948  16.640 -1.3104 -3.8516  1.0676
 2957TIP3   OH230285   0.271   2.963   2.541  0.4660 -0.3696 -0.1593
 2957TIP3    H130286   0.353   3.007   2.519  0.0017  0.5562 -0.0278
 2957TIP3    H230287   0.218   3.030   2.584  0.6293 -1.6463  2.1056
 2958TIP3   OH230288   0.289   1.302   4.667  0.2388  0.4904  0.3402
 2958TIP3    H130289   0.194   1.303   4.652  0.0350  0.9784  1.6586
 2958TIP3    H230290   0.301   1.348   4.750  1.5613 -0.2756  0.5837
 2959TIP3   OH230291   5.705   6.324  12.597  0.2103 -0.1468  0.1978
 2959TIP3    H130292   5.748   6.286  12.521  0.4303 -1.5400  0.9878
 2959TIP3    H230293   5.700   6.251  12.660 -2.7384  0.1577  0.3582
 2960TIP3   OH230294   3.637   5.988   3.679 -0.3354  0.1138 -0.3345
 2960TIP3    H130295   3.690   6.054   3.635  0.6605  0.6632  1.5973
 2960TIP3    H230296   3.553   5.989   3.633  0.3489  1.3048 -1.5856
 2961TIP3   OH230297   4.115   4.187   5.168  0.8246 -0.6316  0.0174
 2961TIP3    H130298   4.028   4.191   5.128  0.7275  1.2880  0.3698
 2961TIP3    H230299   4.115   4.258   5.232  2.9392 -0.1112 -0.5376
 2962TIP3   OH230300   4.614   5.957   1.891 -0.1089 -0.4711 -0.2778
 2962TIP3    H130301   4.658   5.873   1.905  0.8970 -0.1992 -1.6906
 2962TIP3    H230302   4.544   5.958   1.956  0.3788 -2.0422  0.3062
 2963TIP3   OH230303   5.252   5.773  15.778  0.3584 -0.8334  0.2094
 2963TIP3    H130304   5.186   5.704  15.772 -0.9440  0.5142 -1.1836
 2963TIP3    H230305   5.269   5.798  15.687  0.1666  1.2926  0.7312
 2964TIP3   OH230306   0.059   5.452  14.483 -1.1200  0.1021 -0.3923
 2964TIP3    H130307   0.013   5.529  14.449 -1.4083  0.2303  0.2880
 2964TIP3    H230308   0.031   5.380  14.426  0.7068  0.8581 -2.3088
 2965TIP3   OH230309   6.502   4.302  14.848  0.3468 -0.1535 -0.3593
 2965TIP3    H130310   6.449   4.290  14.927 -2.2914  0.4992 -1.9856
 2965TIP3    H230311   6.502   4.216  14.806 -2.0782  0.5796 -1.9408
 2966TIP3   OH230312   0.910   6.374   0.242  0.2287 -0.3061  0.1725
 2966TIP3    H130313   0.950   6.290   0.265 -0.4970 -0.5088  0.7244
 2966TIP3    H230314   0.828   6.376   0.292 -0.4087  0.1383 -0.8842
 2967TIP3   OH230315   3.528   6.403  12.010  0.0436 -0.6035  0.0126
 2967TIP3    H130316   3.595   6.335  11.997  0.5694 -0.3449  1.3025
 2967TIP3    H230317   3.521   6.411  12.105 -0.6867  0.4967 -0.1318
 2968TIP3   OH230318   6.540   2.617  11.688  0.0221  0.2270 -0.2707
 2968TIP3    H130319   6.519   2.711  11.687  0.0049  0.2280 -2.3070
 2968TIP3    H230320   6.456   2.574  11.703 -0.2785  0.4875 -1.1692
 2969TIP3   OH230321   5.981   5.280   4.283  0.5337 -0.3663 -0.1872
 2969TIP3    H130322   6.054   5.278   4.222 -0.1360  0.4232 -1.0344
 2969TIP3    H230323   5.982   5.369   4.319 -0.2114 -0.2312 -0.4746
 2970TIP3   OH230324   3.610   5.539   3.648  0.1955  0.1471  0.0878
 2970TIP3    H130325   3.585   5.447   3.640 -0.8546  0.4940 -0.8663
 2970TIP3    H230326   3.635   5.565   3.560  2.0401  0.3598  0.6620
 2971TIP3   OH230327   5.001   6.770  10.752  0.0576  0.3806  0.2765
 2971TIP3    H130328   5.010   6.770  10.847  4.1162  1.8272 -0.0085
 2971TIP3    H230329   4.983   6.861  10.729 -2.4930 -0.2331 -0.2638
 2972TIP3   OH230330   5.199   3.848   1.433  0.3137  0.0852 -0.5666
 2972TIP3    H130331   5.164   3.897   1.507 -0.3598  0.5037 -1.1533
 2972TIP3    H230332   5.127   3.791   1.405  0.2030  0.7217 -1.5815
 2973TIP3   OH230333   2.294   4.412  10.672 -0.1168 -0.6157  0.2910
 2973TIP3    H130334   2.325   4.403  10.582  1.7592 -2.2367  1.0653
 2973TIP3    H230335   2.362   4.462  10.716 -0.8591 -0.1373  0.9088
 2974TIP3   OH230336   0.168   3.631   2.330  0.6514 -0.0935 -0.5041
 2974TIP3    H130337   0.174   3.545   2.370 -2.0779 -0.3315 -0.5064
 2974TIP3    H230338   0.120   3.616   2.248  0.2460  1.3953 -0.5543
 2975TIP3   OH230339   4.530   0.747   3.359 -0.0948 -0.3405  0.5367
 2975TIP3    H130340   4.444   0.727   3.395 -0.6424  1.8211  0.5228
 2975TIP3    H230341   4.588   0.750   3.436 -0.8265  2.0390  1.0607
 2976TIP3   OH230342   6.334   3.315  13.716 -0.3857 -0.6710 -0.4595
 2976TIP3    H130343   6.427   3.305  13.694 -0.0865  0.2897  0.3262
 2976TIP3    H230344   6.334   3.374  13.791 -1.6618 -0.3141 -0.7335
 2977TIP3   OH230345   3.318   0.569   1.011  0.4428  0.3559  0.1765
 2977TIP3    H130346   3.394   0.582   0.954  0.5149  0.6268  0.3320
 2977TIP3    H230347   3.272   0.494   0.973  0.9242  0.0306  0.2271
 2978TIP3   OH230348   3.617   3.140  13.780 -0.5942  0.2353  0.3875
 2978TIP3    H130349   3.602   3.198  13.854  1.5962 -0.4627  1.4297
 2978TIP3    H230350   3.695   3.177  13.737 -1.6944  0.4924 -1.4285
 2979TIP3   OH230351   4.172   0.439   1.157  0.1370 -0.0400  0.0699
 2979TIP3    H130352   4.149   0.462   1.247  0.2043  0.3071 -0.0012
 2979TIP3    H230353   4.170   0.343   1.156 -1.4123 -0.0264  0.0491
 2980TIP3   OH230354   2.045   6.425   6.397  0.0234  0.1022  0.1249
 2980TIP3    H130355   2.036   6.366   6.472  1.0713 -0.3627 -0.1107
 2980TIP3    H230356   2.003   6.506   6.426 -2.1742 -1.0036  0.1520
 2981TIP3   OH230357   5.877   1.665   0.210 -0.3468  0.0759 -0.7486
 2981TIP3    H130358   5.858   1.756   0.230 -0.3461  0.5145 -2.6731
 2981TIP3    H230359   5.805   1.616   0.248 -0.1999  0.8520  0.5395
 2982TIP3   OH230360   2.380   6.295  16.741  0.5797 -0.5705  0.0527
 2982TIP3    H130361   2.449   6.309  16.676 -1.5039  0.6107 -2.0129
 2982TIP3    H230362   2.330   6.221  16.706 -0.6887  0.2067  0.2102
 2983TIP3   OH230363   6.784   0.168  15.125  0.2823 -0.2657  0.1895
 2983TIP3    H130364   6.689   0.163  15.140  0.4096  0.5969  1.3414
 2983TIP3    H230365   6.791   0.216  15.042 -0.2909 -0.0715  0.2441
 2984TIP3   OH230366   5.950   5.293   0.276 -0.2534  0.2589 -0.7313
 2984TIP3    H130367   5.933   5.211   0.323  1.7653  0.3879  0.2467
 2984TIP3    H230368   5.868   5.343   0.284 -0.7108 -0.7033  0.6151
 2985TIP3   OH230369   2.689   5.723   0.258  0.3781  0.8631  0.1374
 2985TIP3    H130370   2.736   5.793   0.213  0.5597  0.5799 -0.1145
 2985TIP3    H230371   2.753   5.687   0.320  0.8693 -0.2710 -0.9913
 2986TIP3   OH230372   2.905   3.236  11.930  0.4057 -0.1667  0.2917
 2986TIP3    H130373   2.822   3.190  11.940  0.2878  0.1288  0.6622
 2986TIP3    H230374   2.971   3.171  11.952  0.1586  0.5469  3.3514
 2987TIP3   OH230375   2.560   2.637  13.433  0.0153 -0.0256 -0.2413
 2987TIP3    H130376   2.599   2.563  13.481  1.8287  1.6890  1.0241
 2987TIP3    H230377   2.504   2.681  13.497  0.7283  1.0033 -0.3076
 2988TIP3   OH230378   2.566   3.346   2.643  0.0145 -0.1845 -0.0911
 2988TIP3    H130379   2.603   3.305   2.564  0.4462 -1.3825  0.7122
 2988TIP3    H230380   2.475   3.316   2.645  0.9070 -2.9862  1.6767
 2989TIP3   OH230381   2.663   2.431   2.302  0.4959  0.3436  0.8602
 2989TIP3    H130382   2.663   2.405   2.210 -0.5679 -1.8377  1.4420
 2989TIP3    H230383   2.602   2.505   2.306  0.0940  0.0683 -0.0786
 2990TIP3   OH230384   1.831   3.131   1.495  0.6891 -0.5004  0.1339
 2990TIP3    H130385   1.876   3.049   1.478  2.4547  0.1111  1.6426
 2990TIP3    H230386   1.765   3.109   1.561  1.3213 -0.6691  0.7126
 2991TIP3   OH230387   3.313   0.822   4.250  0.3289 -0.0175  0.4156
 2991TIP3    H130388   3.340   0.804   4.340 -1.6527 -0.6015  0.9280
 2991TIP3    H230389   3.283   0.738   4.216 -0.9237  0.6081 -0.0692
 2992TIP3   OH230390   3.942   5.755   4.227 -0.0751  0.2197 -0.3061
 2992TIP3    H130391   3.894   5.769   4.309  1.5105  2.1007  0.3254
 2992TIP3    H230392   3.898   5.811   4.163  0.7088  1.2786  0.0664
 2993TIP3   OH230393   5.662   1.082  10.886 -0.5421  0.5935 -0.3019
 2993TIP3    H130394   5.617   1.158  10.850 -1.3466 -0.2940 -1.2260
 2993TIP3    H230395   5.684   1.029  10.809  1.7042  0.7974  0.1670
 2994TIP3   OH230396   2.655   2.615  16.037  0.1561 -0.6174  0.0388
 2994TIP3    H130397   2.706   2.534  16.041  1.0741 -0.0524 -0.0470
 2994TIP3    H230398   2.705   2.672  15.979  1.4111  1.2945  2.8637
 2995TIP3   OH230399   5.250   2.490  12.940 -0.0037 -0.3797  0.2633
 2995TIP3    H130400   5.275   2.409  12.984 -2.7863 -0.0360  2.6581
 2995TIP3    H230401   5.305   2.557  12.980  0.0074 -0.6033  0.6244
 2996TIP3   OH230402   3.174   6.680  13.060  0.4057  0.6332  0.8040
 2996TIP3    H130403   3.262   6.717  13.060  1.5836 -2.0732  1.3242
 2996TIP3    H230404   3.155   6.663  13.153 -0.3289  0.4539  0.6292
 2997TIP3   OH230405   4.219   1.614  10.682 -0.5627  0.0410  0.5599
 2997TIP3    H130406   4.198   1.707  10.688 -0.7213 -0.1268  2.8260
 2997TIP3    H230407   4.135   1.572  10.663 -0.1550  0.5036 -2.6941
 2998TIP3   OH230408   0.695   2.740   1.051 -0.0518  0.2639 -0.0986
 2998TIP3    H130409   0.678   2.770   1.140 -2.7748 -0.5900 -0.3014
 2998TIP3    H230410   0.629   2.673   1.034  0.6206  0.1663 -2.6551
 2999TIP3   OH230411   1.528   1.829  10.704 -0.2769  0.5268  0.2029
 2999TIP3    H130412   1.579   1.905  10.678 -0.8321  0.6574 -0.5280
 2999TIP3    H230413   1.451   1.831  10.647  1.1186 -2.2218 -1.9014
 3000TIP3   OH230414   5.461   2.350  15.215  1.1452 -0.7051 -0.3641
 3000TIP3    H130415   5.453   2.443  15.197 -1.2539 -0.6444  0.8452
 3000TIP3    H230416   5.405   2.308  15.150  1.1417 -1.2025 -0.0470
 3001TIP3   OH230417   1.880   3.258  11.696  0.2677  0.0961 -0.3422
 3001TIP3    H130418   1.788   3.281  11.691  0.0850 -0.3389  0.8149
 3001TIP3    H230419   1.886   3.172  11.655 -0.0612 -0.4161  0.6510
 3002TIP3   OH230420   3.531   1.657  11.668 -0.5230  0.2603 -0.7994
 3002TIP3    H130421   3.554   1.570  11.700  0.2127  0.9547  0.5890
 3002TIP3    H230422   3.436   1.654  11.656 -0.2768 -1.3413 -2.6524
 3003TIP3   OH230423   1.332   4.144   2.934 -0.3254 -0.4492  0.1822
 3003TIP3    H130424   1.415   4.181   2.905  0.0927 -1.9711 -0.6269
 3003TIP3    H230425   1.346   4.049   2.933 -2.5463 -0.7992 -1.4426
 3004TIP3   OH230426   5.306   4.814   0.765  0.7021 -0.2958 -0.5285
 3004TIP3    H130427   5.394   4.826   0.800 -0.1413  0.9430  1.2370
 3004TIP3    H230428   5.293   4.888   0.706  1.2031 -1.0563 -1.6318
 3005TIP3   OH230429   5.612   1.182  15.882  0.0456  0.1252 -0.4312
 3005TIP3    H130430   5.619   1.136  15.798 -3.1133  0.2002 -0.7875
 3005TIP3    H230431   5.520   1.176  15.905  0.3711  2.5225  1.6969
 3006TIP3   OH230432   2.165   6.261   2.311  0.6133 -0.4116  0.5177
 3006TIP3    H130433   2.102   6.329   2.289  0.0051 -1.3110 -0.5350
 3006TIP3    H230434   2.116   6.198   2.365  0.8390 -0.6769  0.4143
 3007TIP3   OH230435   1.766   6.002  15.660 -0.1112 -0.6687  0.1806
 3007TIP3    H130436   1.749   5.927  15.718 -0.5496 -0.7429 -0.0419
 3007TIP3    H230437   1.778   5.963  15.573  1.1081 -0.6084  0.3120
 3008TIP3   OH230438   6.132   1.283  12.413  0.1206 -0.2607 -0.0529
 3008TIP3    H130439   6.101   1.319  12.330  2.5535 -0.2783 -1.0074
 3008TIP3    H230440   6.195   1.347  12.446  0.2893 -0.9629  1.0179
 3009TIP3   OH230441   1.682   0.373  11.948  0.3658  0.1207 -0.5179
 3009TIP3    H130442   1.605   0.401  11.898 -0.1181 -0.2299  0.0332
 3009TIP3    H230443   1.677   0.277  11.949 -0.8461  0.1872  2.1032
 3010TIP3   OH230444   0.115   1.672   4.904  0.4730 -0.3831 -0.0039
 3010TIP3    H130445   0.101   1.746   4.962 -0.2318 -0.2573 -0.3298
 3010TIP3    H230446   0.099   1.595   4.959  1.4571 -0.3044  0.4001
 3011TIP3   OH230447   6.081   5.415  14.528  0.1435  0.2256  0.2718
 3011TIP3    H130448   6.000   5.458  14.556  1.2196  1.5574  1.4218
 3011TIP3    H230449   6.125   5.391  14.610 -0.2558 -2.8077 -0.3302
 3012TIP3   OH230450   0.989   1.842   1.769  0.0761 -0.2589 -0.3483
 3012TIP3    H130451   1.053   1.786   1.812  0.3538 -0.1343 -0.5974
 3012TIP3    H230452   0.906   1.822   1.813  0.3041 -0.3426  0.0468
 3013TIP3   OH230453   0.653   2.726   1.389 -0.7185 -0.7582  0.4420
 3013TIP3    H130454   0.626   2.753   1.477 -2.8748 -0.3754 -0.2965
 3013TIP3    H230455   0.718   2.658   1.403  0.1347  0.4194  2.3309
 3014TIP3   OH230456   6.264   0.569  11.756  0.3994  0.2734  0.1051
 3014TIP3    H130457   6.255   0.474  11.745 -1.7294  0.1118  2.6295
 3014TIP3    H230458   6.358   0.586  11.744  0.7820 -2.1220 -0.5273
 3015TIP3   OH230459   6.242   5.513  13.979  0.4840  0.3714  0.5720
 3015TIP3    H130460   6.231   5.580  14.046 -3.7757 -0.7064  1.0721
 3015TIP3    H230461   6.196   5.547  13.903  0.0958 -1.0439  0.1577
 3016TIP3   OH230462   0.582   6.380  13.341  0.4295  0.1623 -0.2376
 3016TIP3    H130463   0.608   6.307  13.284  2.8895  1.0671 -0.3578
 3016TIP3    H230464   0.564   6.340  13.426 -0.8315 -0.8945 -0.9916
 3017TIP3   OH230465   4.728   0.427   5.480 -0.3340 -0.1738 -0.3884
 3017TIP3    H130466   4.715   0.447   5.573  0.2863  1.5198 -0.6401
 3017TIP3    H230467   4.719   0.332   5.474 -0.1860 -0.3214  1.4382
 3018TIP3   OH230468   4.507   1.708  11.957  0.3512  0.3935 -0.8182
 3018TIP3    H130469   4.563   1.638  11.992 -0.5310  0.2654  0.3863
 3018TIP3    H230470   4.483   1.678  11.869 -2.9909 -2.6619  0.9667
 3019TIP3   OH230471   2.884   4.777   4.408 -0.1422  0.4368 -0.2710
 3019TIP3    H130472   2.961   4.721   4.420  0.0562  0.6839 -0.3800
 3019TIP3    H230473   2.869   4.777   4.314 -0.5240  0.0633 -0.2144
 3020TIP3   OH230474   6.695   4.221  14.354  0.1248 -0.4210 -0.2523
 3020TIP3    H130475   6.659   4.132  14.352 -0.7079 -0.0659 -1.8605
 3020TIP3    H230476   6.620   4.278  14.337  0.6910  0.5873  0.5451
 3021TIP3   OH230477   4.100   6.666  16.911  0.0981  0.4834 -0.5119
 3021TIP3    H130478   4.018   6.659  16.864  0.6228  0.3958 -1.4265
 3021TIP3    H230479   4.158   6.715  16.852  1.0924 -0.5576 -0.4258
 3022TIP3   OH230480   3.771   3.457   3.146 -0.1917 -0.1357 -0.2205
 3022TIP3    H130481   3.848   3.499   3.183  0.3181 -1.2031 -0.0601
 3022TIP3    H230482   3.761   3.375   3.196  0.8601 -1.9082 -2.7879
 3023TIP3   OH230483   0.797   2.392   3.888 -0.3960 -0.1906  0.4054
 3023TIP3    H130484   0.756   2.464   3.839 -1.7256 -0.0118  1.7547
 3023TIP3    H230485   0.796   2.421   3.979  1.1629 -0.9479  0.6818
 3024TIP3   OH230486   4.883   2.691  12.754 -0.0208 -0.2898  0.0843
 3024TIP3    H130487   4.935   2.688  12.834 -1.5268 -1.8715  1.0262
 3024TIP3    H230488   4.923   2.625  12.697  1.3270  1.1452 -0.6726
 3025TIP3   OH230489   4.987   6.009  12.233 -0.0246  0.3437  0.3305
 3025TIP3    H130490   5.048   5.975  12.167  1.3111  2.4780  0.3825
 3025TIP3    H230491   4.936   5.933  12.261 -1.1873 -0.4448 -3.7369
 3026TIP3   OH230492   0.512   1.262   4.143  0.3835  0.1571 -0.2684
 3026TIP3    H130493   0.544   1.338   4.192 -0.1901  0.2942 -0.1024
 3026TIP3    H230494   0.562   1.188   4.179  1.1971  0.5050 -0.6803
 3027TIP3   OH230495   1.497   0.963  10.583  0.0258  0.0093 -0.1736
 3027TIP3    H130496   1.535   0.997  10.502  0.4140  1.0439  0.4440
 3027TIP3    H230497   1.435   1.030  10.611 -0.8702 -0.8195 -0.1586
 3028TIP3   OH230498   0.511   0.402  14.492  0.0229  0.3318  0.3948
 3028TIP3    H130499   0.546   0.485  14.459  1.5289 -0.2946  0.3862
 3028TIP3    H230500   0.542   0.397  14.582  0.3338 -0.4451  0.2457
 3029TIP3   OH230501   2.012   3.701   0.718 -0.0751  0.3004 -0.3577
 3029TIP3    H130502   2.086   3.752   0.684 -0.2309 -0.1421 -1.3885
 3029TIP3    H230503   1.939   3.763   0.719 -0.2856  0.1012 -1.6931
 3030TIP3   OH230504   4.689   0.192  15.419 -0.0455  0.6975  0.2475
 3030TIP3    H130505   4.597   0.219  15.423 -0.2654  0.1054 -0.5489
 3030TIP3    H230506   4.696   0.123  15.485 -1.1206 -1.8867 -2.2141
 3031TIP3   OH230507   1.896   0.264  15.319 -0.2928 -0.1014  0.2600
 3031TIP3    H130508   1.868   0.212  15.243 -0.9671  0.5521  0.0502
 3031TIP3    H230509   1.986   0.288  15.299 -1.3110  2.3617 -1.6420
 3032TIP3   OH230510   3.536   5.271   3.621 -0.6150  0.7361 -0.2255
 3032TIP3    H130511   3.625   5.241   3.602 -0.8811  0.9199 -1.8643
 3032TIP3    H230512   3.480   5.219   3.563 -1.8720 -1.2519  2.6507
 3033TIP3   OH230513   5.599   2.203  16.554 -0.5195  0.7025  0.0730
 3033TIP3    H130514   5.683   2.216  16.510 -1.2582  0.9124 -1.3165
 3033TIP3    H230515   5.593   2.109  16.568 -0.4218  0.5874 -0.6141
 3034TIP3   OH230516   5.702   2.267  17.129  0.3110  0.2947  0.2470
 3034TIP3    H130517   5.737   2.313  17.205  2.8737 -1.3636  0.1350
 3034TIP3    H230518   5.670   2.336  17.072  1.2390  1.7559  1.4438
 3035TIP3   OH230519   5.092   5.688  15.021  0.5740  0.2278  0.3002
 3035TIP3    H130520   5.077   5.780  15.042 -2.1863  0.1059 -0.9301
 3035TIP3    H230521   5.093   5.685  14.926 -0.9430 -1.2167  0.3023
 3036TIP3   OH230522   3.401   5.592  16.558  0.0052 -0.0950  0.2448
 3036TIP3    H130523   3.420   5.575  16.650  1.2319  0.7482  0.1544
 3036TIP3    H230524   3.413   5.686  16.548 -0.4896 -0.1236 -0.7017
 3037TIP3   OH230525   3.091   3.987  17.196 -0.4962  1.1517 -0.0486
 3037TIP3    H130526   3.080   3.993  17.101 -0.6564  2.1582  0.0218
 3037TIP3    H230527   3.129   4.072  17.220 -2.4101  1.7240  1.0429
 3038TIP3   OH230528   3.129   6.161   1.255  0.0598 -0.1538  0.2096
 3038TIP3    H130529   3.124   6.213   1.334  0.4721 -0.4289  0.4187
 3038TIP3    H230530   3.097   6.219   1.185 -2.6270 -0.6894  0.9331
 3039TIP3   OH230531   0.599   0.494  16.286  0.0947  0.6744 -0.4240
 3039TIP3    H130532   0.649   0.576  16.291  0.4297  0.4914 -0.7731
 3039TIP3    H230533   0.660   0.427  16.316 -0.6701  0.7475  1.3750
 3040TIP3   OH230534   0.055   2.042  16.176  0.2219  0.1448  0.1837
 3040TIP3    H130535   0.096   2.065  16.092 -1.9042  0.9538 -0.6757
 3040TIP3    H230536   0.029   2.126  16.214 -0.1787 -0.3174  0.9397
 3041TIP3   OH230537   3.449   6.089   2.949  0.0479  0.1005  0.2217
 3041TIP3    H130538   3.544   6.088   2.935  0.1641 -0.7315  1.0132
 3041TIP3    H230539   3.438   6.065   3.041 -0.9323  0.2737  0.1537
 3042TIP3   OH230540   2.388   5.935  16.660  0.1091  0.0159  0.1000
 3042TIP3    H130541   2.389   5.861  16.599  0.1542 -0.6480  0.8923
 3042TIP3    H230542   2.329   5.999  16.620 -2.0500 -1.5621  0.6777
 3043TIP3   OH230543   3.696   6.670  13.845  0.0312  0.1165  0.5112
 3043TIP3    H130544   3.788   6.647  13.837 -0.0223  1.0379 -4.3067
 3043TIP3    H230545   3.694   6.765  13.841 -1.1439  0.1268  0.9164
 3044TIP3   OH230546   3.955   1.080   4.632  0.0542  0.2502  1.0803
 3044TIP3    H130547   3.867   1.096   4.599  1.4411  2.2918 -1.7890
 3044TIP3    H230548   3.965   0.984   4.628 -1.8799  0.0298  1.1444
 3045TIP3   OH230549   6.087   2.001  12.577  0.4211  0.1520 -0.3638
 3045TIP3    H130550   6.115   2.086  12.544 -0.4445  0.5525 -0.0988
 3045TIP3    H230551   6.070   1.949  12.498  0.4335  0.3971 -0.5277
 3046TIP3   OH230552   3.246   6.271   2.060 -0.1507 -0.1388 -0.2626
 3046TIP3    H130553   3.228   6.260   2.153 -1.1246 -1.8875 -0.6174
 3046TIP3    H230554   3.232   6.364   2.043  3.1134  0.8387  1.9353
 3047TIP3   OH230555   1.294   6.773  13.741  0.5688  0.7175 -0.6637
 3047TIP3    H130556   1.323   6.712  13.809  2.0655  0.0919 -1.8141
 3047TIP3    H230557   1.304   6.860  13.779  0.0742  0.3067  0.3954
 3048TIP3   OH230558   3.630   6.649   2.822  0.5370  0.3557  0.1339
 3048TIP3    H130559   3.680   6.615   2.897 -0.7672 -1.9349  0.0121
 3048TIP3    H230560   3.540   6.656   2.855 -0.0967 -0.9577 -1.2936
 3049TIP3   OH230561   6.071   5.839   2.598  0.3676 -0.1931 -0.1399
 3049TIP3    H130562   6.047   5.924   2.561 -0.8178 -0.2385  0.5175
 3049TIP3    H230563   5.992   5.786   2.588  0.6944 -0.8238  0.6430
 3050TIP3   OH230564   4.649   3.406  16.636  0.2308 -0.3086  0.0104
 3050TIP3    H130565   4.581   3.472  16.623  0.6354  0.7985  2.9816
 3050TIP3    H230566   4.730   3.457  16.644  0.8651 -1.3227  0.1468
 3051TIP3   OH230567   0.474   2.033   3.159 -0.3190 -0.3617  0.3837
 3051TIP3    H130568   0.503   2.123   3.176 -0.3345 -0.3725  0.4701
 3051TIP3    H230569   0.490   2.020   3.066 -0.8907 -0.0565  0.2363
 3052TIP3   OH230570   0.590   5.406   5.161  0.0250 -0.4327  0.2374
 3052TIP3    H130571   0.541   5.382   5.239 -0.7997 -1.6017 -0.6321
 3052TIP3    H230572   0.527   5.399   5.089  1.0812 -0.5654 -0.6963
 3053TIP3   OH230573   1.750   0.894   4.006  0.5712  0.4537 -0.0492
 3053TIP3    H130574   1.831   0.844   4.012  0.9174  0.9539 -0.5519
 3053TIP3    H230575   1.686   0.840   4.053  1.2539  0.2003  0.6086
 3054TIP3   OH230576   6.441   6.560  14.566  0.0898 -0.4872  0.6228
 3054TIP3    H130577   6.494   6.575  14.644  0.5814  1.0680  0.0210
 3054TIP3    H230578   6.500   6.580  14.493 -1.6607  2.6151 -0.0452
 3055TIP3   OH230579   0.585   5.438   0.930 -0.2496  0.0649 -0.1477
 3055TIP3    H130580   0.678   5.416   0.917  0.1339  0.5784  1.5315
 3055TIP3    H230581   0.564   5.397   1.014 -0.6540  2.6408  1.0372
 3056TIP3   OH230582   0.033   4.876  14.398  0.3579 -0.3698 -0.2005
 3056TIP3    H130583   0.038   4.895  14.304 -2.1894 -1.5949 -0.6399
 3056TIP3    H230584  -0.002   4.957  14.437 -0.3009 -0.4823 -0.5579
 3057TIP3   OH230585   5.459   2.992   4.185 -0.0891 -0.2268 -0.0797
 3057TIP3    H130586   5.421   3.067   4.231  0.9654 -0.6229  1.4982
 3057TIP3    H230587   5.385   2.936   4.163 -0.5316 -0.4481  1.9242
 3058TIP3   OH230588   3.304   2.258  12.003 -0.3581 -0.3084  0.4803
 3058TIP3    H130589   3.365   2.184  12.002  0.7076  0.5603 -1.0903
 3058TIP3    H230590   3.358   2.333  12.029 -0.7814  0.4258 -0.7161
 3059TIP3   OH230591   5.341   0.082  13.156  0.2663  0.5821 -0.0648
 3059TIP3    H130592   5.417   0.024  13.169 -1.0584 -1.1258  0.2574
 3059TIP3    H230593   5.379   0.166  13.133  2.2762 -0.2360  0.1483
 3060TIP3   OH230594   4.486   0.293   4.105 -0.4756 -0.0403 -0.7260
 3060TIP3    H130595   4.412   0.352   4.117  0.7223  1.8182 -2.2511
 3060TIP3    H230596   4.515   0.309   4.016  1.3808 -1.2039 -0.3464
 3061TIP3   OH230597   3.243   3.740  14.069 -0.0133 -0.6735  0.5828
 3061TIP3    H130598   3.238   3.830  14.102  1.5577  1.0062 -3.4686
 3061TIP3    H230599   3.152   3.712  14.063 -0.5434  0.7496  1.5810
 3062TIP3   OH230600   5.261   1.199   0.224 -0.0767 -0.0770 -0.5381
 3062TIP3    H130601   5.169   1.227   0.221 -0.0095  0.4914  2.0883
 3062TIP3    H230602   5.310   1.278   0.201 -0.1147  0.6659  1.8063
 3063TIP3   OH230603   5.428   1.069  14.391 -0.8192  0.1861  0.1068
 3063TIP3    H130604   5.459   1.101  14.476 -2.1206  0.7395  0.3885
 3063TIP3    H230605   5.367   0.998  14.414 -2.0465  1.0906 -0.3090
 3064TIP3   OH230606   4.562   0.286   0.832 -0.0357  0.3212 -0.2926
 3064TIP3    H130607   4.588   0.213   0.775  1.1399  1.0482 -0.7176
 3064TIP3    H230608   4.613   0.361   0.799  0.8058  0.7132  1.8450
 3065TIP3   OH230609   6.349   5.212  15.394 -0.4263  0.0409 -0.6132
 3065TIP3    H130610   6.347   5.180  15.485  0.8139  1.4093 -0.0956
 3065TIP3    H230611   6.410   5.285  15.395 -0.4077  0.0868 -2.5672
 3066TIP3   OH230612   0.732   6.394   4.583 -0.2056  0.4103 -0.5344
 3066TIP3    H130613   0.671   6.380   4.656 -0.1525  2.6937 -0.0036
 3066TIP3    H230614   0.818   6.369   4.618 -0.3695  0.3009 -0.2099
 3067TIP3   OH230615   4.333   6.491   5.314 -0.2610  0.4087  0.0374
 3067TIP3    H130616   4.416   6.475   5.270 -0.3157  0.5024 -0.1017
 3067TIP3    H230617   4.302   6.404   5.339 -0.6515  0.2728 -0.8885
 3068TIP3   OH230618   5.452   6.665  16.807  0.3001  0.4045 -0.0447
 3068TIP3    H130619   5.423   6.755  16.789 -1.2405 -0.1753 -0.5875
 3068TIP3    H230620   5.474   6.629  16.721  0.8092  0.2271  0.1577
 3069TIP3   OH230621   6.491   5.966   4.476  0.2654 -0.0302 -0.0755
 3069TIP3    H130622   6.499   6.027   4.402 -0.1580  0.4264  0.2504
 3069TIP3    H230623   6.459   6.020   4.548 -1.6989 -0.9559 -0.2296
 3070TIP3   OH230624   6.694   3.943  13.046 -0.1967 -0.3522 -0.2761
 3070TIP3    H130625   6.789   3.948  13.057 -0.2257 -1.0954  0.3424
 3070TIP3    H230626   6.681   3.959  12.952  0.4436  0.8932 -0.1651
 3071TIP3   OH230627   2.602   4.600   2.328  0.3639  0.1130 -0.6209
 3071TIP3    H130628   2.533   4.628   2.388  0.9043  0.4575 -0.1610
 3071TIP3    H230629   2.589   4.505   2.319  0.2188  0.0744 -0.0336
 3072TIP3   OH230630   5.195   1.491  16.362  0.3966  0.2245  0.3994
 3072TIP3    H130631   5.177   1.519  16.272  2.0673  0.9409  0.2693
 3072TIP3    H230632   5.120   1.524  16.412 -0.3034  0.2520 -0.6465
 3073TIP3   OH230633   5.900   3.092   1.176  0.0532 -0.2175  0.2296
 3073TIP3    H130634   5.875   3.161   1.238 -1.2402  1.7432 -2.3654
 3073TIP3    H230635   5.983   3.122   1.140 -0.0530 -0.4910 -0.2399
 3074TIP3   OH230636   3.702   3.613   1.923  0.0362 -0.3150  0.4205
 3074TIP3    H130637   3.624   3.666   1.907 -0.2795 -0.9997 -0.3702
 3074TIP3    H230638   3.672   3.541   1.978 -0.0877 -1.0522 -0.5908
 3075TIP3   OH230639   0.630   2.632   5.527  0.2346  0.2403  0.3350
 3075TIP3    H130640   0.540   2.609   5.503  0.1271 -0.9242  1.7635
 3075TIP3    H230641   0.684   2.573   5.473  0.1894  1.4728 -1.0936
 3076TIP3   OH230642   5.903   3.962  14.041  0.3290 -0.0952 -0.2390
 3076TIP3    H130643   5.844   3.937  14.112  0.5972  0.5789  0.2305
 3076TIP3    H230644   5.941   4.046  14.069 -1.6991  1.6311 -2.4488
 3077TIP3   OH230645   0.839   0.069  16.038  0.3047 -0.1209  0.0581
 3077TIP3    H130646   0.790   0.053  16.118  1.3309 -0.1945  0.6917
 3077TIP3    H230647   0.818   0.159  16.014  0.7461  0.2294  0.9584
 3078TIP3   OH230648   4.453   4.628  15.041  0.4912 -0.4828  0.3654
 3078TIP3    H130649   4.448   4.694  14.972  0.4003  0.0413  0.8651
 3078TIP3    H230650   4.408   4.668  15.116  2.2730 -0.2586  1.3502
 3079TIP3   OH230651   0.071   6.654  10.250  0.5456 -0.0982 -0.2966
 3079TIP3    H130652   0.106   6.705  10.324  1.5345 -1.0592 -0.0812
 3079TIP3    H230653   0.065   6.717  10.178  0.2914  0.6755  0.3879
 3080TIP3   OH230654   2.734   2.977  16.898 -0.3967  0.0488 -0.5765
 3080TIP3    H130655   2.753   3.051  16.840 -1.4206 -0.6737 -1.8579
 3080TIP3    H230656   2.751   3.011  16.986  1.6948  1.0004 -1.3164
 3081TIP3   OH230657   3.188   0.345   0.875  0.2342 -0.3227  0.1727
 3081TIP3    H130658   3.140   0.347   0.958  1.5158 -0.5588  0.9301
 3081TIP3    H230659   3.218   0.255   0.867  0.3025 -0.2466 -0.4408
 3082TIP3   OH230660   4.870   6.236  15.286  0.1020 -0.3835 -0.3964
 3082TIP3    H130661   4.866   6.244  15.190  0.9119 -1.3646 -0.5188
 3082TIP3    H230662   4.790   6.278  15.316  0.4013  1.0078 -1.4344
 3083TIP3   OH230663   3.249   2.220  11.684 -0.1872  0.2374  0.0572
 3083TIP3    H130664   3.300   2.139  11.689 -1.6483 -0.6855  0.4449
 3083TIP3    H230665   3.243   2.238  11.590  0.8842  0.3895  0.0120
 3084TIP3   OH230666   3.257   4.912  12.792  0.0553  0.1701 -0.2049
 3084TIP3    H130667   3.250   4.826  12.833  0.5216  0.0805 -0.3177
 3084TIP3    H230668   3.171   4.926  12.751  0.9072 -1.4700 -2.6417
 3085TIP3   OH230669   4.216   1.766  15.256 -0.6560  0.1190 -0.1594
 3085TIP3    H130670   4.198   1.679  15.292  1.0267  0.6005  1.9618
 3085TIP3    H230671   4.306   1.759  15.222 -0.9587  0.6860 -1.0857
 3086TIP3   OH230672   5.729   5.372  15.962  0.0522  0.1161  0.0455
 3086TIP3    H130673   5.719   5.336  15.874 -0.2793  1.1208 -0.3368
 3086TIP3    H230674   5.760   5.461  15.948 -0.1957  0.3490  0.9454
 3087TIP3   OH230675   0.871   1.749   0.970  0.0056 -0.2571  0.4352
 3087TIP3    H130676   0.818   1.776   1.045 -0.4849 -0.8317  0.3038
 3087TIP3    H230677   0.840   1.661   0.950  1.9015 -1.0939  1.1396
 3088TIP3   OH230678   0.900   4.290   3.051 -0.5100  0.1676 -0.4401
 3088TIP3    H130679   0.830   4.328   3.104 -0.1169 -0.7307  0.7324
 3088TIP3    H230680   0.854   4.236   2.986 -0.8693 -1.7367  1.3499
 3089TIP3   OH230681   0.411   5.758  16.852  0.0001 -0.1469 -0.0791
 3089TIP3    H130682   0.441   5.719  16.934 -0.6086  2.4274  1.4153
 3089TIP3    H230683   0.324   5.720  16.838  0.2480 -0.8624  0.2856
 3090TIP3   OH230684   6.113   0.747  13.419 -0.4573 -0.0709 -0.2615
 3090TIP3    H130685   6.082   0.819  13.364 -1.0438  1.0659  1.5062
 3090TIP3    H230686   6.055   0.674  13.400 -0.5880  0.2727 -1.2045
 3091TIP3   OH230687   5.611   4.686   5.715 -0.0608  0.1438 -0.4832
 3091TIP3    H130688   5.693   4.650   5.683  1.7115  2.5791  1.1635
 3091TIP3    H230689   5.607   4.659   5.807 -0.6110  0.8060 -0.3050
 3092TIP3   OH230690   3.011   3.312   1.369 -0.5756 -0.2925 -0.5516
 3092TIP3    H130691   3.043   3.388   1.321 -0.8534 -1.0297 -1.9090
 3092TIP3    H230692   2.977   3.348   1.451  1.3695  0.7900 -0.1957
 3093TIP3   OH230693   3.902   2.263   5.234  0.1882 -0.2258  0.4132
 3093TIP3    H130694   3.880   2.242   5.143 -1.5307  1.2688  0.4659
 3093TIP3    H230695   3.973   2.327   5.226  1.0434 -1.1927  0.1593
 3094TIP3   OH230696   1.601   4.677   2.441 -0.5022  0.0389  0.5381
 3094TIP3    H130697   1.637   4.590   2.456  0.9799  0.5695  0.1924
 3094TIP3    H230698   1.529   4.685   2.504 -0.0894 -1.0874  1.1665
 3095TIP3   OH230699   1.672   6.386  12.503 -0.2675  0.1373  0.2416
 3095TIP3    H130700   1.625   6.420  12.427  0.2819  1.1306  0.3457
 3095TIP3    H230701   1.690   6.294  12.480  0.2036  0.5230 -0.9667
 3096TIP3   OH230702   2.012   0.624   5.172  0.1098 -0.5743 -0.4007
 3096TIP3    H130703   2.023   0.693   5.238 -1.2871 -0.9782  0.2757
 3096TIP3    H230704   1.962   0.665   5.102  1.4078 -0.2083 -1.1401
 3097TIP3   OH230705   1.711   5.396  12.570  0.3702 -0.7207  0.6532
 3097TIP3    H130706   1.751   5.471  12.525 -0.0744 -0.0336  1.3857
 3097TIP3    H230707   1.622   5.392  12.534  0.3821 -0.8716  0.6439
 3098TIP3   OH230708   5.768   6.111  14.509  0.4676 -0.0948  0.1498
 3098TIP3    H130709   5.720   6.183  14.468  2.0238  1.2025  0.5764
 3098TIP3    H230710   5.719   6.033  14.483 -1.2338  1.0922 -0.3316
 3099TIP3   OH230711   3.818   1.450   1.912 -0.2017 -0.0398  0.2750
 3099TIP3    H130712   3.785   1.436   2.001  0.5928  0.5549  0.6685
 3099TIP3    H230713   3.911   1.471   1.924 -0.2071  0.5298 -0.6660
 3100TIP3   OH230714   2.662   0.355  15.817 -0.0475 -0.2976 -0.1289
 3100TIP3    H130715   2.719   0.379  15.890  0.1343 -1.4580  0.1201
 3100TIP3    H230716   2.705   0.392  15.740  1.8238 -2.3246 -0.1288
 3101TIP3   OH230717   1.127   1.881  15.031 -0.1388  0.4555  0.6460
 3101TIP3    H130718   1.191   1.813  15.006 -0.9972  0.0024 -0.3514
 3101TIP3    H230719   1.178   1.944  15.082  1.0867  0.0179 -0.0059
 3102TIP3   OH230720   0.534   5.857   3.824  0.3336 -0.2850  0.0915
 3102TIP3    H130721   0.483   5.914   3.882  1.4944  0.0454  0.8090
 3102TIP3    H230722   0.496   5.770   3.834 -0.4686  0.0774  0.1630
 3103TIP3   OH230723   1.258   2.451   3.148  0.6109 -0.4308  0.0874
 3103TIP3    H130724   1.180   2.430   3.198  0.7010 -1.3650 -0.1547
 3103TIP3    H230725   1.233   2.438   3.057  0.7074  0.4017 -0.0603
 3104TIP3   OH230726   5.943   1.624  11.126  0.5395  0.5132  0.0558
 3104TIP3    H130727   5.891   1.612  11.205 -2.3155 -0.6668 -1.9501
 3104TIP3    H230728   5.963   1.535  11.097  1.7567  0.9476 -0.4655
 3105TIP3   OH230729   2.200   4.104   4.920  0.3594  0.1429  0.2415
 3105TIP3    H130730   2.151   4.022   4.929  1.6294 -0.8933 -2.0309
 3105TIP3    H230731   2.132   4.172   4.920 -0.6354 -0.7387  3.4370
 3106TIP3   OH230732   4.389   3.802   2.285  0.2310 -0.2016  0.6282
 3106TIP3    H130733   4.348   3.832   2.204 -0.4617 -1.2002  0.5974
 3106TIP3    H230734   4.384   3.707   2.281  1.7935 -0.3078  1.0365
 3107TIP3   OH230735   4.556   0.343   0.361  0.2920  0.1032 -0.4635
 3107TIP3    H130736   4.547   0.247   0.358 -0.0850  0.0550  1.5332
 3107TIP3    H230737   4.651   0.357   0.367  0.2899 -0.1980  0.3566
 3108TIP3   OH230738   4.323   5.060   3.221  0.1652  0.0059  0.1497
 3108TIP3    H130739   4.365   4.988   3.173 -0.9328  0.0044 -0.8094
 3108TIP3    H230740   4.380   5.135   3.205 -0.2780  0.0398 -1.2697
 3109TIP3   OH230741   4.744   0.386   5.181  0.3094 -0.3771 -0.0376
 3109TIP3    H130742   4.691   0.437   5.242 -1.2126 -1.2424 -0.6165
 3109TIP3    H230743   4.689   0.312   5.158  2.9576 -2.9654  1.7120
 3110TIP3   OH230744   2.491   1.600   1.277 -0.0080 -0.0052  0.0287
 3110TIP3    H130745   2.431   1.541   1.323  1.2128 -0.0462  1.6353
 3110TIP3    H230746   2.474   1.686   1.316 -0.3893  0.3447 -0.8984
 3111TIP3   OH230747   3.865   3.216   2.921 -0.3182 -0.0875 -0.6312
 3111TIP3    H130748   3.894   3.228   2.830  0.8191  1.3503 -0.0946
 3111TIP3    H230749   3.934   3.165   2.962 -0.6219 -0.3617 -0.4615
 3112TIP3   OH230750   2.825   2.413  16.402 -0.3453  0.5755 -0.1310
 3112TIP3    H130751   2.877   2.434  16.480 -0.7537 -0.0436  0.3055
 3112TIP3    H230752   2.742   2.457  16.417 -0.1723  1.0407 -0.5398
 3113TIP3   OH230753   5.091   3.403  15.544  0.1630 -0.7573  0.4357
 3113TIP3    H130754   5.031   3.333  15.519  0.8257 -1.8699  1.9559
 3113TIP3    H230755   5.033   3.473  15.575 -0.4616 -0.8562 -0.4642
 3114TIP3   OH230756   5.323   5.030   1.112  0.0877 -0.0562 -0.0524
 3114TIP3    H130757   5.283   5.117   1.115 -1.1299 -0.6068 -0.0532
 3114TIP3    H230758   5.332   5.005   1.203  0.8110  0.2368 -0.0424
 3115TIP3   OH230759   2.874   1.481  14.190 -0.2640  0.3373  0.2182
 3115TIP3    H130760   2.801   1.425  14.165  0.4985 -0.8538  0.6285
 3115TIP3    H230761   2.913   1.509  14.107 -0.9528  0.6760  0.0072
 3116TIP3   OH230762   0.872   6.364   0.801 -0.3564 -0.6607  0.5209
 3116TIP3    H130763   0.932   6.304   0.844  2.2687  0.6605 -1.1271
 3116TIP3    H230764   0.849   6.320   0.719 -0.3193 -0.4450  0.3943
 3117TIP3   OH230765   3.249   5.650   2.186  0.1430 -0.6743  0.4856
 3117TIP3    H130766   3.231   5.699   2.266 -0.9173 -0.5890  0.2063
 3117TIP3    H230767   3.258   5.717   2.118  0.4259 -0.7820  0.4138
 3118TIP3   OH230768   4.287   6.233   4.771  0.6878  0.4177  0.0385
 3118TIP3    H130769   4.314   6.203   4.684  2.7912  1.6491  0.2437
 3118TIP3    H230770   4.231   6.309   4.753 -0.2467 -0.3331 -0.2817
 3119TIP3   OH230771   4.462   2.811  13.289 -0.1064  0.0876 -0.5094
 3119TIP3    H130772   4.524   2.867  13.242 -0.7015  0.9929 -0.2246
 3119TIP3    H230773   4.470   2.726  13.246  2.5459 -0.2764  0.5558
 3120TIP3   OH230774   0.669   1.644  15.545  0.5605  0.6016 -0.0345
 3120TIP3    H130775   0.652   1.636  15.451 -1.0532  1.4529  0.1727
 3120TIP3    H230776   0.708   1.560  15.569  1.0935  0.4175 -1.4901
 3121TIP3   OH230777   2.945   1.496  11.603  0.3226 -0.1867  0.3404
 3121TIP3    H130778   3.019   1.552  11.577  0.0460  0.3502  0.7167
 3121TIP3    H230779   2.871   1.556  11.612 -0.1446 -0.7123  0.0616
 3122TIP3   OH230780   5.007   4.156   4.290  0.2508 -0.2033 -0.0583
 3122TIP3    H130781   4.927   4.171   4.240  1.0341 -0.3273 -1.3878
 3122TIP3    H230782   5.076   4.197   4.237  0.8878  1.0914  1.7410
 3123TIP3   OH230783   4.894   0.007  15.511  0.2746 -0.1797  0.4972
 3123TIP3    H130784   4.977  -0.040  15.508  0.0996 -0.4979  0.6655
 3123TIP3    H230785   4.919   0.099  15.519  0.6068 -0.3320  1.2181
 3124TIP3   OH230786   2.901   1.020   3.159 -0.7384  0.0887 -0.2992
 3124TIP3    H130787   2.976   1.079   3.151 -0.9431  0.6719  1.9448
 3124TIP3    H230788   2.939   0.933   3.146  0.4939  0.3093  1.6497
 3125TIP3   OH230789   0.952   0.315  12.727  0.4316 -1.3619 -0.1553
 3125TIP3    H130790   0.965   0.398  12.771  0.7418 -0.7652 -1.3529
 3125TIP3    H230791   0.900   0.263  12.788  0.4051 -0.3621  0.6756
 3126TIP3   OH230792   0.035   2.930   6.798  0.0121 -0.2844 -0.5594
 3126TIP3    H130793   0.026   3.023   6.778  0.2078  0.2256  1.5496
 3126TIP3    H230794   0.109   2.901   6.744 -0.1564  0.7372 -1.3601
 3127TIP3   OH230795   0.009   4.774  11.786 -0.1282  0.4509  0.1943
 3127TIP3    H130796  -0.080   4.770  11.752 -0.0763  0.3173  0.0729
 3127TIP3    H230797  -0.000   4.762  11.880 -0.4761  3.0069  0.5044
 3128TIP3   OH230798   6.782   2.373   0.684  0.2864 -0.2039  0.1186
 3128TIP3    H130799   6.688   2.375   0.663  0.4006  0.0264 -0.3735
 3128TIP3    H230800   6.825   2.370   0.599  0.6681 -2.8443  0.3761
 3129TIP3   OH230801   0.123   3.185   3.167 -0.5182 -0.1080  0.0233
 3129TIP3    H130802   0.145   3.093   3.158  0.0629  0.0729 -0.4065
 3129TIP3    H230803   0.063   3.188   3.242 -1.0684 -0.9172 -0.3746
 3130TIP3   OH230804   4.839   1.040  13.370  0.0731 -0.4560  0.1560
 3130TIP3    H130805   4.928   1.017  13.396  0.9634  0.6653 -1.8267
 3130TIP3    H230806   4.817   0.979  13.300 -1.7481 -2.4794  2.4211
 3131TIP3   OH230807   0.991   1.556  13.086 -0.6075  0.9081  0.1110
 3131TIP3    H130808   0.949   1.620  13.029 -0.8680 -0.4242 -1.2380
 3131TIP3    H230809   1.077   1.541  13.047 -0.8548 -0.1536 -0.0307
 3132TIP3   OH230810   5.397   2.659   2.175  0.5095  0.1139  0.1204
 3132TIP3    H130811   5.412   2.584   2.233  0.8426 -0.4057 -0.6275
 3132TIP3    H230812   5.458   2.646   2.103  0.2497  0.8723 -0.2455
 3133TIP3   OH230813   4.300   5.547   5.927  0.5836  0.0090 -0.2962
 3133TIP3    H130814   4.354   5.583   5.998  1.5025  0.6987 -1.3343
 3133TIP3    H230815   4.349   5.470   5.896 -1.1185 -1.8962  1.5651
 3134TIP3   OH230816   1.062   4.849   5.082  0.0655  0.3725 -0.2081
 3134TIP3    H130817   1.011   4.874   5.159 -0.9769  0.0342 -0.7776
 3134TIP3    H230818   1.057   4.754   5.080  0.3281  0.3671 -0.5289
 3135TIP3   OH230819   0.272   1.728  14.330 -0.3920 -0.3389 -0.1262
 3135TIP3    H130820   0.196   1.785  14.338  0.9944  1.7218 -1.3238
 3135TIP3    H230821   0.294   1.729  14.237  1.3977 -0.4990  0.2750
 3136TIP3   OH230822   6.590   2.376  16.622  0.7153  0.1847 -0.2165
 3136TIP3    H130823   6.522   2.345  16.562 -0.8909  1.4815  0.8819
 3136TIP3    H230824   6.646   2.433  16.568 -0.8366  1.5173 -0.4593
 3137TIP3   OH230825   2.288   5.620  16.673  0.7126 -0.0150  0.4668
 3137TIP3    H130826   2.366   5.613  16.728  0.9078 -0.6235  0.1236
 3137TIP3    H230827   2.227   5.673  16.724  0.6765 -1.0360  1.5032
 3138TIP3   OH230828   0.187   3.213  14.796 -0.7859 -0.3019 -0.2537
 3138TIP3    H130829   0.129   3.211  14.872  1.3324  2.4980  1.5063
 3138TIP3    H230830   0.151   3.282  14.740 -3.3356 -3.4595 -2.7532
 3139TIP3   OH230831   5.511   0.130   1.796 -0.3610  0.2957 -0.1309
 3139TIP3    H130832   5.524   0.122   1.701  0.0897 -1.1226  0.0326
 3139TIP3    H230833   5.577   0.193   1.824  0.1433 -0.0015 -0.6342
 3140TIP3   OH230834   1.148   0.989   1.214  0.2773  0.5458 -0.4174
 3140TIP3    H130835   1.174   1.010   1.304 -0.4067  0.1003 -0.1173
 3140TIP3    H230836   1.132   1.074   1.174  0.4410  0.7404 -0.0806
 3141TIP3   OH230837   2.648   4.658   2.076  0.0062  0.4396 -0.0893
 3141TIP3    H130838   2.636   4.569   2.043  0.6605  0.7494 -1.2014
 3141TIP3    H230839   2.654   4.649   2.171 -2.2470 -0.4431 -0.0077
 3142TIP3   OH230840   3.896   6.262  13.379 -0.0860 -0.1052 -0.0740
 3142TIP3    H130841   3.938   6.213  13.308 -1.5970 -0.0268 -1.0495
 3142TIP3    H230842   3.802   6.257  13.359 -0.3746  1.8533  0.6861
 3143TIP3   OH230843   6.064   1.924   1.196 -0.3127  0.0981 -0.1639
 3143TIP3    H130844   6.027   1.901   1.281 -0.0275  2.3120  0.5728
 3143TIP3    H230845   6.025   1.861   1.135 -1.7536 -0.4750  1.3243
 3144TIP3   OH230846   4.310   0.051   4.118  0.0529 -0.6377  0.1823
 3144TIP3    H130847   4.252  -0.015   4.081 -0.4953 -0.1338  0.1473
 3144TIP3    H230848   4.360   0.083   4.043  0.3257 -1.0142  0.2010
 3145TIP3   OH230849   0.224   0.609  13.099 -0.1600  0.0858 -0.4035
 3145TIP3    H130850   0.238   0.613  13.194  1.4832  0.7890 -0.6649
 3145TIP3    H230851   0.256   0.693  13.066  0.7044 -0.7440 -1.7451
 3146TIP3   OH230852   3.701   2.880   1.813 -0.2674  0.1119 -0.5155
 3146TIP3    H130853   3.657   2.900   1.730  0.5224  1.1006 -0.7050
 3146TIP3    H230854   3.700   2.785   1.818  0.4133  0.0088 -2.0726
 3147TIP3   OH230855   0.513   2.158  15.585  0.2446  0.1837  0.1117
 3147TIP3    H130856   0.463   2.197  15.514 -1.5940 -1.7729  0.2587
 3147TIP3    H230857   0.543   2.074  15.550  0.1918 -0.3422  1.2829
 3148TIP3   OH230858   1.172   1.587  11.356 -0.0802 -0.1699  0.4044
 3148TIP3    H130859   1.170   1.634  11.273 -1.7488 -1.0988 -0.1313
 3148TIP3    H230860   1.260   1.599  11.389  0.6354  0.1765 -1.5465
 3149TIP3   OH230861   2.705   5.939   1.369 -0.3546  0.0593 -0.0150
 3149TIP3    H130862   2.777   5.964   1.311 -0.2423 -0.8591 -0.2793
 3149TIP3    H230863   2.629   5.935   1.312 -0.3482 -0.3112  0.0001
 3150TIP3   OH230864   1.979   2.174   5.582 -0.4051 -0.6030 -0.5169
 3150TIP3    H130865   1.894   2.130   5.578 -0.6535 -0.2009  0.1708
 3150TIP3    H230866   2.034   2.126   5.521 -1.3685 -0.3471 -1.6127
 3151TIP3   OH230867   3.760   5.569  13.432 -0.2270 -0.0901 -0.1225
 3151TIP3    H130868   3.805   5.489  13.459  0.5448  0.5884  0.6324
 3151TIP3    H230869   3.821   5.640  13.454 -1.1945  0.7584 -0.1226
 3152TIP3   OH230870   1.264   4.611  16.088 -0.2862  0.0458  0.1250
 3152TIP3    H130871   1.309   4.628  16.171 -0.7027 -1.0955  0.6093
 3152TIP3    H230872   1.333   4.580  16.029 -0.3475 -1.2803  0.7311
 3153TIP3   OH230873   1.900   0.765   2.089 -0.1510  0.2594  0.3866
 3153TIP3    H130874   1.863   0.677   2.084 -0.1674  0.3170 -0.4579
 3153TIP3    H230875   1.836   0.815   2.139 -1.2727  0.3899 -1.1640
 3154TIP3   OH230876   2.284   6.223  16.290 -0.2958  0.6077 -0.3915
 3154TIP3    H130877   2.282   6.308  16.245  3.2006  1.0038  0.0596
 3154TIP3    H230878   2.323   6.163  16.226 -0.9407 -0.2205 -0.0092
 3155TIP3   OH230879   2.576   0.331  16.500  0.0466  0.2981  0.0634
 3155TIP3    H130880   2.548   0.347  16.590 -0.6254 -1.6472  0.2264
 3155TIP3    H230881   2.526   0.395  16.448  1.1144  2.0473  1.1220
 3156TIP3   OH230882   6.359   0.033   0.103 -0.3481 -0.2291 -0.1778
 3156TIP3    H130883   6.381  -0.060   0.105  0.2562 -0.0929 -0.3483
 3156TIP3    H230884   6.341   0.055   0.194 -1.5798 -0.7655 -0.2891
 3157TIP3   OH230885   6.195   6.690   0.346 -0.3551  0.1964  0.0560
 3157TIP3    H130886   6.142   6.730   0.415  0.0792  0.4845  0.2268
 3157TIP3    H230887   6.271   6.653   0.392 -1.2539 -1.7608  0.0383
 3158TIP3   OH230888   2.125   3.352  15.001 -0.1494 -0.3664  0.1017
 3158TIP3    H130889   2.061   3.319  14.938 -1.6936  2.7164 -0.0701
 3158TIP3    H230890   2.191   3.396  14.947  1.8624 -3.0101  0.3181
 3159TIP3   OH230891   2.280   4.381   5.589 -0.7899 -0.3705 -0.1014
 3159TIP3    H130892   2.280   4.472   5.619  0.7422 -0.2424 -0.4795
 3159TIP3    H230893   2.227   4.335   5.654 -0.2572  0.5075  0.9678
 3160TIP3   OH230894   6.404   0.592   4.250 -0.1981 -0.4988 -0.2938
 3160TIP3    H130895   6.377   0.546   4.330 -0.2582  0.7172  0.3977
 3160TIP3    H230896   6.339   0.662   4.240 -1.2142 -1.6895 -2.3800
 3161TIP3   OH230897   1.623   2.924  13.011  0.1860 -0.0861  0.1405
 3161TIP3    H130898   1.569   2.864  13.063  0.4934  1.1237  1.9256
 3161TIP3    H230899   1.713   2.904  13.038  0.5091 -0.8151 -1.4367
 3162TIP3   OH230900   4.886   0.478   3.688 -0.2536  0.1195 -0.1083
 3162TIP3    H130901   4.792   0.490   3.705 -0.3044 -0.2172 -0.1529
 3162TIP3    H230902   4.906   0.390   3.721 -1.1643 -2.0657 -4.9268
 3163TIP3   OH230903   5.147   0.130  14.541  0.0286  0.3898  0.1497
 3163TIP3    H130904   5.214   0.109  14.606 -1.0935 -0.7097  0.9754
 3163TIP3    H230905   5.136   0.050  14.490 -0.7550  0.5186  0.1037
 3164TIP3   OH230906   0.796   0.544   6.745 -0.5163  0.0830 -0.4487
 3164TIP3    H130907   0.851   0.515   6.817 -0.7911  0.0486 -0.2540
 3164TIP3    H230908   0.794   0.470   6.684 -0.4554  0.0349 -0.3921
 3165TIP3   OH230909   5.059   4.472  11.744 -0.2983 -0.1466 -0.8660
 3165TIP3    H130910   5.049   4.455  11.837  0.6444 -0.5898 -0.8493
 3165TIP3    H230911   5.089   4.562  11.739  0.1666 -0.2956 -0.7221
 3166TIP3   OH230912   5.819   2.142   5.118  0.1316  0.2479  0.4166
 3166TIP3    H130913   5.804   2.058   5.162  0.4630 -0.4388 -0.7647
 3166TIP3    H230914   5.741   2.155   5.064  0.3608  0.3972  0.1227
 3167TIP3   OH230915   0.394   5.428   1.368 -0.3169  0.0489 -0.6056
 3167TIP3    H130916   0.419   5.361   1.432  1.4734  0.2827 -1.0476
 3167TIP3    H230917   0.307   5.401   1.339 -0.0151 -1.5695 -0.0755
 3168TIP3   OH230918   4.952   4.774  12.065  0.5743  0.4168 -0.9667
 3168TIP3    H130919   4.975   4.867  12.064  2.3428  0.0114  0.1301
 3168TIP3    H230920   4.890   4.765  12.137  1.2614  0.5822 -0.3397
 3169TIP3   OH230921   1.559   6.183  13.055  0.2508  0.2394 -0.4527
 3169TIP3    H130922   1.635   6.159  13.106 -0.6822 -0.4544  0.6341
 3169TIP3    H230923   1.594   6.234  12.982  2.0220 -2.2821 -1.4365
 3170TIP3   OH230924   4.167   2.615  12.905  0.8498 -0.2624  0.1697
 3170TIP3    H130925   4.194   2.594  12.815 -0.9444 -0.1275 -0.4184
 3170TIP3    H230926   4.091   2.672  12.895 -0.6331 -1.8914  1.7554
 3171TIP3   OH230927   0.643   1.756  11.118 -0.2702 -0.1715 -0.2522
 3171TIP3    H130928   0.592   1.679  11.144  0.7135 -0.8477 -0.2864
 3171TIP3    H230929   0.580   1.828  11.117 -1.1092 -0.8952  0.2196
 3172TIP3   OH230930   1.653   2.929  17.099 -0.4353  0.0535  0.0260
 3172TIP3    H130931   1.649   2.959  17.189 -1.8230  0.6631 -0.2314
 3172TIP3    H230932   1.734   2.967  17.064 -0.6194  0.9784  0.5934
 3173TIP3   OH230933   2.888   5.251   1.898  0.0450  0.3164 -0.0846
 3173TIP3    H130934   2.900   5.332   1.947  0.6985  0.5825 -0.6792
 3173TIP3    H230935   2.819   5.204   1.946 -0.5811  1.3727  0.0550
 3174TIP3   OH230936   5.741   4.905   4.378 -0.1749  0.5370  0.3635
 3174TIP3    H130937   5.721   4.969   4.309 -0.6132 -0.0493 -0.0661
 3174TIP3    H230938   5.833   4.882   4.365 -0.0582  0.9769  0.4294
 3175TIP3   OH230939   3.701   0.688   2.562  0.1683  0.3952 -0.3521
 3175TIP3    H130940   3.717   0.772   2.520 -0.3004  0.1853 -0.9483
 3175TIP3    H230941   3.606   0.684   2.574 -0.1909 -1.4918 -3.3941
 3176TIP3   OH230942   4.121   5.644   2.034  0.7163 -0.0874  0.0790
 3176TIP3    H130943   4.050   5.689   1.989  0.7377 -0.3047 -0.1717
 3176TIP3    H230944   4.082   5.609   2.113  0.1101 -1.8428 -0.9916
 3177TIP3   OH230945   6.209   6.132   1.687  0.0699 -0.4014 -0.3762
 3177TIP3    H130946   6.241   6.111   1.775  1.4673 -0.8168 -0.9605
 3177TIP3    H230947   6.141   6.197   1.700  0.9902  0.3066  0.9454
 3178TIP3   OH230948   3.099   4.280   4.101 -0.0747  0.1913  0.7978
 3178TIP3    H130949   3.193   4.270   4.119 -0.1767  0.2538  1.3765
 3178TIP3    H230950   3.084   4.226   4.023  0.4014  0.0093  0.8284
 3179TIP3   OH230951   4.651   5.327   3.644 -0.0057 -0.2942  0.4217
 3179TIP3    H130952   4.597   5.375   3.707  0.0942  2.6282 -1.6596
 3179TIP3    H230953   4.598   5.250   3.621 -2.7362  1.8290 -0.5982
 3180TIP3   OH230954   4.775   0.564   6.410 -0.4795 -0.2997  0.0157
 3180TIP3    H130955   4.814   0.510   6.479 -1.2986  0.4936  1.1220
 3180TIP3    H230956   4.842   0.568   6.342  1.8903  2.0220  2.3770
 3181TIP3   OH230957   1.423   0.459   4.234 -0.3240  0.3090  0.4922
 3181TIP3    H130958   1.423   0.547   4.272 -0.3053  0.1364  0.8952
 3181TIP3    H230959   1.341   0.453   4.186 -0.0953  0.7294  0.0341
 3182TIP3   OH230960   5.805   4.564  17.222  0.4574  0.4307 -0.6375
 3182TIP3    H130961   5.752   4.629  17.175  0.2120  1.2496  0.7268
 3182TIP3    H230962   5.811   4.599  17.311 -0.3921 -1.8553  0.3459
 3183TIP3   OH230963   3.049   5.700   4.606 -0.0263 -0.6581  0.2032
 3183TIP3    H130964   3.030   5.649   4.528  1.0951  0.0285 -0.5298
 3183TIP3    H230965   3.145   5.701   4.611 -0.0522  0.7005  0.6487
 3184TIP3   OH230966   2.612   6.548  16.748 -0.0212  0.4013 -0.1082
 3184TIP3    H130967   2.605   6.507  16.662 -1.3385 -2.2619  1.2068
 3184TIP3    H230968   2.522   6.557  16.778  0.4528  0.5154  1.3500
 3185TIP3   OH230969   5.385   3.936  16.536  1.3880  0.3859  0.6781
 3185TIP3    H130970   5.417   3.847  16.524 -0.2698  0.0423 -1.4545
 3185TIP3    H230971   5.301   3.927  16.581  0.3304  0.7124 -1.1694
 3186TIP3   OH230972   2.335   1.321  13.246 -0.6189 -0.3331  0.2054
 3186TIP3    H130973   2.362   1.230  13.264 -0.0076 -0.7850 -2.6663
 3186TIP3    H230974   2.240   1.318  13.245 -0.6027 -1.1935 -0.7946
 3187TIP3   OH230975   3.092   1.455  12.013  0.5902 -0.2626  0.1967
 3187TIP3    H130976   3.071   1.445  11.921 -0.0302 -1.0153  0.4189
 3187TIP3    H230977   3.010   1.440  12.059  0.7594  0.6945  0.8493
 3188TIP3   OH230978   3.473   5.788  11.931  0.1292  0.7078 -0.8896
 3188TIP3    H130979   3.498   5.761  12.019  0.4665  0.2414 -1.1245
 3188TIP3    H230980   3.499   5.715  11.875  1.0320  1.5133 -1.5309
 3189TIP3   OH230981   0.941   4.448   0.061  0.3009 -0.1976  0.4293
 3189TIP3    H130982   0.907   4.360   0.073  1.0532 -0.7277 -1.1293
 3189TIP3    H230983   1.034   4.436   0.047  0.6351  0.9757  1.5769
 3190TIP3   OH230984   3.862   1.681  16.556 -0.1772  0.1266 -0.9074
 3190TIP3    H130985   3.902   1.654  16.473 -2.2870  0.3544 -2.0577
 3190TIP3    H230986   3.815   1.603  16.586  1.6736 -0.3677  0.8079
 3191TIP3   OH230987   2.610   0.398  14.623 -0.3171  0.0813  0.4002
 3191TIP3    H130988   2.540   0.366  14.680  0.5535  0.5641  1.7911
 3191TIP3    H230989   2.638   0.480  14.664  1.8387 -0.6876  0.5365
 3192TIP3   OH230990   2.061   1.818  15.250  0.2060 -0.1041  0.1178
 3192TIP3    H130991   2.004   1.860  15.314 -0.3130  1.7452 -1.5043
 3192TIP3    H230992   2.040   1.861  15.167  1.1032 -2.2052 -1.2457
 3193TIP3   OH230993   5.567   1.075   2.540 -0.2214 -0.0039 -0.8636
 3193TIP3    H130994   5.491   1.038   2.586  0.8565 -1.1742  0.0144
 3193TIP3    H230995   5.607   1.134   2.604  0.4078 -0.4763 -0.8122
 3194TIP3   OH230996   3.601   4.144   1.886  0.1836 -0.0132 -0.5970
 3194TIP3    H130997   3.623   4.057   1.854 -0.0617  0.1743 -1.2722
 3194TIP3    H230998   3.508   4.139   1.908  0.6537 -0.5399  1.3917
 3195TIP3   OH230999   6.042   0.648  13.098 -0.1686  0.3688 -0.2335
 3195TIP3    H131000   6.020   0.725  13.151  0.3711  0.8743 -0.7393
 3195TIP3    H231001   6.043   0.575  13.161  0.2676  0.9272  0.4169
 3196TIP3   OH231002   6.705   0.924   1.419  0.0494  0.4055  0.2394
 3196TIP3    H131003   6.616   0.891   1.433 -0.5128  1.4693 -0.7868
 3196TIP3    H231004   6.727   0.968   1.500  0.5315 -1.8324  1.3719
 3197TIP3   OH231005   4.688   4.945   2.105  0.2903 -0.4188  0.1364
 3197TIP3    H131006   4.778   4.936   2.073  1.2027  1.8767  1.9948
 3197TIP3    H231007   4.696   4.961   2.199 -1.9087  2.9854 -0.1767
 3198TIP3   OH231008   4.546   3.338   3.453  0.1869  0.1100  0.4433
 3198TIP3    H131009   4.506   3.294   3.528 -0.9574  1.1222  0.4492
 3198TIP3    H231010   4.577   3.421   3.488  1.4806 -0.2709  0.2263
 3199TIP3   OH231011   3.273   6.422   0.007 -0.2103  0.2953 -0.2523
 3199TIP3    H131012   3.267   6.336   0.048 -0.3747 -0.5609 -2.0047
 3199TIP3    H231013   3.219   6.415  -0.072 -0.1917  1.9931 -0.4494
 3200TIP3   OH231014   1.782   5.615  14.840  0.2681  0.4540  0.0185
 3200TIP3    H131015   1.854   5.612  14.903 -0.1178  0.3087  0.4534
 3200TIP3    H231016   1.756   5.708  14.838  1.8710  0.9071 -1.7461
 3201TIP3   OH231017   6.486   5.405  14.725 -0.1179 -0.3114  0.2720
 3201TIP3    H131018   6.479   5.415  14.820 -0.5449 -0.9852  0.3155
 3201TIP3    H231019   6.414   5.458  14.690 -0.7978 -1.1437  0.3879
 3202TIP3   OH231020   1.140   1.669   0.079 -0.1000  0.8774 -0.1466
 3202TIP3    H131021   1.078   1.621   0.023  0.2624  0.4690 -0.1983
 3202TIP3    H231022   1.090   1.746   0.108 -1.2687 -0.4104  1.3466
 3203TIP3   OH231023   0.155   3.136  16.139 -0.3907  0.0634 -0.3982
 3203TIP3    H131024   0.113   3.182  16.065  0.5549  1.1581 -0.2725
 3203TIP3    H231025   0.208   3.068  16.098 -2.3051 -1.3602 -0.5583
 3204TIP3   OH231026   5.569   1.550  11.060  0.4024 -0.1990  0.3034
 3204TIP3    H131027   5.477   1.549  11.034  0.4203  0.9168  0.1907
 3204TIP3    H231028   5.617   1.541  10.978  0.3976 -1.8361  0.4528
 3205TIP3   OH231029   4.946   4.219  12.580  0.6181  0.0535 -0.6595
 3205TIP3    H131030   4.941   4.167  12.660 -2.1339 -2.5709 -2.4545
 3205TIP3    H231031   4.872   4.280  12.587  0.9398  0.4592 -0.7813
 3206TIP3   OH231032   4.865   0.656  10.894 -0.0979  0.0264 -0.3476
 3206TIP3    H131033   4.854   0.706  10.813 -0.2300  0.1009 -0.2836
 3206TIP3    H231034   4.883   0.721  10.961  1.8523 -0.1866 -0.6490
 3207TIP3   OH231035   2.453   2.436  13.746  0.2840  0.4292  0.1200
 3207TIP3    H131036   2.465   2.363  13.687  2.6357  1.0623 -0.2366
 3207TIP3    H231037   2.361   2.430  13.773  0.3573 -2.4572 -0.1032
 3208TIP3   OH231038   1.157   2.042   3.519 -0.2575  0.6049  0.1713
 3208TIP3    H131039   1.216   2.063   3.447 -0.9278 -0.3442 -0.6700
 3208TIP3    H231040   1.138   2.126   3.561  1.5948  0.9337  0.3890
 3209TIP3   OH231041   1.081   6.384  11.807 -0.2906 -0.3274 -0.1992
 3209TIP3    H131042   1.093   6.446  11.879 -1.4783 -0.1204 -0.1724
 3209TIP3    H231043   0.987   6.387  11.788 -0.1045 -0.9477 -1.2498
 3210TIP3   OH231044   5.321   6.720  10.172  0.1449  0.1412 -0.0513
 3210TIP3    H131045   5.268   6.740  10.095  1.6245 -1.1941 -1.4430
 3210TIP3    H231046   5.287   6.635  10.202  2.2964 -1.3389 -1.7002
 3211TIP3   OH231047   4.835   2.918  15.339  0.0803  0.5752  0.4457
 3211TIP3    H131048   4.741   2.932  15.322  0.4059  3.6311  0.7386
 3211TIP3    H231049   4.853   2.831  15.305 -2.5088  0.6324 -1.2371
 3212TIP3   OH231050   4.665   1.363   2.210 -0.4884 -0.0439  0.3819
 3212TIP3    H131051   4.631   1.395   2.127  0.7147 -2.2161 -1.0039
 3212TIP3    H231052   4.638   1.271   2.214 -1.2343  0.2458  2.7947
 3213TIP3   OH231053   1.629   6.761   1.345 -0.5641 -0.9217  0.4059
 3213TIP3    H131054   1.607   6.678   1.386  0.9267 -1.4482  0.1800
 3213TIP3    H231055   1.545   6.799   1.321 -1.2633 -2.3823  0.4749
 3214TIP3   OH231056   4.366   0.785   3.915  0.5320 -0.5586  0.2364
 3214TIP3    H131057   4.388   0.720   3.849 -0.3437 -0.0724 -0.5382
 3214TIP3    H231058   4.451   0.817   3.947  0.9446  0.0693 -1.4838
 3215TIP3   OH231059   3.399   6.409  12.913 -0.2047 -0.2618  0.2580
 3215TIP3    H131060   3.325   6.361  12.874 -0.3882 -0.1149  0.4223
 3215TIP3    H231061   3.430   6.467  12.844 -0.0470 -0.5469  0.0893
 3216TIP3   OH231062   5.166   0.682  10.674  0.5639  0.5142 -0.1059
 3216TIP3    H131063   5.156   0.607  10.733  0.3093  1.1715  0.6948
 3216TIP3    H231064   5.258   0.707  10.683  0.2838  1.2753  0.8459
 3217TIP3   OH231065   5.092   2.013  13.071 -0.0296  0.0980  0.0756
 3217TIP3    H131066   5.096   2.104  13.042 -0.5560  0.0907 -0.0316
 3217TIP3    H231067   5.004   2.004  13.109  0.1550 -0.2673  0.4124
 3218TIP3   OH231068   3.795   4.493   0.165  0.1242 -0.0127  0.2457
 3218TIP3    H131069   3.784   4.563   0.230 -0.7085 -0.9617  1.1500
 3218TIP3    H231070   3.855   4.431   0.207 -0.3612 -0.5951  0.0863
 3219TIP3   OH231071   4.355   4.532  13.686 -0.0504  0.6132 -0.2709
 3219TIP3    H131072   4.371   4.542  13.780 -1.8628 -0.6247  0.1894
 3219TIP3    H231073   4.376   4.441  13.667  0.5748  0.9289 -1.1323
 3220TIP3   OH231074   5.222   2.698  16.408  0.4603 -0.0466  0.6779
 3220TIP3    H131075   5.296   2.649  16.373  1.2522  2.2901 -1.0934
 3220TIP3    H231076   5.234   2.695  16.503  1.6434 -1.4510  0.5042
 3221TIP3   OH231077   0.492   5.606   4.895  0.2205  0.0912 -0.0934
 3221TIP3    H131078   0.482   5.513   4.877  0.0111  0.2654 -0.8937
 3221TIP3    H231079   0.412   5.630   4.942  0.4500 -0.2127  0.4550
 3222TIP3   OH231080   0.120   3.369  12.040  0.1906  0.0830 -0.0367
 3222TIP3    H131081   0.202   3.380  11.993 -0.4646 -0.1130 -1.2556
 3222TIP3    H231082   0.131   3.286  12.087  0.1502 -0.6999 -1.3719
 3223TIP3   OH231083   5.294   0.718   5.470  0.3976 -0.0698  0.4297
 3223TIP3    H131084   5.265   0.674   5.390 -0.6870  2.2251 -0.5039
 3223TIP3    H231085   5.242   0.678   5.540 -0.0630 -0.7596 -0.2926
 3224TIP3   OH231086   0.198   6.059  13.286 -0.3083  0.0444 -0.0307
 3224TIP3    H131087   0.266   6.000  13.319 -2.0079 -2.7995 -1.3477
 3224TIP3    H231088   0.170   6.109  13.363  2.1210  0.0964  0.8472
 3225TIP3   OH231089   1.872   4.626   5.740 -0.2110  0.4823 -0.4099
 3225TIP3    H131090   1.799   4.596   5.794  0.8336 -1.0047  0.2256
 3225TIP3    H231091   1.865   4.575   5.659 -0.8609  1.5833 -1.0675
 3226TIP3   OH231092   3.170   6.053   1.617  0.5713  0.6909 -0.1656
 3226TIP3    H131093   3.186   5.980   1.677  0.0959  0.4769 -0.3026
 3226TIP3    H231094   3.075   6.053   1.603  0.0950  3.3416  2.4338
 3227TIP3   OH231095   4.172   2.189  12.579 -0.0255  0.5715  0.2667
 3227TIP3    H131096   4.162   2.094  12.572  0.7178  0.5788 -0.9793
 3227TIP3    H231097   4.127   2.211  12.661  0.9951 -1.0262  1.2946
 3228TIP3   OH231098   5.855   1.849  13.433 -0.0486 -0.4644 -0.2929
 3228TIP3    H131099   5.860   1.759  13.465 -0.1751 -0.0578  0.9015
 3228TIP3    H231100   5.941   1.886  13.454 -1.0713  0.6351  2.1772
 3229TIP3   OH231101   5.730   5.967   1.459  0.2281 -0.1912  0.3318
 3229TIP3    H131102   5.656   5.910   1.479 -0.3309 -1.3563 -4.5662
 3229TIP3    H231103   5.802   5.907   1.440  1.0023  0.8492 -0.0489
 3230TIP3   OH231104   1.449   1.011  10.928 -0.5414  0.0464  0.2642
 3230TIP3    H131105   1.490   0.933  10.890 -1.1660 -0.0769 -0.1802
 3230TIP3    H231106   1.402   1.051  10.855  0.0892  1.0626  0.4015
 3231TIP3   OH231107   0.647   5.945  12.817  0.0892 -0.4074 -0.6727
 3231TIP3    H131108   0.707   5.874  12.795  0.3992 -0.7191  1.1072
 3231TIP3    H231109   0.583   5.906  12.876  0.3996  0.8250  0.5165
 3232TIP3   OH231110   0.536   2.726  14.157 -0.4498 -0.0189 -0.0514
 3232TIP3    H131111   0.595   2.717  14.232  0.2075 -0.2721 -0.5881
 3232TIP3    H231112   0.504   2.637  14.141  0.3000 -0.1716 -0.7698
 3233TIP3   OH231113   4.997   5.286   6.360  0.4602 -0.3103 -0.4410
 3233TIP3    H131114   5.077   5.241   6.386 -0.7432 -1.7627  0.8232
 3233TIP3    H231115   4.973   5.245   6.277  0.6904 -0.2988 -0.5136
 3234TIP3   OH231116   2.989   6.706  16.983  0.5258  0.2405  0.0321
 3234TIP3    H131117   3.001   6.768  16.911  1.2913 -0.2714 -0.2921
 3234TIP3    H231118   2.975   6.622  16.940  1.3178 -0.1294  0.4774
 3235TIP3   OH231119   4.322   3.490  16.669 -0.3191 -0.0724 -0.2425
 3235TIP3    H131120   4.312   3.411  16.722 -1.0591  0.2531  0.1147
 3235TIP3    H231121   4.284   3.468  16.584 -0.5473 -0.0943 -0.1340
 3236TIP3   OH231122   6.213   5.984   3.650  0.3680  0.1424 -0.3277
 3236TIP3    H131123   6.137   5.931   3.624 -0.0799 -0.5077  2.1472
 3236TIP3    H231124   6.176   6.051   3.708  1.6629 -0.1721  0.8798
 3237TIP3   OH231125   2.438   1.269   5.379 -0.4955 -0.5045  0.0316
 3237TIP3    H131126   2.392   1.349   5.404  0.0234 -0.0790 -0.3704
 3237TIP3    H231127   2.369   1.211   5.346 -0.5486  0.7506 -2.1451
 3238TIP3   OH231128   2.953   2.600  11.655 -0.1434  0.3276  0.1711
 3238TIP3    H131129   2.865   2.567  11.634  0.3016 -1.2080  0.7008
 3238TIP3    H231130   2.944   2.695  11.648 -2.0250  0.2343  0.8458
 3239TIP3   OH231131   0.759   4.349  15.520 -0.2338 -0.0645  0.6102
 3239TIP3    H131132   0.770   4.279  15.584  1.3393  0.3423  0.7992
 3239TIP3    H231133   0.835   4.406  15.533  0.0353  0.1116 -1.4962
 3240TIP3   OH231134   0.530   3.755   1.774 -0.0569 -0.1457 -0.7682
 3240TIP3    H131135   0.508   3.662   1.785  1.8543 -0.4639  0.6939
 3240TIP3    H231136   0.506   3.775   1.684  0.9285 -2.4773 -1.5771
 3241TIP3   OH231137   1.840   5.741  15.723 -0.6062  0.0186  0.4377
 3241TIP3    H131138   1.773   5.673  15.726  1.7392 -2.2961  3.9828
 3241TIP3    H231139   1.923   5.693  15.720  1.0218  2.7571 -0.3614
 3242TIP3   OH231140   2.997   1.882  15.022  0.2537 -0.2644  0.5112
 3242TIP3    H131141   2.976   1.972  15.047 -1.0985 -0.0514 -1.3044
 3242TIP3    H231142   3.054   1.891  14.945  2.3888 -0.9431  1.9502
 3243TIP3   OH231143   3.022   1.105   0.734 -0.0055  0.2262  0.1747
 3243TIP3    H131144   3.002   1.084   0.826  0.3982  0.8528  0.4108
 3243TIP3    H231145   2.946   1.073   0.685 -0.8748  1.1635  0.8837
 3244TIP3   OH231146   1.004   4.162   1.499  0.2961  0.3906  0.7088
 3244TIP3    H131147   1.098   4.155   1.482  0.2181  1.9875 -0.5303
 3244TIP3    H231148   0.968   4.194   1.416 -1.2898  0.1833  1.3120
 3245TIP3   OH231149   0.653   5.395  14.730 -0.9388 -0.3128  0.0063
 3245TIP3    H131150   0.601   5.417  14.808  1.2005  1.0324  1.0955
 3245TIP3    H231151   0.605   5.435  14.657 -2.4726 -0.7930  0.7351
 3246TIP3   OH231152   3.980   3.297  11.493  0.4391 -0.2397 -0.1936
 3246TIP3    H131153   3.973   3.368  11.430  2.2045 -0.4884 -0.6998
 3246TIP3    H231154   4.060   3.317  11.543  0.5228 -1.4358  0.1733
 3247TIP3   OH231155   6.402   6.146   3.896  0.3580  0.1832  0.5010
 3247TIP3    H131156   6.308   6.145   3.912  0.2647  0.9753  0.0846
 3247TIP3    H231157   6.410   6.187   3.809  1.0669 -0.0761  0.4446
 3248TIP3   OH231158   4.381   3.776  15.992 -0.8142 -0.4697  0.4827
 3248TIP3    H131159   4.458   3.744  15.946 -0.1445 -0.1080  1.3412
 3248TIP3    H231160   4.318   3.795  15.923  0.5173  0.9687 -0.3478
 3249TIP3   OH231161   6.427   6.196   2.781  0.0261  0.3129 -0.0786
 3249TIP3    H131162   6.415   6.205   2.687  0.0800  1.5132  0.0308
 3249TIP3    H231163   6.500   6.255   2.802  1.2101 -1.2829  0.4333
 3250TIP3   OH231164   1.953   3.682  13.719  0.0251 -0.1753 -0.0594
 3250TIP3    H131165   1.996   3.686  13.634  1.5990 -3.1077  0.5187
 3250TIP3    H231166   1.909   3.597  13.720  1.3353 -0.8902  2.6047
 3251TIP3   OH231167   0.881   2.877  11.668  0.1728  0.3822 -0.3241
 3251TIP3    H131168   0.807   2.932  11.695 -0.2906 -0.2005 -0.4023
 3251TIP3    H231169   0.841   2.796  11.636  0.8179  0.2586 -0.8411
 3252TIP3   OH231170   0.160   2.582  14.900 -0.0993  0.3821 -0.0975
 3252TIP3    H131171   0.088   2.632  14.939 -0.9798 -1.4569  0.6646
 3252TIP3    H231172   0.158   2.497  14.944  1.3566 -0.3657 -1.4104
 3253TIP3   OH231173   3.000   0.342  13.709  0.2760  0.3329 -0.0840
 3253TIP3    H131174   2.999   0.375  13.799 -0.4343 -0.9753  0.4062
 3253TIP3    H231175   2.948   0.405  13.660 -1.1132 -0.0760  0.8441
 3254TIP3   OH231176   6.289   1.811  12.360  0.2233 -0.4117  0.0816
 3254TIP3    H131177   6.345   1.829  12.284  1.6887 -0.2679  1.1688
 3254TIP3    H231178   6.201   1.837  12.332  1.0257  1.2525 -0.9843
 3255TIP3   OH231179   1.825   3.696   6.348 -0.7946 -0.1380  0.0068
 3255TIP3    H131180   1.788   3.612   6.321  0.6139 -0.8928  0.3713
 3255TIP3    H231181   1.888   3.673   6.417  0.5726  1.0780 -0.8165
 3256TIP3   OH231182   6.597   3.514   0.071  0.2104  0.2946  0.0589
 3256TIP3    H131183   6.672   3.495   0.014 -0.1404 -1.3611  0.1328
 3256TIP3    H231184   6.531   3.449   0.046 -1.2668  1.8099 -0.0953
 3257TIP3   OH231185   3.253   4.535   0.584 -0.4877 -0.2660 -0.2919
 3257TIP3    H131186   3.289   4.449   0.563 -0.2159  0.0291 -1.0458
 3257TIP3    H231187   3.160   4.528   0.562 -0.7829 -0.8403  1.0887
 3258TIP3   OH231188   1.500   0.199   4.265 -0.5329 -0.1154 -0.3063
 3258TIP3    H131189   1.473   0.291   4.262  0.4735  0.1535 -1.3694
 3258TIP3    H231190   1.575   0.199   4.324 -0.7365 -0.3088 -0.0491
 3259TIP3   OH231191   5.732   5.764  11.799 -0.3074  0.1533 -0.3505
 3259TIP3    H131192   5.781   5.811  11.732 -1.7698  2.0383 -0.1406
 3259TIP3    H231193   5.641   5.766  11.768 -0.5495 -1.6813  0.1673
 3260TIP3   OH231194   2.129   0.301   0.545  0.2351 -0.3199  0.1244
 3260TIP3    H131195   2.062   0.236   0.566 -1.2283  0.6833 -1.3405
 3260TIP3    H231196   2.085   0.385   0.554  1.1665  0.3449 -1.3046
 3261TIP3   OH231197   0.371   2.620  17.069 -0.6609 -0.2070 -0.2609
 3261TIP3    H131198   0.357   2.700  17.020  0.7118 -1.0420 -2.0451
 3261TIP3    H231199   0.465   2.603  17.063 -0.8741 -1.7471  0.3909
 3262TIP3   OH231200   0.519   2.356  11.527 -0.2864  0.0649 -0.2401
 3262TIP3    H131201   0.430   2.336  11.498 -1.3233  2.0982  1.4415
 3262TIP3    H231202   0.556   2.408  11.455  0.2312 -2.2825 -1.7504
 3263TIP3   OH231203   4.927   1.706   2.016 -0.1442 -1.0133 -0.0074
 3263TIP3    H131204   4.914   1.770   1.946 -1.4839  0.1524  1.2696
 3263TIP3    H231205   5.017   1.677   2.006 -0.4298 -1.1395 -2.4304
 3264TIP3   OH231206   4.454   1.532  12.315 -0.1405 -0.2399  0.4659
 3264TIP3    H131207   4.416   1.456  12.359  0.2340 -0.6438  0.0957
 3264TIP3    H231208   4.428   1.607  12.369 -1.1315 -0.5534  0.4245
 3265TIP3   OH231209   0.473   0.095  10.651 -0.1281 -0.6265 -0.0068
 3265TIP3    H131210   0.539   0.069  10.587  0.9463  2.1418 -0.0789
 3265TIP3    H231211   0.416   0.155  10.603  0.8238  1.6486  1.6609
 3266TIP3   OH231212   2.772   5.510  13.688  0.2222 -0.2817  0.6065
 3266TIP3    H131213   2.761   5.425  13.730 -1.1425  0.1578  1.1613
 3266TIP3    H231214   2.829   5.558  13.747 -2.2804  0.5943  2.4090
 3267TIP3   OH231215   1.534   6.031  15.853  0.3178  0.1601  0.5713
 3267TIP3    H131216   1.565   5.962  15.911 -0.2336 -1.0742 -0.5890
 3267TIP3    H231217   1.598   6.102  15.864  1.5904 -1.0124  0.8163
 3268TIP3   OH231218   0.294   6.751   5.559  0.2744  0.0651  0.2818
 3268TIP3    H131219   0.324   6.840   5.581  1.1556 -0.1883  0.1210
 3268TIP3    H231220   0.212   6.765   5.511 -0.2179  0.7384  1.2952
 3269TIP3   OH231221   4.063   6.202   3.336  0.7899  0.2958 -0.0765
 3269TIP3    H131222   4.009   6.165   3.266 -1.2219  0.0334  1.5836
 3269TIP3    H231223   4.133   6.249   3.289 -0.1283 -0.4270 -2.2454
 3270TIP3   OH231224   0.857   5.578  12.489  0.0391  0.3032  0.1952
 3270TIP3    H131225   0.777   5.554  12.442 -1.2212  0.3257  2.2873
 3270TIP3    H231226   0.917   5.606  12.420 -1.5213 -0.3362 -1.4687
 3271TIP3   OH231227   1.615   2.783   3.744 -0.5953 -0.1639  0.6062
 3271TIP3    H131228   1.670   2.771   3.667 -1.9859 -0.9027 -0.2838
 3271TIP3    H231229   1.576   2.697   3.760 -1.1070  0.2280  1.5317
 3272TIP3   OH231230   6.782   2.121   2.408 -0.0040  0.4655  0.0442
 3272TIP3    H131231   6.774   2.200   2.462  0.1576 -0.1045  0.9138
 3272TIP3    H231232   6.692   2.093   2.392 -0.0626  0.8390 -0.2858
 3273TIP3   OH231233   3.540   1.528  17.150  0.0227 -0.3980  0.4136
 3273TIP3    H131234   3.569   1.575  17.229 -2.3995 -0.5365  1.4391
 3273TIP3    H231235   3.447   1.510  17.166  0.2633 -3.2878 -1.0784
 3274TIP3   OH231236   4.145   4.456  15.932  0.3654 -0.1475 -0.4070
 3274TIP3    H131237   4.234   4.491  15.941  0.3039 -0.4429  1.5205
 3274TIP3    H231238   4.089   4.523  15.970 -0.0098 -1.0907  0.7062
 3275TIP3   OH231239   2.254   6.171   5.792  0.3284  0.5636 -0.2280
 3275TIP3    H131240   2.284   6.096   5.740 -2.0815 -0.9882  0.5324
 3275TIP3    H231241   2.295   6.159   5.877  1.9295  1.5186 -0.8250
 3276TIP3   OH231242   2.385   0.372   0.409  0.5128  0.7689 -0.0219
 3276TIP3    H131243   2.301   0.352   0.451  0.0548  0.1914 -1.1676
 3276TIP3    H231244   2.420   0.446   0.459 -1.2286  1.7772 -0.2447
 3277TIP3   OH231245   3.289   1.153   3.342  0.1797  0.5791 -0.3531
 3277TIP3    H131246   3.198   1.172   3.324  0.1554 -0.8074 -1.7778
 3277TIP3    H231247   3.291   1.133   3.436 -1.1840 -0.5539 -0.5551
 3278TIP3   OH231248   3.145   0.548   3.681 -0.1987 -0.3671  0.5514
 3278TIP3    H131249   3.161   0.454   3.670 -1.2056 -0.4767  0.0174
 3278TIP3    H231250   3.050   0.555   3.692  0.1380  0.3061  3.4797
 3279TIP3   OH231251   6.385   1.602  15.865  0.6480 -0.0079 -0.1402
 3279TIP3    H131252   6.423   1.515  15.852 -0.2880 -0.4463  0.0359
 3279TIP3    H231253   6.346   1.623  15.780 -1.3572 -0.8616  0.5413
 3280TIP3   OH231254   1.807   6.628   4.693  0.6503  0.0920 -0.0884
 3280TIP3    H131255   1.837   6.589   4.776  2.8838  0.7662 -0.5562
 3280TIP3    H231256   1.837   6.719   4.697 -0.8982  0.6496 -0.8326
 3281TIP3   OH231257   0.602   2.820  15.921 -0.5539 -0.1776  0.2093
 3281TIP3    H131258   0.648   2.788  15.844  0.2788  2.2565 -0.3638
 3281TIP3    H231259   0.528   2.870  15.886  0.4934  1.9109  0.9204
 3282TIP3   OH231260   4.565   5.394   0.285 -0.0531 -0.8962  0.0463
 3282TIP3    H131261   4.577   5.355   0.371  0.2314 -0.0043  0.4265
 3282TIP3    H231262   4.532   5.482   0.303 -0.2473 -0.7973 -0.7606
 3283TIP3   OH231263   3.726   3.391   1.087 -0.5852 -0.3694  0.1708
 3283TIP3    H131264   3.688   3.384   1.000 -0.9900 -1.8028  0.4579
 3283TIP3    H231265   3.652   3.380   1.147 -0.0305 -1.1944  0.7090
 3284TIP3   OH231266   2.947   0.240   3.019  0.6379  0.3887  0.7562
 3284TIP3    H131267   3.012   0.309   3.035  0.0781  1.0972  0.0334
 3284TIP3    H231268   2.885   0.280   2.958  0.1099 -0.6443  0.6128
 3285TIP3   OH231269   1.797   1.413   3.072  0.1402 -0.3933 -0.2366
 3285TIP3    H131270   1.852   1.369   3.137 -1.0710 -0.7040  0.5907
 3285TIP3    H231271   1.710   1.374   3.083 -0.5164  0.8879 -0.7436
 3286TIP3   OH231272   6.497   3.870   1.013  0.6518  0.5453  0.1592
 3286TIP3    H131273   6.553   3.931   1.061 -2.8177  3.4542  0.7274
 3286TIP3    H231274   6.523   3.783   1.045  0.2714  2.1759  5.4108
 3287TIP3   OH231275   1.762   2.537  11.822  0.0765 -0.4695  0.8617
 3287TIP3    H131276   1.823   2.587  11.876  0.5919 -1.8804  1.6282
 3287TIP3    H231277   1.703   2.602  11.785  1.9723  0.9215  0.1971
 3288TIP3   OH231278   1.754   2.529   5.803  1.0001 -0.0741 -1.0448
 3288TIP3    H131279   1.686   2.587   5.769  0.8750  0.8841  0.7990
 3288TIP3    H231280   1.707   2.463   5.854  1.4550  0.8501  0.6110
 3289TIP3   OH231281   4.877   0.058  12.823  0.0994 -0.3674 -0.1285
 3289TIP3    H131282   4.882   0.086  12.732 -0.4837 -1.3674 -0.4836
 3289TIP3    H231283   4.968   0.055  12.853  0.1022  3.5952  0.4840
 3290TIP3   OH231284   3.400   1.982  11.701  0.6838  0.0891  0.2616
 3290TIP3    H131285   3.468   1.940  11.754  1.0430  1.3161  0.8050
 3290TIP3    H231286   3.406   1.939  11.616  2.1127  0.1550  0.3118
 3291TIP3   OH231287   5.221   6.587  12.546 -0.4190  0.1124 -0.2074
 3291TIP3    H131288   5.133   6.549  12.546  0.2679 -1.5991  2.1762
 3291TIP3    H231289   5.228   6.630  12.631  1.0224  0.3222 -0.4343
 3292TIP3   OH231290   5.545   4.184   0.034  0.1449 -0.4593 -0.6990
 3292TIP3    H131291   5.483   4.228   0.093  1.5648  0.6718 -0.0131
 3292TIP3    H231292   5.618   4.158   0.091  0.1369 -2.1473 -1.4220
 3293TIP3   OH231293   1.746   5.493  11.353  0.1834 -0.3052  0.5982
 3293TIP3    H131294   1.820   5.552  11.370 -0.2032  0.8206 -1.4773
 3293TIP3    H231295   1.719   5.513  11.263 -2.5345 -0.8199  1.2490
 3294TIP3   OH231296   2.899   1.036  11.454  0.2947  0.2864  0.1288
 3294TIP3    H131297   2.896   1.128  11.430  0.7342 -0.0112 -1.1575
 3294TIP3    H231298   2.972   1.001  11.402  0.9338 -0.5207  1.5404
 3295TIP3   OH231299   4.659   6.747  12.940  0.0048 -0.4184 -0.0043
 3295TIP3    H131300   4.736   6.783  12.897 -1.1635  1.0004 -0.9303
 3295TIP3    H231301   4.658   6.789  13.026 -0.9736  1.2747 -0.8262
 3296TIP3   OH231302   4.935   3.267   1.756 -0.2503  0.2753 -0.0540
 3296TIP3    H131303   4.886   3.297   1.832  0.3324  1.3095 -0.0851
 3296TIP3    H231304   4.960   3.177   1.778 -0.5099  0.3941  0.7570
 3297TIP3   OH231305   5.637   0.850  14.796  0.2844 -0.2722  0.2147
 3297TIP3    H131306   5.733   0.844  14.803  0.4934  2.1225 -0.2310
 3297TIP3    H231307   5.607   0.854  14.887  0.8179  1.4623  0.3395
 3298TIP3   OH231308   1.363   4.177   5.723  0.0396  0.2399  0.2202
 3298TIP3    H131309   1.366   4.082   5.717  0.9427  0.2956 -0.1662
 3298TIP3    H231310   1.322   4.205   5.641 -1.7416  0.1053  1.0234
 3299TIP3   OH231311   0.621   2.089  16.598  0.0529 -0.3905  0.4097
 3299TIP3    H131312   0.533   2.053  16.592 -0.1046 -0.0419  0.6393
 3299TIP3    H231313   0.657   2.079  16.510 -0.2499 -0.4399  0.2921
 3300TIP3   OH231314   1.170   2.786  14.749 -0.1225  0.0813  0.1030
 3300TIP3    H131315   1.240   2.823  14.695  1.4788 -0.5893  1.6547
 3300TIP3    H231316   1.176   2.692  14.736 -0.0977 -0.0446  0.9900
 3301TIP3   OH231317   2.959   0.269   4.446 -0.0294  0.5143  0.5894
 3301TIP3    H131318   2.904   0.262   4.524 -1.6112  0.0805 -0.5378
 3301TIP3    H231319   2.953   0.183   4.404 -0.0283  1.0557 -0.5547
 3302TIP3   OH231320   6.585   1.345   0.834  0.0434  0.0910 -0.3214
 3302TIP3    H131321   6.623   1.394   0.907 -1.9615  0.4111  0.5374
 3302TIP3    H231322   6.595   1.403   0.758  0.4818  0.5239  0.0642
 3303TIP3   OH231323   2.989   0.412  16.904 -0.6102  1.1797  0.5221
 3303TIP3    H131324   3.029   0.380  16.823  0.2579 -1.7158  2.0043
 3303TIP3    H231325   3.053   0.475  16.938  0.5987 -0.0307  0.5695
 3304TIP3   OH231326   1.225   3.071  14.961  0.1985 -0.5621  0.0405
 3304TIP3    H131327   1.220   3.152  15.012 -0.0541 -0.1399 -0.6534
 3304TIP3    H231328   1.137   3.033  14.967 -0.1103  0.0100 -0.9405
 3305TIP3   OH231329   1.056   2.917   1.214  0.1335  0.6538 -0.3986
 3305TIP3    H131330   1.098   2.963   1.286  0.8166  0.5841 -0.7468
 3305TIP3    H231331   1.029   2.986   1.153  3.5390  0.4830 -2.2029
 3306TIP3   OH231332   3.693   1.324   6.270  0.1758  0.2608 -0.4588
 3306TIP3    H131333   3.622   1.388   6.259  2.0568  2.3145 -1.0010
 3306TIP3    H231334   3.766   1.375   6.306  1.5219 -1.7231 -0.3151
 3307TIP3   OH231335   5.932   6.417  14.558  0.4134 -0.0344  0.1878
 3307TIP3    H131336   5.993   6.363  14.508 -0.5866 -1.1726  0.1373
 3307TIP3    H231337   5.954   6.400  14.649 -0.3908 -1.1444  0.1854
 3308TIP3   OH231338   0.215   2.914   1.552  0.5014  0.4178  0.2204
 3308TIP3    H131339   0.242   2.924   1.461  0.2267 -1.0513 -0.0421
 3308TIP3    H231340   0.295   2.888   1.598  0.3995  0.0252  0.1799
 3309TIP3   OH231341   6.105   2.102   5.498 -0.4618  0.2038  0.3971
 3309TIP3    H131342   6.093   2.018   5.454  1.2436  1.0184 -1.7479
 3309TIP3    H231343   6.099   2.082   5.591 -1.2210 -2.0984 -0.1233
 3310TIP3   OH231344   3.652   6.102   4.505  0.0973  0.3524 -0.0233
 3310TIP3    H131345   3.697   6.172   4.552 -0.4081  0.3125  0.5371
 3310TIP3    H231346   3.582   6.075   4.565 -0.1871 -0.1054 -0.5588
 3311TIP3   OH231347   0.556   3.299  14.237  0.3566 -0.1553 -0.2938
 3311TIP3    H131348   0.644   3.264  14.220  0.6450  0.4044  0.0415
 3311TIP3    H231349   0.565   3.393  14.229 -0.4186 -0.1450 -1.1306
 3312TIP3   OH231350   4.391   1.313   2.338  0.0395  0.0733 -0.1205
 3312TIP3    H131351   4.471   1.272   2.306 -0.6823 -2.6264  1.3209
 3312TIP3    H231352   4.321   1.255   2.307 -1.1236  0.8609  0.9919
 3313TIP3   OH231353   6.476   4.056  16.011 -0.1547 -0.4876  0.0432
 3313TIP3    H131354   6.526   4.026  16.086  0.3285  0.4568  0.1010
 3313TIP3    H231355   6.527   4.128  15.975  0.1146 -1.5482 -1.7830
 3314TIP3   OH231356   0.801   1.374  14.356  0.2327  0.2544  0.0684
 3314TIP3    H131357   0.730   1.432  14.383 -0.8062 -0.9666  0.0318
 3314TIP3    H231358   0.858   1.428  14.301 -0.7635  1.2025 -0.0349
 3315TIP3   OH231359   5.089   1.438   4.559  0.7032  0.5091  0.1210
 3315TIP3    H131360   5.017   1.377   4.542  0.5596  0.3037  1.3725
 3315TIP3    H231361   5.153   1.421   4.490  0.4492 -0.7265  0.1842
 3316TIP3   OH231362   3.855   2.569  14.646 -0.1841 -0.0975  0.1869
 3316TIP3    H131363   3.867   2.638  14.581  2.3519 -0.1630  0.5517
 3316TIP3    H231364   3.760   2.555  14.648 -0.4865  1.3604 -1.9582
 3317TIP3   OH231365   5.259   5.577  11.853 -0.2846  0.3175 -0.3845
 3317TIP3    H131366   5.295   5.519  11.786 -1.5265  1.0226 -1.6851
 3317TIP3    H231367   5.189   5.625  11.808 -0.3692  1.6270  1.1184
 3318TIP3   OH231368   6.477   5.408  13.655  0.3411  0.0421 -0.0077
 3318TIP3    H131369   6.457   5.488  13.704  0.6640  0.5087 -0.6295
 3318TIP3    H231370   6.475   5.339  13.721 -1.2004  0.3703  0.3149
 3319TIP3   OH231371   2.958   2.692  13.814  0.4037 -0.5651 -0.1659
 3319TIP3    H131372   2.914   2.612  13.842  0.0587 -0.9818 -1.8178
 3319TIP3    H231373   2.930   2.758  13.876 -1.5045 -1.1258 -0.3995
 3320TIP3   OH231374   6.359   1.362  14.226 -0.3958  0.4558  0.2340
 3320TIP3    H131375   6.302   1.302  14.179 -0.2556  1.0640 -0.7432
 3320TIP3    H231376   6.439   1.311  14.242  0.1887  0.7267 -1.6535
 3321TIP3   OH231377   5.084   1.195   5.664 -0.3138  0.2908  0.2635
 3321TIP3    H131378   5.055   1.150   5.584 -2.5477  0.1718  1.0997
 3321TIP3    H231379   5.089   1.287   5.639 -2.2644  0.4250  0.2914
 3322TIP3   OH231380   0.887   3.037   5.880  0.5371 -0.3713 -0.5120
 3322TIP3    H131381   0.949   2.964   5.890 -0.9393 -1.7767 -1.5176
 3322TIP3    H231382   0.899   3.066   5.790  1.9912  1.4669  0.2358
 3323TIP3   OH231383   1.165   4.390  13.659 -0.4163 -0.7850 -0.0187
 3323TIP3    H131384   1.181   4.433  13.743 -0.7442  0.1603 -0.4445
 3323TIP3    H231385   1.251   4.387  13.616 -1.0204  2.8587 -1.6195
 3324TIP3   OH231386   1.267   4.498   3.136 -0.0673  0.0319 -0.3050
 3324TIP3    H131387   1.331   4.559   3.174  1.2525 -0.7651 -1.1752
 3324TIP3    H231388   1.312   4.413   3.139 -1.3026 -0.6303 -0.4644
 3325TIP3   OH231389   1.176   0.361   1.290  0.2218 -0.0633  0.1922
 3325TIP3    H131390   1.188   0.322   1.204  1.3373 -1.8415  1.1192
 3325TIP3    H231391   1.224   0.444   1.287  2.0576 -1.1236 -0.2246
 3326TIP3   OH231392   6.118   4.545   3.312 -0.6509 -0.1739  0.5842
 3326TIP3    H131393   6.033   4.518   3.277 -0.7045  0.3524  0.3074
 3326TIP3    H231394   6.098   4.620   3.368 -0.5737 -1.0362  1.8019
 3327TIP3   OH231395   4.688   4.098  11.778 -0.1401  0.1092 -0.3405
 3327TIP3    H131396   4.738   4.158  11.722 -2.3365  0.4031 -2.0339
 3327TIP3    H231397   4.713   4.011  11.749  0.4660  0.2259 -0.1871
 3328TIP3   OH231398   2.832   5.054   3.492  0.3768 -0.5714 -0.0636
 3328TIP3    H131399   2.921   5.077   3.463 -0.2440 -0.8712 -2.2825
 3328TIP3    H231400   2.776   5.118   3.450 -0.4989 -0.5317  1.1537
 3329TIP3   OH231401   4.138   4.968  17.197  0.1591  0.3920 -0.2926
 3329TIP3    H131402   4.216   4.968  17.254 -0.5558  0.1255  0.6979
 3329TIP3    H231403   4.172   4.951  17.109  1.3519  1.3886 -0.0392
 3330TIP3   OH231404   3.432   6.691  12.213  0.3665 -0.0737 -0.2936
 3330TIP3    H131405   3.518   6.720  12.183  0.2051  0.1747 -0.5124
 3330TIP3    H231406   3.412   6.748  12.287 -0.0199  0.4744 -0.8218
 3331TIP3   OH231407   3.157   3.771   4.445  0.2735 -0.0483  0.0573
 3331TIP3    H131408   3.208   3.848   4.469  0.7976  0.2606 -1.9523
 3331TIP3    H231409   3.222   3.701   4.436 -0.2254 -0.8430  2.1401
 3332TIP3   OH231410   5.574   3.414   2.984  0.0119  0.7414 -0.2632
 3332TIP3    H131411   5.665   3.425   2.954  0.2982  0.6237  0.5508
 3332TIP3    H231412   5.536   3.501   2.975  0.3422  0.8983 -0.1708
 3333TIP3   OH231413   6.097   0.004   5.423  0.3957 -0.2561 -0.1938
 3333TIP3    H131414   6.061  -0.083   5.405 -0.2143 -0.3980  1.6380
 3333TIP3    H231415   6.034   0.065   5.384  1.0397 -0.6355 -1.8448
 3334TIP3   OH231416   5.714   1.876  13.728 -0.3446 -0.1753  0.5466
 3334TIP3    H131417   5.780   1.826  13.680  0.5990  0.3246  1.2782
 3334TIP3    H231418   5.764   1.948  13.768 -1.3680  0.3020  0.9903
 3335TIP3   OH231419   4.071   3.510   3.584 -0.4993 -0.3221 -0.4299
 3335TIP3    H131420   4.074   3.595   3.540 -0.5772  0.7522  1.5768
 3335TIP3    H231421   3.978   3.495   3.600 -0.5221 -1.0192 -1.2141
 3336TIP3   OH231422   6.782   1.651  11.758  0.6009  0.1507 -0.2642
 3336TIP3    H131423   6.871   1.681  11.742  0.6267  0.0128 -0.3733
 3336TIP3    H231424   6.785   1.607  11.843  0.0180  2.7711  1.1829
 3337TIP3   OH231425   6.313   0.264  16.590 -0.0950  0.1130  0.3313
 3337TIP3    H131426   6.220   0.240  16.587  0.2468 -1.2180  0.0898
 3337TIP3    H231427   6.342   0.236  16.677 -0.4432  2.5642  1.2739
 3338TIP3   OH231428   0.432   2.511  15.811 -0.3297 -0.6692  0.2992
 3338TIP3    H131429   0.460   2.537  15.724  0.0790 -1.7144  0.1093
 3338TIP3    H231430   0.502   2.540  15.869 -0.6949  0.2043  0.3141
 3339TIP3   OH231431   1.406   6.759   3.337 -0.0798  0.2515 -0.4190
 3339TIP3    H131432   1.428   6.669   3.361 -0.3228  0.1828 -0.4509
 3339TIP3    H231433   1.378   6.753   3.246  1.6307  0.6385 -0.9789
 3340TIP3   OH231434   6.090   1.207  16.224  0.1488 -0.6769  0.2381
 3340TIP3    H131435   6.078   1.301  16.236  1.1759 -0.5476  0.2718
 3340TIP3    H231436   6.004   1.175  16.196 -1.0793 -0.2504  3.3168
 3341TIP3   OH231437   4.567   1.123  12.878 -0.6788  0.6266  0.7619
 3341TIP3    H131438   4.557   1.203  12.929 -0.0454 -0.2269  2.2263
 3341TIP3    H231439   4.661   1.115  12.863 -0.8605  0.8870 -0.5749
 3342TIP3   OH231440   2.413   6.115  13.739 -0.1192  0.0487  0.0572
 3342TIP3    H131441   2.416   6.050  13.668 -1.4242  0.6342 -0.5426
 3342TIP3    H231442   2.491   6.096  13.792  0.6970 -0.5870 -1.3544
 3343TIP3   OH231443   3.092   3.378  13.934  0.0294  0.6001  0.2381
 3343TIP3    H131444   3.078   3.358  14.027  1.7011  0.3714  0.4489
 3343TIP3    H231445   3.178   3.342  13.914 -0.4254  0.3968 -1.4859
 3344TIP3   OH231446   5.679   3.798   4.944 -0.0978 -0.2444 -0.4429
 3344TIP3    H131447   5.685   3.789   4.849 -2.6477  1.4555 -0.8242
 3344TIP3    H231448   5.768   3.782   4.976  1.2947  1.4304 -3.3080
 3345TIP3   OH231449   0.485   0.752  17.081  0.1351 -0.5383  0.2863
 3345TIP3    H131450   0.466   0.727  16.991 -0.5021 -0.9868  0.5374
 3345TIP3    H231451   0.460   0.676  17.133  0.0185 -0.0954  0.8842
 3346TIP3   OH231452   4.494   1.579  14.964 -0.6123 -0.7177 -0.3345
 3346TIP3    H131453   4.524   1.663  14.929 -0.8250  1.2747  4.0200
 3346TIP3    H231454   4.573   1.525  14.969  0.2993  0.7037  0.7637
 3347TIP3   OH231455   4.599   3.356  13.750  0.0398 -0.2694 -0.2978
 3347TIP3    H131456   4.602   3.288  13.683 -2.5672  0.1399 -0.9180
 3347TIP3    H231457   4.672   3.414  13.730  0.1963 -1.0006 -1.8727
 3348TIP3   OH231458   4.670   6.310   3.531  0.6364  0.6501  0.4776
 3348TIP3    H131459   4.591   6.348   3.493  0.8413  1.5840  0.9803
 3348TIP3    H231460   4.704   6.252   3.462 -0.9962 -0.4978  0.6171
 3349TIP3   OH231461   1.181   0.445   2.801 -0.5202 -0.1471  0.6056
 3349TIP3    H131462   1.178   0.521   2.859  0.0144  1.6407 -1.6659
 3349TIP3    H231463   1.268   0.407   2.817  0.4539  1.5626 -0.5285
 3350TIP3   OH231464   6.455   4.922   5.580  0.1956 -0.6542  0.1988
 3350TIP3    H131465   6.489   4.878   5.658  0.9356  0.6563  0.6290
 3350TIP3    H231466   6.364   4.944   5.602  0.7420  0.7213  1.1350
 3351TIP3   OH231467   3.439   0.606  11.916 -1.1595 -0.3374 -0.3888
 3351TIP3    H131468   3.518   0.556  11.898 -0.6656  0.4001 -0.3120
 3351TIP3    H231469   3.420   0.591  12.008  1.1656  2.6097  0.6488
 3352TIP3   OH231470   0.981   1.620  12.267  0.0109  0.1271 -0.5588
 3352TIP3    H131471   0.966   1.715  12.272 -2.3630 -0.2230 -0.0469
 3352TIP3    H231472   0.927   1.592  12.193 -1.3130 -1.1367  0.8426
 3353TIP3   OH231473   0.360   2.525  15.514  0.2699 -0.4398  0.7433
 3353TIP3    H131474   0.293   2.593  15.514 -1.2703 -1.9007  2.5920
 3353TIP3    H231475   0.404   2.534  15.430 -1.4812  1.3008 -0.0069
 3354TIP3   OH231476   5.250   4.257   2.403  0.4213 -0.0807 -0.6116
 3354TIP3    H131477   5.265   4.326   2.339  0.1570  0.7902  0.2491
 3354TIP3    H231478   5.239   4.303   2.486 -2.1527 -0.9781 -0.3954
 3355TIP3   OH231479   3.855   3.992  16.301 -0.0143 -0.0099 -0.0825
 3355TIP3    H131480   3.921   4.039  16.352  0.8353  0.2340 -1.4004
 3355TIP3    H231481   3.904   3.928  16.250 -1.1108 -2.0245  1.2961
 3356TIP3   OH231482   4.199   6.077   1.947 -0.0055  0.2523  0.3746
 3356TIP3    H131483   4.193   6.043   1.858 -0.2250 -1.3434  0.9690
 3356TIP3    H231484   4.121   6.044   1.991  0.7779 -0.1229  1.5168
 3357TIP3   OH231485   3.377   0.372   5.560  0.0707 -0.2787  0.4795
 3357TIP3    H131486   3.352   0.432   5.631  1.3191 -0.4263  1.0629
 3357TIP3    H231487   3.436   0.309   5.602 -0.4117 -1.3090 -0.3611
 3358TIP3   OH231488   2.810   5.608  12.960  0.2388 -0.4066 -0.0004
 3358TIP3    H131489   2.827   5.564  12.877  1.5927 -1.3132  0.7351
 3358TIP3    H231490   2.752   5.547  13.007 -0.2412 -0.0550 -0.1292
 3359TIP3   OH231491   0.976   0.272   4.225  0.8086  0.1343 -0.2036
 3359TIP3    H131492   0.943   0.213   4.293 -0.7971  2.4995  1.1497
 3359TIP3    H231493   1.071   0.260   4.227  0.7497 -0.1471  2.1611
 3360TIP3   OH231494   4.427   2.918  13.989 -0.2153 -0.5805  0.2651
 3360TIP3    H131495   4.456   2.908  13.898  1.5442 -0.4198  0.7924
 3360TIP3    H231496   4.408   3.012  13.998 -1.4269 -0.7666 -0.2208
 3361TIP3   OH231497   1.226   1.429  15.941 -0.6379 -0.0405  0.1057
 3361TIP3    H131498   1.170   1.357  15.971  0.3135  0.4165  3.2615
 3361TIP3    H231499   1.288   1.388  15.881 -2.1670 -1.1997 -0.7184
 3362TIP3   OH231500   3.356   3.585   4.399 -0.1528 -0.3301 -0.4842
 3362TIP3    H131501   3.406   3.667   4.393 -0.4422 -0.0009  1.3730
 3362TIP3    H231502   3.423   3.516   4.400  0.1068 -0.1046 -1.6421
 3363TIP3   OH231503   1.058   5.174  14.304  0.4631 -0.2741  0.0100
 3363TIP3    H131504   0.981   5.138  14.260 -0.5271 -0.1061  1.5703
 3363TIP3    H231505   1.108   5.097  14.332 -2.5710 -0.6551  4.9756
 3364TIP3   OH231506   5.335   5.462  14.621 -0.1778 -0.0327 -0.1169
 3364TIP3    H131507   5.349   5.520  14.696  0.4442  0.7744 -0.8618
 3364TIP3    H231508   5.275   5.509  14.564  0.3919 -0.0754 -0.7637
 3365TIP3   OH231509   5.298   6.760   4.190  0.4539 -0.0665  0.0963
 3365TIP3    H131510   5.338   6.825   4.248 -0.9857 -0.1226  1.1657
 3365TIP3    H231511   5.303   6.799   4.103  1.8613  0.3875  0.3638
 3366TIP3   OH231512   2.992   1.575   3.106 -0.1505 -0.5698  0.0657
 3366TIP3    H131513   2.943   1.555   3.027  1.0140  1.1599 -1.1467
 3366TIP3    H231514   3.002   1.670   3.104 -1.1535 -0.3707  2.9431
 3367TIP3   OH231515   1.324   3.488  10.723  0.8287  0.4860  0.4000
 3367TIP3    H131516   1.337   3.417  10.660 -1.1558  0.8389 -0.4584
 3367TIP3    H231517   1.408   3.533  10.728  1.6420 -0.9288 -0.2710
 3368TIP3   OH231518   0.467   2.714  12.102 -0.0847 -0.2321  0.0622
 3368TIP3    H131519   0.382   2.750  12.127 -0.1521 -1.9460  2.5147
 3368TIP3    H231520   0.451   2.620  12.094  1.4387 -0.4938 -0.0538
 3369TIP3   OH231521   2.851   4.533   1.640  0.1817  0.2353  0.2962
 3369TIP3    H131522   2.940   4.565   1.628 -0.8485  3.7027  1.3498
 3369TIP3    H231523   2.861   4.442   1.666  3.3786  0.3766 -0.2998
 3370TIP3   OH231524   1.214   2.809  13.557  0.2913 -0.0930  0.6105
 3370TIP3    H131525   1.171   2.840  13.636 -1.2122 -1.0865  0.2143
 3370TIP3    H231526   1.169   2.727  13.535 -3.1321  2.8093 -4.2688
 3371TIP3   OH231527   5.755   2.472  12.192  0.2304  0.3316 -0.1822
 3371TIP3    H131528   5.698   2.514  12.128 -0.8368  0.8515  1.0713
 3371TIP3    H231529   5.821   2.538  12.213 -0.3790  0.7521  0.4430
 3372TIP3   OH231530   0.275   3.349  13.198  0.2084 -0.2016 -0.1977
 3372TIP3    H131531   0.223   3.272  13.177  1.9892 -2.1419  2.2027
 3372TIP3    H231532   0.312   3.330  13.284  3.7508  1.6641 -1.2140
 3373TIP3   OH231533   4.331   4.118  16.108 -0.2528 -0.2925 -0.2017
 3373TIP3    H131534   4.413   4.151  16.071  0.8201 -2.5893  0.0227
 3373TIP3    H231535   4.284   4.081  16.034  0.3609 -1.8359  0.1676
 3374TIP3   OH231536   5.477   0.244  12.702 -0.1928 -0.1100 -0.1785
 3374TIP3    H131537   5.511   0.205  12.621  2.4879  1.7074 -0.0093
 3374TIP3    H231538   5.495   0.178  12.769  1.0910 -0.0938 -0.4781
 3375TIP3   OH231539   0.277   6.418  13.509  0.1420  0.4178 -0.4042
 3375TIP3    H131540   0.358   6.418  13.560 -0.7538  1.1204  1.0598
 3375TIP3    H231541   0.270   6.329  13.475  1.3212  0.2434 -0.2152
 3376TIP3   OH231542   0.632   1.577  14.473 -0.5076 -0.4280 -0.4103
 3376TIP3    H131543   0.663   1.652  14.422 -1.2165 -0.1336 -0.4060
 3376TIP3    H231544   0.689   1.575  14.550  0.8437 -1.1167 -1.3923
 3377TIP3   OH231545   1.134   2.127   0.933  0.0658  0.6049  0.0688
 3377TIP3    H131546   1.039   2.134   0.925 -0.0946 -0.4619  0.8335
 3377TIP3    H231547   1.148   2.039   0.969  1.4016  0.2741 -1.1752
 3378TIP3   OH231548   6.153   0.827  15.095 -0.3739  0.3477  0.3731
 3378TIP3    H131549   6.169   0.846  15.002 -0.9071  2.5718  0.7164
 3378TIP3    H231550   6.180   0.907  15.141  0.2109 -0.8600  2.1797
 3379TIP3   OH231551   0.393   1.053   3.030 -0.1525  0.4504  0.3000
 3379TIP3    H131552   0.443   1.131   3.005  0.0012  0.0259 -0.7463
 3379TIP3    H231553   0.315   1.087   3.073 -0.0233  1.1828 -0.0374
 3380TIP3   OH231554   3.877   4.664   1.631 -0.0137  0.1680  0.2819
 3380TIP3    H131555   3.969   4.662   1.658 -0.7039 -0.6475  2.7642
 3380TIP3    H231556   3.875   4.617   1.548  1.5670 -1.4627  1.1254
 3381TIP3   OH231557   0.972   2.752  13.844  0.1541  0.4193  0.7287
 3381TIP3    H131558   0.927   2.801  13.913  0.7267 -0.4525  1.7349
 3381TIP3    H231559   0.934   2.664  13.850 -0.1799  0.4802 -0.4288
 3382TIP3   OH231560   0.085   5.924   1.947  0.2789 -0.3073  0.4483
 3382TIP3    H131561   0.124   5.971   1.873  0.4735 -1.5496 -0.2629
 3382TIP3    H231562   0.087   5.832   1.920 -0.5066 -0.6776  1.6198
 3383TIP3   OH231563   5.555   1.550   4.593  0.0310 -0.4292 -0.0968
 3383TIP3    H131564   5.584   1.638   4.615 -1.3359 -0.5387  2.3442
 3383TIP3    H231565   5.522   1.556   4.504 -0.0222  1.5145  0.0477
 3384TIP3   OH231566   0.471   4.994   2.331 -0.0357  0.2750 -0.2669
 3384TIP3    H131567   0.539   5.051   2.366  1.5991 -1.9378  0.2582
 3384TIP3    H231568   0.487   4.993   2.237  1.2519 -0.9349 -0.0555
 3385TIP3   OH231569   2.623   0.081  16.163 -0.1445 -0.1259  0.0544
 3385TIP3    H131570   2.655  -0.009  16.154  0.6872  0.1913 -0.1685
 3385TIP3    H231571   2.622   0.096  16.257 -0.4250 -0.4175  0.1009
 3386TIP3   OH231572   0.624   1.473  13.901 -0.1322 -0.0517  0.0325
 3386TIP3    H131573   0.661   1.385  13.907  0.8677  0.2271 -1.6774
 3386TIP3    H231574   0.585   1.489  13.987  1.9942 -1.1367  1.2346
 3387TIP3   OH231575   3.777   3.511   2.859 -0.2044 -0.1812  0.4468
 3387TIP3    H131576   3.825   3.591   2.883 -1.0880  0.5611 -0.2107
 3387TIP3    H231577   3.785   3.454   2.936  0.5370  0.4890  0.8787
 3388TIP3   OH231578   2.136   4.099   1.859 -0.3145 -0.2089 -0.0961
 3388TIP3    H131579   2.088   4.084   1.778  1.3037  0.9441 -1.3037
 3388TIP3    H231580   2.210   4.038   1.855  0.5344  0.8015 -0.1646
 3389TIP3   OH231581   1.842   3.942  16.580  0.4558 -0.0184 -0.6798
 3389TIP3    H131582   1.930   3.962  16.613  1.5602 -2.5955 -1.9544
 3389TIP3    H231583   1.852   3.947  16.485 -0.9348  0.1695 -0.8174
 3390TIP3   OH231584   3.037   2.268  16.884  0.3442  0.1797  0.4321
 3390TIP3    H131585   3.040   2.361  16.862 -1.1747  0.3160  0.7035
 3390TIP3    H231586   2.944   2.246  16.881  0.5834 -1.0529  1.5292
 3391TIP3   OH231587   0.292   4.611   2.486 -0.0591 -0.2453 -0.1385
 3391TIP3    H131588   0.218   4.657   2.446  1.0766 -0.5535 -2.6776
 3391TIP3    H231589   0.275   4.519   2.469  0.1796 -0.4128  0.5393
 3392TIP3   OH231590   3.749   3.323   4.259 -0.0837  0.3240 -0.0772
 3392TIP3    H131591   3.830   3.346   4.214  0.7919 -0.5057  1.0394
 3392TIP3    H231592   3.739   3.229   4.243  0.1544  0.0545  1.3428
 3393TIP3   OH231593   4.917   2.163   1.021 -0.3783 -0.5657  0.0282
 3393TIP3    H131594   4.914   2.099   1.092 -1.3241 -0.1357  0.3913
 3393TIP3    H231595   4.996   2.141   0.971  0.7632 -0.3318  1.7162
 3394TIP3   OH231596   3.540   2.856   5.121  0.4304  0.2909 -0.7075
 3394TIP3    H131597   3.600   2.926   5.095 -2.3216  2.1079 -2.4909
 3394TIP3    H231598   3.453   2.896   5.115 -1.0792 -2.6512  0.4612
 3395TIP3   OH231599   3.361   0.301   0.373 -0.2440 -0.3042  0.1028
 3395TIP3    H131600   3.291   0.344   0.423 -1.8530 -3.2664  0.4966
 3395TIP3    H231601   3.431   0.287   0.437 -0.4747 -0.0076  0.4222
 3396TIP3   OH231602   1.403   5.080  11.815 -0.3690 -0.9367  0.2216
 3396TIP3    H131603   1.479   5.126  11.777 -1.2533 -0.4693 -1.0149
 3396TIP3    H231604   1.442   5.012  11.870  0.9653 -1.9948 -1.9609
 3397TIP3   OH231605   0.479   4.097   5.114  0.6374  0.0934  0.5251
 3397TIP3    H131606   0.556   4.129   5.067  0.3743 -0.2372 -0.1467
 3397TIP3    H231607   0.477   4.146   5.195  1.3695  0.3429  0.3892
 3398TIP3   OH231608   2.869   5.906  11.694  0.5095  0.7316  0.5858
 3398TIP3    H131609   2.808   5.908  11.768  0.6840 -0.1583  0.7612
 3398TIP3    H231610   2.947   5.951  11.726 -0.0594  1.9256  0.3429
 3399TIP3   OH231611   5.560   4.158   2.810  0.6107 -0.0520  0.0583
 3399TIP3    H131612   5.538   4.076   2.852 -0.0478  0.0699 -0.0467
 3399TIP3    H231613   5.519   4.153   2.723 -0.4049  0.8502  0.4677
 3400TIP3   OH231614   3.729   1.516   3.522  0.2022 -0.0015 -0.4948
 3400TIP3    H131615   3.717   1.464   3.442  0.8506 -0.7182 -0.1218
 3400TIP3    H231616   3.704   1.457   3.593 -2.0924  1.1762 -0.2441
 3401TIP3   OH231617   2.855   3.046  15.966  0.2738  0.5192 -0.1573
 3401TIP3    H131618   2.759   3.039  15.971  0.2325 -0.4020 -1.8712
 3401TIP3    H231619   2.876   3.126  16.014 -1.2999  0.3903  0.7742
 3402TIP3   OH231620   2.827   5.176  12.685 -0.4653 -0.3744  0.3867
 3402TIP3    H131621   2.767   5.235  12.731 -2.3086 -2.3587  0.6204
 3402TIP3    H231622   2.771   5.126  12.626  1.1764 -1.3383 -0.3963
 3403TIP3   OH231623   5.561   0.021  12.532  0.2727 -0.0517 -0.0186
 3403TIP3    H131624   5.535  -0.051  12.589  0.1476 -0.1304 -0.1739
 3403TIP3    H231625   5.654   0.035  12.551  0.0068  0.5587  0.9022
 3404TIP3   OH231626   4.071   2.433  10.663  0.3555  0.1091 -0.5155
 3404TIP3    H131627   4.149   2.405  10.710  2.5075  1.1365 -3.3258
 3404TIP3    H231628   4.104   2.493  10.596 -2.4742 -1.7210 -3.7095
 3405TIP3   OH231629   2.401   2.894   2.872 -0.5214  0.2825  0.2445
 3405TIP3    H131630   2.492   2.893   2.901  0.4034  2.2955 -2.4817
 3405TIP3    H231631   2.380   2.986   2.859 -2.9879 -0.1435  0.8849
 3406TIP3   OH231632   4.707   0.497  13.471  0.3408  0.2581 -0.3904
 3406TIP3    H131633   4.767   0.471  13.541 -0.1517 -0.4079 -0.2174
 3406TIP3    H231634   4.620   0.489  13.510  0.1147  0.8504 -0.7668
 3407TIP3   OH231635   6.018   2.600  12.053 -0.0320  0.1470 -0.0510
 3407TIP3    H131636   6.005   2.515  12.011 -0.8479 -0.9921  2.3799
 3407TIP3    H231637   5.964   2.661  12.003  1.0524 -0.6052 -2.2164
 3408TIP3   OH231638   3.951   1.407  13.681 -0.0994  0.3661  0.2131
 3408TIP3    H131639   3.961   1.453  13.765 -0.0452  0.4478  0.1609
 3408TIP3    H231640   4.025   1.347  13.679  1.0013  1.7069 -0.6395
 3409TIP3   OH231641   2.540   0.795   4.029 -0.2203  0.1181 -0.7577
 3409TIP3    H131642   2.463   0.813   3.974  0.1799  2.7830 -0.5033
 3409TIP3    H231643   2.512   0.819   4.118  0.6684  0.4277 -0.5599
 3410TIP3   OH231644   4.583   6.590  12.733 -0.4003  0.2250 -0.4655
 3410TIP3    H131645   4.581   6.666  12.790  2.1273 -0.6023  0.8325
 3410TIP3    H231646   4.510   6.602  12.673 -0.9659  2.8798  0.7001
 3411TIP3   OH231647   3.743   2.450   5.617  0.0533 -0.0161  0.3266
 3411TIP3    H131648   3.823   2.502   5.630 -0.6946  0.8380  1.5353
 3411TIP3    H231649   3.715   2.426   5.705 -0.4729 -1.1831 -0.1477
 3412TIP3   OH231650   3.802   2.556  16.655  0.1659 -0.1607  0.3089
 3412TIP3    H131651   3.802   2.478  16.599 -0.2333  0.8015 -1.0499
 3412TIP3    H231652   3.715   2.595  16.641  0.8133  1.2041  0.0183
 3413TIP3   OH231653   2.422   3.975   4.484 -0.6044  0.3093  0.0772
 3413TIP3    H131654   2.478   3.903   4.514 -0.1667 -0.3559 -2.2167
 3413TIP3    H231655   2.478   4.052   4.486 -0.2349  0.0493 -0.1402
 3414TIP3   OH231656   3.694   3.978   0.262 -0.4520 -0.8634 -0.6066
 3414TIP3    H131657   3.788   3.976   0.282 -0.5565  0.9443  0.2030
 3414TIP3    H231658   3.668   3.887   0.262  1.2912 -1.3876 -0.7146
 3415TIP3   OH231659   4.744   2.466  15.851 -0.1783 -0.4995  0.4384
 3415TIP3    H131660   4.718   2.465  15.759  0.5994 -1.0015  0.2223
 3415TIP3    H231661   4.689   2.400  15.892 -1.6134  0.7912  0.6445
 3416TIP3   OH231662   1.244   2.929   3.954  0.4085  0.2203  0.4969
 3416TIP3    H131663   1.329   2.905   3.991  0.2483  0.3054  0.9245
 3416TIP3    H231664   1.240   2.882   3.870  0.7951  0.0680  0.5629
 3417TIP3   OH231665   3.216   0.788   3.490 -0.0698 -0.5100 -0.3150
 3417TIP3    H131666   3.148   0.853   3.508  0.9535  0.7596 -0.9439
 3417TIP3    H231667   3.207   0.724   3.561 -0.9517  0.4241  0.4353
 3418TIP3   OH231668   3.693   5.010   5.202 -0.1474 -0.0481  0.0405
 3418TIP3    H131669   3.754   4.944   5.168  1.3025  1.3059 -0.0886
 3418TIP3    H231670   3.734   5.040   5.283 -1.1297  0.2039  0.4488
 3419TIP3   OH231671   4.732   0.102  11.973  0.2048  0.0336  0.4095
 3419TIP3    H131672   4.811   0.074  11.927  0.3993 -0.8417  1.2454
 3419TIP3    H231673   4.725   0.195  11.956  2.1240  0.3767  1.3618
 3420TIP3   OH231674   2.754   6.428   6.635  0.0716 -0.2186  0.2596
 3420TIP3    H131675   2.740   6.336   6.615 -0.4253 -0.0375 -0.2223
 3420TIP3    H231676   2.840   6.449   6.597 -0.1548 -0.2853 -0.2816
 3421TIP3   OH231677   1.387   1.097   5.841 -0.0461  0.9216 -0.4196
 3421TIP3    H131678   1.401   1.080   5.934 -0.2639  1.1466 -0.3460
 3421TIP3    H231679   1.311   1.043   5.818  0.8523 -0.2171 -0.7947
 3422TIP3   OH231680   2.638   0.760  13.010  0.7839 -0.6272 -0.3085
 3422TIP3    H131681   2.566   0.707  13.045  1.2962 -0.6948  0.6751
 3422TIP3    H231682   2.710   0.698  13.000  1.1800 -0.2543  0.2105
 3423TIP3   OH231683   2.153   1.503  13.512 -0.0135  0.6392 -0.1264
 3423TIP3    H131684   2.187   1.469  13.595 -2.3335  2.1679  1.5141
 3423TIP3    H231685   2.121   1.591  13.534 -0.9223  0.9553 -2.5938
 3424TIP3   OH231686   3.790   4.175  11.602 -0.4570 -0.0671 -0.4575
 3424TIP3    H131687   3.876   4.142  11.625 -0.3238  0.2978 -0.4239
 3424TIP3    H231688   3.740   4.172  11.683 -0.0346  1.0762 -0.1443
 3425TIP3   OH231689   2.777   5.628   5.181 -0.3349  0.2604 -0.0114
 3425TIP3    H131690   2.812   5.580   5.256  1.5126 -1.5057 -1.9291
 3425TIP3    H231691   2.763   5.717   5.214  1.2771 -0.2604  2.1804
 3426TIP3   OH231692   3.525   5.643  13.335  0.1391  0.1573  0.3767
 3426TIP3    H131693   3.611   5.602  13.346  0.2334  0.2191 -0.1143
 3426TIP3    H231694   3.537   5.704  13.262  0.0800  1.2472  1.2641
 3427TIP3   OH231695   2.886   3.549  14.262 -0.4827 -0.7847  0.0055
 3427TIP3    H131696   2.815   3.485  14.265 -0.8851 -0.3720 -0.5442
 3427TIP3    H231697   2.891   3.584  14.350 -1.1469 -0.6214 -0.0192
 3428TIP3   OH231698   4.987   6.272   4.029  0.0111  0.2329  0.0729
 3428TIP3    H131699   5.025   6.185   4.041 -0.8890 -0.4190 -1.6064
 3428TIP3    H231700   5.046   6.316   3.967 -0.0719  0.4669  0.1568
 3429TIP3   OH231701   1.177   0.440  15.563  0.4399 -0.0385  0.6193
 3429TIP3    H131702   1.130   0.425  15.645  0.5847 -1.2009  0.4985
 3429TIP3    H231703   1.190   0.352  15.526  0.4565  0.4686 -0.6040
 3430TIP3   OH231704   6.433   2.003  13.293  0.2058  0.1314  0.9405
 3430TIP3    H131705   6.500   1.939  13.267 -0.9373 -0.5398 -0.4638
 3430TIP3    H231706   6.478   2.062  13.353  2.3747  0.3455 -0.8087
 3431TIP3   OH231707   4.721   0.126   0.076  0.0316  0.4900  0.7911
 3431TIP3    H131708   4.731   0.050   0.134  2.6370 -0.2894 -0.5887
 3431TIP3    H231709   4.791   0.185   0.102 -0.3001  1.2170  0.0420
 3432TIP3   OH231710   3.698   1.356   4.487 -0.4932  0.3704 -0.0900
 3432TIP3    H131711   3.692   1.262   4.504 -0.7061  0.1234 -1.4563
 3432TIP3    H231712   3.791   1.373   4.474 -0.4773  0.2982 -0.0645
 3433TIP3   OH231713   2.361   2.695  14.269  0.0167 -0.3018  0.3630
 3433TIP3    H131714   2.368   2.644  14.350 -0.0068 -2.0293 -0.6882
 3433TIP3    H231715   2.401   2.779  14.290 -1.0899 -0.2600  2.5333
 3434TIP3   OH231716   2.168   1.192   2.058 -0.9353 -0.0657 -0.1618
 3434TIP3    H131717   2.207   1.254   1.997  0.2740 -1.1056 -0.4774
 3434TIP3    H231718   2.146   1.116   2.004 -0.2613 -0.8237  0.6200
 3435TIP3   OH231719   4.277   4.045   6.621 -0.4999 -0.0623 -0.3764
 3435TIP3    H131720   4.188   4.013   6.638 -1.3712  0.5866 -3.4730
 3435TIP3    H231721   4.334   3.981   6.664 -2.4145  1.8811  5.6276
 3436TIP3   OH231722   5.848   0.139   4.370  0.1273  0.1507  0.0057
 3436TIP3    H131723   5.772   0.176   4.414 -1.3483 -1.9759 -0.6692
 3436TIP3    H231724   5.845   0.175   4.282 -0.1699 -0.0291 -0.0580
 3437TIP3   OH231725   5.633   2.599  11.949 -0.0453 -0.6207 -0.1907
 3437TIP3    H131726   5.632   2.681  11.900  2.5859  0.2756  1.1096
 3437TIP3    H231727   5.541   2.581  11.969 -0.8307  0.8714 -2.3230
 3438TIP3   OH231728   1.323   4.477   5.447  0.5032  0.0715  0.0142
 3438TIP3    H131729   1.295   4.523   5.367  1.4335  0.9245  0.1701
 3438TIP3    H231730   1.418   4.488   5.449  0.4048  0.7347  1.6450
 3439TIP3   OH231731   3.665   4.512  12.527 -0.0941  0.3819 -0.4987
 3439TIP3    H131732   3.687   4.596  12.486  0.9643  0.0549 -0.6017
 3439TIP3    H231733   3.584   4.485  12.484 -0.1085  1.0459 -0.9011
 3440TIP3   OH231734   1.736   6.646   3.712 -0.3635 -0.2356  0.0007
 3440TIP3    H131735   1.829   6.628   3.698 -0.5768 -0.5444 -1.0900
 3440TIP3    H231736   1.692   6.566   3.683 -0.9373 -0.3117  1.0608
 3441TIP3   OH231737   0.896   6.455  16.459 -0.9644  0.2616 -0.2546
 3441TIP3    H131738   0.938   6.508  16.526 -0.1184  0.1155 -0.6598
 3441TIP3    H231739   0.847   6.389  16.507 -0.1044 -0.0401  0.2278
 3442TIP3   OH231740   1.105   6.269  16.684  0.0708 -0.6172  0.4595
 3442TIP3    H131741   1.101   6.363  16.668  1.1831 -0.3147  1.8450
 3442TIP3    H231742   1.051   6.230  16.615  0.0429  0.9945 -0.4451
 3443TIP3   OH231743   3.037   1.436  15.156 -0.2200  0.4879 -0.6614
 3443TIP3    H131744   3.089   1.374  15.105  2.0296  0.8519  1.1332
 3443TIP3    H231745   3.059   1.522  15.120  0.0144  0.6017 -0.2481
 3444TIP3   OH231746   1.253   5.094  16.908 -0.1159  0.0570  0.1023
 3444TIP3    H131747   1.326   5.089  16.970  1.2960 -1.2972 -1.6209
 3444TIP3    H231748   1.177   5.116  16.962  1.3244  0.2328  2.1129
 3445TIP3   OH231749   0.719   2.167   6.254  0.6278 -0.2488 -0.0241
 3445TIP3    H131750   0.792   2.219   6.286  1.0359 -1.9550  1.9135
 3445TIP3    H231751   0.676   2.134   6.333 -1.1118 -0.8070 -1.1668
 3446TIP3   OH231752   4.471   5.179   3.046  0.0613  0.1150 -0.0231
 3446TIP3    H131753   4.424   5.178   2.962 -1.0904 -1.2549  0.6171
 3446TIP3    H231754   4.547   5.123   3.032  0.3301  0.5751 -0.4077
 3447TIP3   OH231755   3.747   1.450   5.072  0.3657 -0.1357  0.2251
 3447TIP3    H131756   3.696   1.521   5.033  0.6042  1.2706  2.3841
 3447TIP3    H231757   3.716   1.445   5.163  0.4117 -2.7572  0.1560
 3448TIP3   OH231758   5.348   2.767  12.943 -0.1915 -0.2390 -0.0531
 3448TIP3    H131759   5.443   2.760  12.953 -0.1464  0.9441  0.4227
 3448TIP3    H231760   5.336   2.834  12.876 -0.6868 -0.7977 -0.5348
 3449TIP3   OH231761   5.998   5.896  13.188  0.0959  0.2874  0.1300
 3449TIP3    H131762   6.090   5.872  13.197 -0.0764 -0.8974 -1.0624
 3449TIP3    H231763   5.997   5.959  13.115 -0.4047 -2.2637 -2.1609
 3450TIP3   OH231764   1.449   1.996  12.157  0.5342 -0.0814 -0.1718
 3450TIP3    H131765   1.431   1.903  12.169  2.6615 -0.6932 -1.3468
 3450TIP3    H231766   1.438   2.035  12.243  0.3327 -1.5543  0.4768
 3451TIP3   OH231767   2.659   4.324  11.579  0.3946 -0.4586 -0.1407
 3451TIP3    H131768   2.744   4.288  11.554 -0.2000 -1.6254 -0.5349
 3451TIP3    H231769   2.650   4.302  11.672  0.4349 -0.5122 -0.1496
 3452TIP3   OH231770   2.773   3.019  13.163  0.8578  0.5447  0.0019
 3452TIP3    H131771   2.705   2.977  13.216  0.4361  0.6292 -0.4680
 3452TIP3    H231772   2.847   3.030  13.223  0.3937  0.6170  0.5681
 3453TIP3   OH231773   0.795   2.882   0.627 -0.2382 -0.1282 -0.0703
 3453TIP3    H131774   0.743   2.815   0.672  1.6184 -1.3227  0.3336
 3453TIP3    H231775   0.883   2.872   0.663  0.5576  1.0450 -1.6569
 3454TIP3   OH231776   2.419   5.176  12.600  0.2686 -0.4470  0.3251
 3454TIP3    H131777   2.396   5.265  12.628 -0.2405 -1.1411  2.1213
 3454TIP3    H231778   2.337   5.138  12.570  0.4105 -0.4777 -0.0333
 3455TIP3   OH231779   2.012   1.196  15.105 -0.1309 -0.8578  0.1803
 3455TIP3    H131780   2.059   1.267  15.062 -0.0696 -0.5115  0.8175
 3455TIP3    H231781   1.963   1.154  15.034 -1.8670  1.1451  0.1299
 3456TIP3   OH231782   4.033   6.047   2.701  0.0717  0.1938 -0.2680
 3456TIP3    H131783   4.087   6.122   2.727  0.5226 -0.5111  0.9011
 3456TIP3    H231784   3.943   6.077   2.712  0.2515  0.2846  1.0965
 3457TIP3   OH231785   3.085   1.251  16.802  0.5219  0.5997  0.5929
 3457TIP3    H131786   3.063   1.333  16.846 -1.6419  1.3846 -1.8572
 3457TIP3    H231787   3.113   1.277  16.715 -0.8539 -1.2873 -0.4453
 3458TIP3   OH231788   4.069   5.122   3.189  0.2055  0.4412 -0.0033
 3458TIP3    H131789   4.158   5.088   3.182  0.2161  0.5544 -0.4067
 3458TIP3    H231790   4.063   5.155   3.279  0.2848 -0.3748  0.3053
 3459TIP3   OH231791   0.734   1.511   3.807 -0.0464  0.7952 -0.0786
 3459TIP3    H131792   0.815   1.467   3.831 -0.9755 -2.2482 -2.2124
 3459TIP3    H231793   0.762   1.590   3.761  1.6653  0.9391  1.1571
 3460TIP3   OH231794   5.914   3.995  15.702 -0.1918  0.4171 -0.4500
 3460TIP3    H131795   5.851   4.062  15.731 -0.9444  0.3130 -1.8114
 3460TIP3    H231796   5.895   3.919  15.758 -0.1460  0.9309  0.2786
 3461TIP3   OH231797   4.234   0.001  14.911 -0.5285  0.3687  0.0283
 3461TIP3    H131798   4.154  -0.046  14.886  0.0899 -0.8854  0.3577
 3461TIP3    H231799   4.271   0.030  14.827 -0.4244 -0.5461 -0.2426
 3462TIP3   OH231800   3.187   6.470  15.223 -0.0023  0.1226  0.2100
 3462TIP3    H131801   3.279   6.463  15.197  0.0988 -0.8935  0.7958
 3462TIP3    H231802   3.160   6.557  15.195  1.1790  0.4718  0.1447
 3463TIP3   OH231803   1.045   3.683  15.523 -0.3505 -0.7090  0.4031
 3463TIP3    H131804   1.130   3.647  15.550 -1.6023 -2.3586  2.2413
 3463TIP3    H231805   1.065   3.772  15.493  2.2684 -1.6205 -0.7430
 3464TIP3   OH231806   0.841   0.899  13.763  0.7420  0.4541  0.5496
 3464TIP3    H131807   0.863   0.819  13.811 -0.8324 -0.7412 -0.6641
 3464TIP3    H231808   0.756   0.925  13.797 -0.2239 -0.2037 -1.2871
 3465TIP3   OH231809   1.065   3.252   3.661 -0.6078  0.1487  0.2365
 3465TIP3    H131810   1.158   3.230   3.651 -0.0941  1.3337  2.0810
 3465TIP3    H231811   1.052   3.259   3.756 -1.5885  3.8680 -0.0886
 3466TIP3   OH231812   0.946   5.384  12.057  0.4952 -0.4268  0.0707
 3466TIP3    H131813   1.023   5.411  12.107  0.7596  1.2964 -1.2039
 3466TIP3    H231814   0.980   5.365  11.969 -0.3894 -0.5433 -0.2540
 3467TIP3   OH231815   2.170   4.098  15.965 -0.1682 -0.5119 -0.6488
 3467TIP3    H131816   2.222   4.107  15.885 -2.6423  1.2880 -2.1265
 3467TIP3    H231817   2.121   4.017  15.953 -0.8637 -0.0169 -1.1524
 3468TIP3   OH231818   1.764   5.959   3.671  0.1997  0.3316  0.1604
 3468TIP3    H131819   1.796   6.032   3.723 -0.0404 -0.5083  1.5056
 3468TIP3    H231820   1.822   5.886   3.694  1.2856  0.4139 -2.1678
 3469TIP3   OH231821   1.600   6.702   6.446  0.4072 -0.1357  0.3833
 3469TIP3    H131822   1.599   6.666   6.535  0.5776  1.0031  0.8560
 3469TIP3    H231823   1.526   6.763   6.445  0.2935 -0.2856 -0.3198
 3470TIP3   OH231824   1.488   3.257  17.184  0.1934 -0.1212  0.3281
 3470TIP3    H131825   1.415   3.252  17.246  0.6924 -1.5314  0.8236
 3470TIP3    H231826   1.495   3.350  17.163 -1.6050  0.0645  0.4436
 3471TIP3   OH231827   0.857   1.597  11.982  0.0909 -0.2789 -0.4277
 3471TIP3    H131828   0.929   1.620  11.923  0.9788 -0.2822  0.6260
 3471TIP3    H231829   0.787   1.566  11.924  0.6712  0.4070 -1.5147
 3472TIP3   OH231830   0.816   0.313  10.696 -0.1583 -0.2847 -0.1470
 3472TIP3    H131831   0.721   0.304  10.685 -0.1311 -0.3476 -0.3377
 3472TIP3    H231832   0.850   0.225  10.680  0.1869  0.2683 -2.8231
 3473TIP3   OH231833   5.185   6.482   0.787 -0.6838 -0.5023 -0.2160
 3473TIP3    H131834   5.196   6.512   0.878  1.4731 -0.7723 -0.3706
 3473TIP3    H231835   5.230   6.549   0.735 -2.1923 -0.1765 -1.1421
 3474TIP3   OH231836   2.901   3.285  13.766 -0.2621 -0.4020 -0.3666
 3474TIP3    H131837   2.810   3.281  13.795 -0.5213 -0.0580 -1.1112
 3474TIP3    H231838   2.947   3.334  13.835 -0.8657  0.4191 -0.5399
 3475TIP3   OH231839   5.380   5.066  14.185 -0.2832 -0.1702  0.2247
 3475TIP3    H131840   5.320   5.014  14.131 -0.7399 -0.8082  1.3301
 3475TIP3    H231841   5.324   5.110  14.248  0.2967  0.1498  0.5201
 3476TIP3   OH231842   0.893   0.787  11.730  0.3882  0.4389 -0.2032
 3476TIP3    H131843   0.906   0.840  11.808  0.4288  1.3444 -0.8126
 3476TIP3    H231844   0.936   0.837  11.660  0.3741 -0.3676 -0.7927
 3477TIP3   OH231845   2.285   3.040   2.498 -0.7276  0.3139 -0.9746
 3477TIP3    H131846   2.298   2.986   2.576 -2.0741  1.4418  0.0412
 3477TIP3    H231847   2.343   3.001   2.432  1.6412  0.3306  1.0410
 3478TIP3   OH231848   0.882   6.548   1.463  0.2685  0.0508 -0.2627
 3478TIP3    H131849   0.954   6.610   1.472  1.1130 -0.8470 -0.6867
 3478TIP3    H231850   0.917   6.478   1.408 -0.6363 -0.8384  0.2630
 3479TIP3   OH231851   6.713   5.652  11.617  0.0851 -0.2362 -0.2537
 3479TIP3    H131852   6.785   5.709  11.591  0.3166 -0.6147 -0.4446
 3479TIP3    H231853   6.642   5.674  11.557  0.3121 -0.4436 -0.6016
 3480TIP3   OH231854   6.360   1.712   2.120  0.4867 -0.2885  0.4357
 3480TIP3    H131855   6.298   1.779   2.094 -0.4642 -0.3539  2.4446
 3480TIP3    H231856   6.446   1.751   2.103 -0.0642  0.0146 -1.8156
 3481TIP3   OH231857   2.146   0.645   2.031 -0.1847 -0.2759 -0.0737
 3481TIP3    H131858   2.220   0.692   1.992  1.5852 -0.4203  2.9705
 3481TIP3    H231859   2.072   0.705   2.022  0.4036  0.1399 -2.5949
 3482TIP3   OH231860   1.930   5.469  11.701 -0.1375  0.0506  0.8217
 3482TIP3    H131861   1.874   5.504  11.632 -0.3774  0.2359  1.1074
 3482TIP3    H231862   1.922   5.532  11.773 -1.6365 -1.2816  1.8524
 3483TIP3   OH231863   6.658   4.510  15.151 -0.5315  0.8845  0.2297
 3483TIP3    H131864   6.682   4.577  15.215 -0.0922 -1.2803  2.3818
 3483TIP3    H231865   6.685   4.548  15.067  0.5969  3.0007  1.4825
 3484TIP3   OH231866   3.056   2.509  11.428  0.4555 -0.3835  0.2325
 3484TIP3    H131867   3.099   2.590  11.402  0.7389 -0.3403  0.8272
 3484TIP3    H231868   3.017   2.528  11.513  1.1240 -1.0832  0.7021
 3485TIP3   OH231869   3.745   0.542  14.439 -0.1638  0.8472  0.5257
 3485TIP3    H131870   3.822   0.496  14.406 -1.6447 -0.7225 -0.8040
 3485TIP3    H231871   3.712   0.486  14.509 -1.9771 -0.1759 -1.1056
 3486TIP3   OH231872   5.398   0.717   5.761 -0.1412  0.3113  0.0613
 3486TIP3    H131873   5.352   0.684   5.838  2.0663  1.4726  1.9568
 3486TIP3    H231874   5.469   0.655   5.747  1.2163  1.6467  0.8043
 3487TIP3   OH231875   5.329   6.755   0.325 -0.1887  0.2126 -0.5779
 3487TIP3    H131876   5.418   6.790   0.332 -0.5016  1.0326 -0.5890
 3487TIP3    H231877   5.274   6.833   0.323 -0.9515 -0.3107  0.0515
 3488TIP3   OH231878   3.081   4.661  16.428  0.0044 -0.1179  0.2678
 3488TIP3    H131879   3.033   4.738  16.397  0.2121 -0.1412 -0.1127
 3488TIP3    H231880   3.161   4.696  16.466  0.6744 -0.2305 -1.0137
 3489TIP3   OH231881   5.945   3.765   0.321  0.0151  0.1717  0.6832
 3489TIP3    H131882   5.872   3.823   0.301 -1.2005 -0.9756  1.6955
 3489TIP3    H231883   5.905   3.679   0.333  1.5974 -0.5782  0.7689
 3490TIP3   OH231884   5.095   4.796   4.099  0.1612  0.1053 -0.1199
 3490TIP3    H131885   5.058   4.826   4.182 -0.6442  0.6547 -0.6618
 3490TIP3    H231886   5.045   4.843   4.032  0.6186 -0.5258 -0.9242
 3491TIP3   OH231887   4.649   0.657  12.545  0.4391 -0.1838 -0.5700
 3491TIP3    H131888   4.708   0.687  12.476 -0.1195 -0.1787 -1.0493
 3491TIP3    H231889   4.590   0.595  12.502  0.5651 -0.7517  0.0673
 3492TIP3   OH231890   3.661   0.057  16.252 -0.1676  0.7455 -0.8320
 3492TIP3    H131891   3.628  -0.030  16.275 -0.0884  1.3075  1.4483
 3492TIP3    H231892   3.590   0.097  16.202 -2.8356  1.6970  3.4473
 3493TIP3   OH231893   1.000   1.197  13.912  0.1542 -0.5400  0.3749
 3493TIP3    H131894   0.905   1.192  13.917  0.1236 -0.6795 -0.2215
 3493TIP3    H231895   1.025   1.266  13.974 -0.5028  0.9691 -1.0107
 3494TIP3   OH231896   5.405   6.232  12.195 -0.0850 -0.1248  0.1687
 3494TIP3    H131897   5.468   6.284  12.144 -1.1439 -0.6753 -1.7817
 3494TIP3    H231898   5.375   6.291  12.264  2.2811  0.2605  0.9093
 3495TIP3   OH231899   1.171   1.877  16.044  0.4841 -0.2095 -0.3975
 3495TIP3    H131900   1.238   1.903  16.106 -2.6036  1.9171  2.2047
 3495TIP3    H231901   1.145   1.789  16.072  0.1155  0.1693  0.4736
 3496TIP3   OH231902   4.125   0.739  11.288  0.6745 -0.1609 -0.2282
 3496TIP3    H131903   4.154   0.660  11.241 -0.1099 -0.1674 -0.7203
 3496TIP3    H231904   4.108   0.803  11.218 -2.5183 -0.8242 -0.1627
 3497TIP3   OH231905   2.209   2.647  16.905 -0.5868  0.3064  0.4945
 3497TIP3    H131906   2.247   2.560  16.898  0.7267  0.9234 -0.2187
 3497TIP3    H231907   2.284   2.705  16.923 -1.4214  1.3010  0.8460
 3498TIP3   OH231908   5.556   0.596   0.930  0.2118  0.0585  0.2307
 3498TIP3    H131909   5.571   0.679   0.884 -0.6625 -0.0137 -0.1946
 3498TIP3    H231910   5.607   0.532   0.881  2.0961  0.5870  1.4341
 3499TIP3   OH231911   3.315   6.054  14.263  0.4166 -0.1785  0.3242
 3499TIP3    H131912   3.365   6.134  14.249  0.8360 -0.0900  2.1298
 3499TIP3    H231913   3.355   5.990  14.204  0.3975  0.8037 -0.7725
 3500TIP3   OH231914   1.353   1.150  12.553  0.5072  0.3683 -0.5633
 3500TIP3    H131915   1.446   1.155  12.575  0.1678  0.9065  0.7797
 3500TIP3    H231916   1.315   1.230  12.588 -0.4455  0.2330 -1.2557
 3501TIP3   OH231917   3.565   5.625   1.319  0.0764 -0.4490  0.3883
 3501TIP3    H131918   3.623   5.699   1.302 -0.8271  0.1721 -0.0579
 3501TIP3    H231919   3.603   5.553   1.269  0.2503  0.0556 -0.2116
 3502TIP3   OH231920   0.161   1.090  12.633  0.0922  0.0993  0.3034
 3502TIP3    H131921   0.235   1.052  12.586  0.1427  0.2723  0.2453
 3502TIP3    H231922   0.192   1.175  12.664 -0.3950  0.6081 -0.5697
 3503TIP3   OH231923   2.034   4.703   0.631 -0.2822 -0.7553  0.1397
 3503TIP3    H131924   2.052   4.679   0.722 -1.4440 -0.4623  0.4441
 3503TIP3    H231925   1.960   4.763   0.635 -0.4399 -0.8528 -1.0160
 3504TIP3   OH231926   5.180   1.373  11.846 -0.0222  0.0053 -0.5470
 3504TIP3    H131927   5.143   1.455  11.877 -0.2258 -0.9337  1.7852
 3504TIP3    H231928   5.200   1.389  11.753 -0.2158  2.6002 -0.1767
 3505TIP3   OH231929   2.260   0.455  16.888 -0.2752 -0.0786 -0.1809
 3505TIP3    H131930   2.258   0.423  16.978 -1.3100 -0.9479 -0.4965
 3505TIP3    H231931   2.168   0.461  16.863  0.0197 -1.4732 -1.7285
 3506TIP3   OH231932   1.705   2.574   5.392  0.4963 -0.4749  0.3774
 3506TIP3    H131933   1.630   2.559   5.450 -1.2046  0.9261 -1.3787
 3506TIP3    H231934   1.748   2.652   5.429 -2.1571  2.0828 -1.6631
 3507TIP3   OH231935   6.785   0.808  10.736  0.3392 -0.3935 -0.4512
 3507TIP3    H131936   6.694   0.800  10.706  1.0706 -2.6078 -2.1703
 3507TIP3    H231937   6.815   0.717  10.744  2.2437  0.3221  0.6328
 3508TIP3   OH231938   3.606   6.717   5.158 -0.2172 -0.1707  0.1588
 3508TIP3    H131939   3.687   6.668   5.174 -0.8809 -1.0682  0.8483
 3508TIP3    H231940   3.634   6.808   5.151  1.0529 -0.6502 -1.2623
 3509TIP3   OH231941   3.975   5.604  14.531 -0.2144  0.4706  0.1199
 3509TIP3    H131942   4.064   5.570  14.515  0.3159  1.2053  1.4051
 3509TIP3    H231943   3.922   5.566  14.461  0.8759 -0.9629  0.0409
 3510TIP3   OH231944   2.997   0.907   2.666  0.1031 -0.1772 -0.0076
 3510TIP3    H131945   3.008   0.989   2.619 -2.9372 -0.7860 -1.9118
 3510TIP3    H231946   3.012   0.839   2.600 -2.4395 -1.0554  0.2496
 3511TIP3   OH231947   0.083   2.251   3.659  0.2048  0.4140 -0.1919
 3511TIP3    H131948  -0.003   2.214   3.640  0.0660 -0.0699  1.3495
 3511TIP3    H231949   0.081   2.338   3.618 -0.9813  0.3560 -0.2709
 3512TIP3   OH231950   5.974   5.020   2.885 -0.1519  0.3449  0.2476
 3512TIP3    H131951   5.886   4.989   2.906  0.5343  0.9409  4.4478
 3512TIP3    H231952   5.971   5.114   2.903  1.3244  0.3629  0.4332
 3513TIP3   OH231953   1.336   5.211   0.151  0.8119  0.2368 -0.4232
 3513TIP3    H131954   1.339   5.298   0.192 -2.0067  0.8566 -1.4801
 3513TIP3    H231955   1.257   5.170   0.186  1.7947 -1.7004 -0.3905
 3514TIP3   OH231956   5.145   2.483  14.444 -0.2552  0.0730  0.0941
 3514TIP3    H131957   5.222   2.539  14.445 -1.7586  2.1716  0.2959
 3514TIP3    H231958   5.093   2.515  14.371 -1.2691 -0.9017  0.3745
 3515TIP3   OH231959   0.256   6.290   4.828 -0.4007  0.4784 -0.2006
 3515TIP3    H131960   0.173   6.264   4.788 -0.7592  0.6292  0.4480
 3515TIP3    H231961   0.241   6.284   4.922  1.5024 -3.3698  0.0016
 3516TIP3   OH231962   0.353   4.251  14.605 -0.0098 -0.2992 -0.2252
 3516TIP3    H131963   0.284   4.263  14.539  1.2066  1.2926 -1.2642
 3516TIP3    H231964   0.329   4.312  14.675 -0.2014 -0.4764 -0.1367
 3517TIP3   OH231965   3.389   2.236   1.550  0.0994  0.6100 -0.0297
 3517TIP3    H131966   3.437   2.170   1.500 -2.1543 -0.3922 -0.9395
 3517TIP3    H231967   3.414   2.219   1.641  0.5064 -0.7079 -0.3660
 3518TIP3   OH231968   0.795   4.596   2.355  0.2194  0.0846  0.2103
 3518TIP3    H131969   0.705   4.611   2.384  0.6923  2.6469  0.4371
 3518TIP3    H231970   0.825   4.522   2.407 -1.1498  0.4107  1.4852
 3519TIP3   OH231971   1.042   3.142   4.416  0.3663 -0.1437 -0.2156
 3519TIP3    H131972   0.949   3.164   4.414  0.2177 -0.5820  1.3425
 3519TIP3    H231973   1.084   3.211   4.364 -0.8976 -0.3923 -1.5922
 3520TIP3   OH231974   2.031   2.693  14.307 -0.6112  0.2213  0.3479
 3520TIP3    H131975   2.114   2.724  14.343  0.4661 -1.8526 -0.2900
 3520TIP3    H231976   2.018   2.607  14.347 -2.7199  0.7307  0.8334
 3521TIP3   OH231977   0.383   0.561  16.634  0.1728  0.3005 -0.1804
 3521TIP3    H131978   0.462   0.613  16.621  1.8653 -1.9784  0.7024
 3521TIP3    H231979   0.362   0.573  16.727 -0.9455  1.4816 -0.5790
 3522TIP3   OH231980   2.820   2.568  14.716 -0.4180 -0.2339  0.2124
 3522TIP3    H131981   2.833   2.555  14.622 -2.4407  0.2773 -0.1617
 3522TIP3    H231982   2.766   2.647  14.722  2.6971  1.8756  1.9819
 3523TIP3   OH231983   3.552   0.174  12.854 -0.5091 -0.8247  0.0465
 3523TIP3    H131984   3.459   0.195  12.843  0.0283  1.8118  0.0591
 3523TIP3    H231985   3.570   0.197  12.946 -0.0746 -2.3746  0.3614
 3524TIP3   OH231986   2.307   4.915   1.388  0.0020 -0.3504  0.5368
 3524TIP3    H131987   2.256   4.834   1.388 -0.4540 -0.0697 -0.4429
 3524TIP3    H231988   2.375   4.901   1.321 -0.0287  0.0448  0.4219
 3525TIP3   OH231989   1.167   6.032  13.356  0.0452  0.0563  0.4581
 3525TIP3    H131990   1.074   6.046  13.336  0.1693  0.2894  0.0369
 3525TIP3    H231991   1.213   6.083  13.290  0.4671  0.3383  0.9677
 3526TIP3   OH231992   6.635   5.160   4.298 -0.2281  0.5517 -0.0857
 3526TIP3    H131993   6.557   5.128   4.253  0.0655  1.2416 -1.0934
 3526TIP3    H231994   6.617   5.143   4.391 -0.9126 -0.7006 -0.4334
 3527TIP3   OH231995   3.264   0.886  16.371  0.4661  0.4787 -0.1054
 3527TIP3    H131996   3.242   0.915  16.283 -1.1508 -1.1526 -0.2616
 3527TIP3    H231997   3.180   0.859  16.409  1.2756  0.3312  1.6222
 3528TIP3   OH231998   6.205   1.539   2.293 -0.0476  0.5246  0.4313
 3528TIP3    H131999   6.155   1.607   2.246 -1.2212 -0.3899  0.3297
 3528TIP3    H232000   6.144   1.507   2.360 -0.2235 -1.7846 -0.7820
 3529TIP3   OH232001   6.371   3.790  13.256 -0.1111 -0.4412 -0.4323
 3529TIP3    H132002   6.284   3.826  13.238  0.0173 -0.5175 -1.1966
 3529TIP3    H232003   6.416   3.860  13.304  0.0126  0.2782 -1.5829
 3530TIP3   OH232004   5.851   4.164   4.283  0.7991  0.0403  0.2098
 3530TIP3    H132005   5.944   4.152   4.265  1.0179  1.7848  0.0670
 3530TIP3    H232006   5.848   4.231   4.352 -0.3779  1.0676 -0.8061
 3531TIP3   OH232007   1.526   6.421  11.812 -0.7157  0.3877 -0.0560
 3531TIP3    H132008   1.554   6.459  11.729  1.1022 -0.8899 -0.0529
 3531TIP3    H232009   1.536   6.491  11.876 -0.4039  0.8288 -0.5864
 3532TIP3   OH232010   1.241   4.065   1.424 -0.1823 -0.2129 -0.0035
 3532TIP3    H132011   1.235   3.997   1.357 -0.2747 -1.9606  1.7226
 3532TIP3    H232012   1.324   4.046   1.469  1.8564  3.2766 -2.0314
 3533TIP3   OH232013   5.805   4.106  13.610 -0.0688  0.2496 -1.1533
 3533TIP3    H132014   5.749   4.080  13.684  1.4972  1.5061  0.5103
 3533TIP3    H232015   5.780   4.046  13.540 -1.0208 -1.5235  0.6409
 3534TIP3   OH232016   3.961   5.163  13.137  0.2494  0.4793 -0.0856
 3534TIP3    H132017   3.880   5.213  13.126  0.2794  0.4598 -0.3997
 3534TIP3    H232018   4.030   5.229  13.136  0.3066  0.4154 -0.7247
 3535TIP3   OH232019   0.986   1.402  11.380 -0.0925 -0.8003 -0.0991
 3535TIP3    H132020   1.046   1.474  11.362  1.3333 -1.6124  1.2547
 3535TIP3    H232021   0.936   1.431  11.457 -1.8126  0.0709 -1.4994
 3536TIP3   OH232022   6.781   4.266   2.612 -0.2525 -0.6481  0.0767
 3536TIP3    H132023   6.694   4.299   2.588 -0.4630 -1.1660  0.1076
 3536TIP3    H232024   6.766   4.219   2.694  0.1531 -0.3129  0.3446
 3537TIP3   OH232025   1.732   3.787  12.918 -0.2608 -0.3436  0.1131
 3537TIP3    H132026   1.823   3.813  12.903 -0.3596 -1.1731 -2.1622
 3537TIP3    H232027   1.682   3.868  12.908  0.0345 -0.2529 -0.6920
 3538TIP3   OH232028   6.656   5.651  14.419 -0.1633 -0.1732 -0.3123
 3538TIP3    H132029   6.574   5.612  14.452 -1.0775  0.5091 -1.7187
 3538TIP3    H232030   6.631   5.691  14.336  1.2999  1.3269 -0.0427
 3539TIP3   OH232031   6.308   0.243  14.329 -0.0307 -0.4325  0.1356
 3539TIP3    H132032   6.275   0.170  14.277 -1.2324 -0.5362  1.0141
 3539TIP3    H232033   6.340   0.203  14.410  0.4485 -0.1206  0.0987
 3540TIP3   OH232034   6.077   2.806  13.230 -0.0694  0.1282 -0.5367
 3540TIP3    H132035   6.062   2.758  13.149 -0.5658 -1.1324  0.2943
 3540TIP3    H232036   6.109   2.740  13.291 -0.4593  0.9149  0.5245
 3541TIP3   OH232037   6.321   6.068   5.317  0.1358 -0.0975  0.2165
 3541TIP3    H132038   6.230   6.091   5.299  0.6805 -0.1607 -2.9476
 3541TIP3    H232039   6.318   5.973   5.333 -0.2436 -0.2807 -0.8767
 3542TIP3   OH232040   0.140   0.984  14.845  0.5297  0.4430 -0.1772
 3542TIP3    H132041   0.235   0.979  14.857  0.5306  1.0315  0.0956
 3542TIP3    H232042   0.110   1.042  14.915  0.1607  1.4344 -1.1398
 3543TIP3   OH232043   1.960   5.645   6.561  0.0871  0.5544 -0.0230
 3543TIP3    H132044   1.917   5.586   6.498 -0.4056  0.2812  0.5692
 3543TIP3    H232045   2.015   5.701   6.506  0.0938 -0.0548 -0.6512
 3544TIP3   OH232046   2.942   3.780   2.752 -0.2983 -0.3643 -0.6033
 3544TIP3    H132047   2.868   3.726   2.725 -0.9415  0.7221 -1.0388
 3544TIP3    H232048   2.953   3.762   2.845 -2.0633  0.5802 -0.1948
 3545TIP3   OH232049   4.423   3.165  16.138  0.0632  0.1105 -0.0966
 3545TIP3    H132050   4.463   3.214  16.066  0.8747 -0.7178 -0.2234
 3545TIP3    H232051   4.332   3.152  16.110 -0.1082  1.3349 -0.1580
 3546TIP3   OH232052   6.631   1.328  12.973  0.3069  0.3440 -0.0316
 3546TIP3    H132053   6.544   1.365  12.964  0.7780  1.5848  0.3585
 3546TIP3    H232054   6.665   1.325  12.883 -1.0258 -2.4315 -0.4859
 3547TIP3   OH232055   2.125   6.384  11.119 -0.1874 -0.5042 -0.6923
 3547TIP3    H132056   2.214   6.419  11.121 -0.4292  0.0677  0.6652
 3547TIP3    H232057   2.124   6.317  11.187 -0.5294 -1.1641 -1.3495
 3548TIP3   OH232058   1.785   0.893  16.349  0.3300 -0.3403  0.5492
 3548TIP3    H132059   1.859   0.955  16.351  2.5225 -2.8810  1.4095
 3548TIP3    H232060   1.732   0.917  16.425 -0.5833  2.4528 -0.8951
 3549TIP3   OH232061   2.900   1.803  14.148 -0.4615  0.1945 -0.7316
 3549TIP3    H132062   2.823   1.822  14.200  0.2131  1.7467 -0.2643
 3549TIP3    H232063   2.907   1.877  14.087  1.0150  0.4171 -0.3240
 3550TIP3   OH232064   1.401   5.466  11.662  0.6307  0.5519  0.0844
 3550TIP3    H132065   1.377   5.529  11.594 -0.9764  0.3337  0.4327
 3550TIP3    H232066   1.346   5.489  11.737 -0.0659 -1.3189  0.1765
 3551TIP3   OH232067   5.279   2.401   3.128  0.1962 -0.7175  0.1566
 3551TIP3    H132068   5.285   2.323   3.183  1.0352 -0.1431  0.8881
 3551TIP3    H232069   5.187   2.427   3.133  0.4721 -0.0318  2.1936
 3552TIP3   OH232070   6.241   5.543  16.706 -0.2101 -0.6651  0.0404
 3552TIP3    H132071   6.277   5.628  16.732 -0.7326 -0.0899 -1.1051
 3552TIP3    H232072   6.262   5.535  16.613  2.0719 -2.9340  0.7035
 3553TIP3   OH232073   0.473   5.178   1.115 -0.0772 -0.1323 -0.1079
 3553TIP3    H132074   0.399   5.239   1.116 -0.0305 -0.0465 -1.1049
 3553TIP3    H232075   0.549   5.233   1.137 -0.2503 -0.1494  0.5539
 3554TIP3   OH232076   0.583   5.778   1.766  0.5673 -0.0615 -0.1380
 3554TIP3    H132077   0.557   5.718   1.695  0.8192 -0.3542  0.0142
 3554TIP3    H232078   0.591   5.721   1.843  1.3112  0.0897 -0.1069
 3555TIP3   OH232079   2.704   4.706  10.753  0.2718  0.0713  0.8449
 3555TIP3    H132080   2.698   4.801  10.748 -0.8607  0.1741  3.1901
 3555TIP3    H232081   2.797   4.687  10.758  0.4402  1.2532  2.7490
 3556TIP3   OH232082   3.698   2.450   1.069  0.1399 -0.1633 -0.2862
 3556TIP3    H132083   3.639   2.441   1.143 -1.2218  0.7144 -1.2352
 3556TIP3    H232084   3.776   2.401   1.094 -1.0320 -1.4510  0.9434
 3557TIP3   OH232085   2.334   0.068   0.601  0.4831  0.2814 -0.0626
 3557TIP3    H132086   2.294   0.148   0.567 -0.2641 -1.2781 -2.9904
 3557TIP3    H232087   2.280  -0.003   0.566  1.1074 -1.5392  2.5135
 3558TIP3   OH232088   3.423   5.677   5.409  0.1582 -0.1818  0.2413
 3558TIP3    H132089   3.383   5.595   5.381  0.4252  0.3916 -1.9146
 3558TIP3    H232090   3.511   5.675   5.372  0.8227  0.2362  1.7828
 3559TIP3   OH232091   3.757   6.116   4.022  0.3362  0.1986 -0.2642
 3559TIP3    H132092   3.676   6.166   4.012 -0.1729 -0.3965  0.8096
 3559TIP3    H232093   3.765   6.101   4.116  1.8660  0.5259 -0.3199
 3560TIP3   OH232094   5.620   4.165  15.559 -0.2351  0.2252 -0.0645
 3560TIP3    H132095   5.672   4.126  15.629  0.0131  1.8316  0.6583
 3560TIP3    H232096   5.554   4.218  15.604  1.1685  2.8777 -1.0367
 3561TIP3   OH232097   5.394   0.809  12.589 -0.4569  0.2428  0.3166
 3561TIP3    H132098   5.328   0.761  12.637 -1.6125  1.0016 -0.4940
 3561TIP3    H232099   5.353   0.830  12.505  0.9114  0.4475 -0.3276
 3562TIP3   OH232100   6.415   5.357  12.948 -0.8204  0.1781 -0.7502
 3562TIP3    H132101   6.345   5.422  12.941 -0.6542  0.3089 -1.2197
 3562TIP3    H232102   6.480   5.385  12.883 -0.2585  0.1540 -0.2023
 3563TIP3   OH232103   0.253   3.001   4.224 -0.7985  0.6063  0.1425
 3563TIP3    H132104   0.242   2.934   4.292  1.0155  0.1855  0.0560
 3563TIP3    H232105   0.292   3.075   4.270  2.3122 -0.3911 -0.7389
 3564TIP3   OH232106   2.314   5.555  15.819 -0.8433 -0.3873  0.1741
 3564TIP3    H132107   2.238   5.592  15.863 -1.0316 -2.2654  1.4645
 3564TIP3    H232108   2.366   5.631  15.792 -2.0546  0.8433  1.2734
 3565TIP3   OH232109   3.199   6.429  16.749 -0.0012  0.0415  0.5953
 3565TIP3    H132110   3.238   6.515  16.761  0.4971  0.0013 -0.7282
 3565TIP3    H232111   3.228   6.400  16.663 -1.4332 -0.7852  0.3705
 3566TIP3   OH232112   4.632   2.255  10.232 -0.0146 -0.5857  0.4780
 3566TIP3    H132113   4.539   2.237  10.241 -0.0056 -0.3105  1.1461
 3566TIP3    H232114   4.638   2.351  10.235  0.2304 -0.5827 -0.1018
 3567TIP3   OH232115   3.902   2.090  15.237  0.1062 -0.9107  0.3074
 3567TIP3    H132116   3.856   2.034  15.174  0.0788 -1.7743  1.0915
 3567TIP3    H232117   3.924   2.168  15.187 -0.5794 -1.2728 -0.5800
 3568TIP3   OH232118   0.719   6.611   5.614  0.7033  0.2770 -0.1881
 3568TIP3    H132119   0.651   6.677   5.608 -0.4396 -0.7155  1.5719
 3568TIP3    H232120   0.792   6.655   5.658  0.6988  0.9086 -0.7955
 3569TIP3   OH232121   3.607   4.259  14.969 -0.0012  0.3088 -0.1942
 3569TIP3    H132122   3.682   4.303  15.009 -0.2012 -0.6005  1.1979
 3569TIP3    H232123   3.550   4.331  14.940 -0.2028  0.9917  1.8285
 3570TIP3   OH232124   1.495   4.438  10.868 -0.2543 -0.0574  0.5655
 3570TIP3    H132125   1.483   4.518  10.816  0.4415 -0.3638 -0.0656
 3570TIP3    H232126   1.422   4.381  10.842  0.2152 -0.2932 -0.2184
 3571TIP3   OH232127   5.486   4.592  13.135 -0.0291  0.6577  0.2255
 3571TIP3    H132128   5.446   4.556  13.215  1.7501  1.3782  1.4692
 3571TIP3    H232129   5.443   4.544  13.064 -0.8833 -0.7630  1.6445
 3572TIP3   OH232130   1.043   4.525  12.128  1.1228  0.2010  0.4641
 3572TIP3    H132131   1.005   4.451  12.080  0.4728  0.7373  0.1555
 3572TIP3    H232132   1.057   4.592  12.062  1.3779  0.4910  0.8125
 3573TIP3   OH232133   3.169   2.545  14.482 -0.0495 -0.1935  0.4045
 3573TIP3    H132134   3.079   2.532  14.453  0.3538 -0.6074 -0.6902
 3573TIP3    H232135   3.219   2.475  14.441  1.1726  1.4221 -0.9545
 3574TIP3   OH232136   5.383   0.343   5.167 -0.0838  0.2437 -0.2703
 3574TIP3    H132137   5.333   0.419   5.197 -0.6448 -0.7312  1.3673
 3574TIP3    H232138   5.451   0.331   5.234  1.6419  0.8478 -1.8624
 3575TIP3   OH232139   5.123   4.835  13.587  0.0745 -0.4024 -0.2149
 3575TIP3    H132140   5.068   4.776  13.534 -0.7991 -0.7785  1.1046
 3575TIP3    H232141   5.088   4.922  13.569 -0.4039 -0.5569 -0.0370
 3576TIP3   OH232142   5.057   3.664  17.017 -0.1442  0.2548 -0.2592
 3576TIP3    H132143   4.962   3.662  17.004 -0.4000  0.5431  1.4307
 3576TIP3    H232144   5.079   3.574  17.040 -0.4204  0.6988  1.8846
 3577TIP3   OH232145   0.980   2.489   2.152  0.6378 -0.4646  0.2235
 3577TIP3    H132146   0.965   2.449   2.066  1.2008 -1.4559  0.5819
 3577TIP3    H232147   0.894   2.485   2.195  0.3580  0.0173 -0.2733
 3578TIP3   OH232148   3.053   2.204  13.179 -0.4610 -0.1610 -0.1552
 3578TIP3    H132149   3.086   2.271  13.119  0.3044  0.4017  0.8833
 3578TIP3    H232150   3.012   2.139  13.122  2.8569 -1.1442 -1.5888
 3579TIP3   OH232151   5.328   0.436   4.903  0.3353  0.1570  0.3518
 3579TIP3    H132152   5.370   0.458   4.986  0.7385 -1.6648  0.6710
 3579TIP3    H232153   5.254   0.379   4.929  0.6557 -0.6804 -0.5389
 3580TIP3   OH232154   2.754   1.887  13.628  0.8271  0.8209  0.4504
 3580TIP3    H132155   2.734   1.931  13.545 -1.0886 -2.5597 -1.0210
 3580TIP3    H232156   2.849   1.884  13.631  0.9644 -0.6838 -2.6782
 3581TIP3   OH232157   2.228   3.906   1.665  0.0354  0.5180 -0.0936
 3581TIP3    H132158   2.277   3.939   1.590 -1.4452  1.0836 -0.8414
 3581TIP3    H232159   2.139   3.939   1.651 -1.0325 -2.1362  0.1632
 3582TIP3   OH232160   0.444   5.897  10.693  0.0008 -0.0721  0.2665
 3582TIP3    H132161   0.455   5.851  10.610 -1.3702  0.1162 -0.0291
 3582TIP3    H232162   0.508   5.857  10.751  1.6894  0.4922 -1.1687
 3583TIP3   OH232163   5.240   5.122   5.224  0.1941  0.4002 -0.4652
 3583TIP3    H132164   5.215   5.134   5.316  0.0975  0.4904 -0.5033
 3583TIP3    H232165   5.157   5.105   5.179  0.2662  0.1498 -0.5022
 3584TIP3   OH232166   0.201   4.756   0.765 -0.3401  0.0100  0.3338
 3584TIP3    H132167   0.129   4.695   0.779  1.3484 -2.0027  0.4531
 3584TIP3    H232168   0.219   4.751   0.671 -0.3450  0.5272  0.3003
 3585TIP3   OH232169   1.916   0.686   5.980 -0.1964 -0.7318 -0.1055
 3585TIP3    H132170   1.928   0.612   5.921 -0.1713 -0.2833 -0.6636
 3585TIP3    H232171   1.856   0.744   5.934  0.6412  0.1078 -0.1430
 3586TIP3   OH232172   5.608   1.851  11.073  0.0118 -0.0747 -0.2571
 3586TIP3    H132173   5.696   1.888  11.070  0.1867 -0.4943 -0.3313
 3586TIP3    H232174   5.599   1.803  10.991 -0.3409  0.0950 -0.3180
 3587TIP3   OH232175   0.072   0.036  16.491 -0.1197 -0.2961 -0.3267
 3587TIP3    H132176   0.071  -0.042  16.547  2.5708 -0.4477 -0.3927
 3587TIP3    H232177   0.110   0.105  16.546 -2.6250  1.0450 -0.2145
 3588TIP3   OH232178   2.385   1.454   2.226  0.1390 -0.2316 -0.1907
 3588TIP3    H132179   2.428   1.430   2.308  0.1918 -0.7170 -0.3636
 3588TIP3    H232180   2.291   1.449   2.246  0.1359  2.3013  0.6306
 3589TIP3   OH232181   6.757   3.173   0.139 -0.0175  0.0698 -0.2102
 3589TIP3    H132182   6.773   3.117   0.063 -0.4983 -0.3809  0.0214
 3589TIP3    H232183   6.813   3.250   0.124  2.3394 -1.4356  0.5684
 3590TIP3   OH232184   0.383   2.494   3.739 -0.2366 -0.1871  0.2856
 3590TIP3    H132185   0.368   2.509   3.645 -0.6042 -0.0985  0.3563
 3590TIP3    H232186   0.386   2.399   3.747 -0.7412 -0.2090  0.2601
 3591TIP3   OH232187   1.802   0.276  16.982 -0.6394  0.4171  0.0732
 3591TIP3    H132188   1.758   0.191  16.987  1.5308 -0.8316 -1.2013
 3591TIP3    H232189   1.840   0.288  17.069 -0.9057  0.0551  0.2414
 3592TIP3   OH232190   4.727   4.038   5.192 -0.3862 -0.5219  0.1288
 3592TIP3    H132191   4.697   4.021   5.103 -0.1907 -0.2744  0.0135
 3592TIP3    H232192   4.648   4.036   5.246 -0.5508 -0.3146 -0.1045
 3593TIP3   OH232193   0.279   5.106   2.599 -0.2228  0.0488 -0.1805
 3593TIP3    H132194   0.267   5.121   2.505  0.7754  0.0519 -0.3123
 3593TIP3    H232195   0.248   5.016   2.613 -2.6341  0.8591 -0.0679
 3594TIP3   OH232196   2.837   1.572   0.052  0.0046  0.1745  0.6162
 3594TIP3    H132197   2.825   1.626  -0.026  1.1942  0.0299  0.3186
 3594TIP3    H232198   2.769   1.601   0.113 -1.8382 -0.6614 -0.9813
 3595TIP3   OH232199   3.810   4.448  11.708  0.2813  0.4579  0.0218
 3595TIP3    H132200   3.822   4.450  11.803 -1.6356  0.7085  0.2764
 3595TIP3    H232201   3.797   4.356  11.687  2.0232  0.2425 -0.1956
 3596TIP3   OH232202   1.932   5.703   1.614 -0.3152 -0.0182  0.1135
 3596TIP3    H132203   2.025   5.681   1.604 -0.6935 -0.7871 -2.0651
 3596TIP3    H232204   1.895   5.628   1.660  0.0204 -0.0591  0.3181
 3597TIP3   OH232205   2.005   5.406   5.425 -0.3236  0.3229  0.1381
 3597TIP3    H132206   1.957   5.384   5.505  0.5396  2.0695  1.1534
 3597TIP3    H232207   2.081   5.347   5.425 -0.1711  0.5213  0.7504
 3598TIP3   OH232208   3.552   1.120  14.607 -0.0911 -0.0288  0.2201
 3598TIP3    H132209   3.623   1.183  14.595  0.0062 -0.0445  0.6827
 3598TIP3    H232210   3.501   1.125  14.526  0.3566  0.0824 -0.0567
 3599TIP3   OH232211   1.694   1.115   4.290 -0.1503  0.1008 -0.4169
 3599TIP3    H132212   1.767   1.100   4.230  0.1075  0.5584 -0.2205
 3599TIP3    H232213   1.736   1.139   4.373 -0.5573  3.1453 -1.0284
 3600TIP3   OH232214   2.875   4.381  13.632 -0.4224 -0.2492 -0.5137
 3600TIP3    H132215   2.930   4.446  13.589 -0.5083 -0.2295 -0.5947
 3600TIP3    H232216   2.864   4.413  13.721  2.0378 -1.6905  0.3504
 3601TIP3   OH232217   4.545   6.623  14.494 -0.3677 -0.8280  0.2294
 3601TIP3    H132218   4.597   6.550  14.460  1.1754  0.3074  0.1031
 3601TIP3    H232219   4.472   6.632  14.432 -0.8302 -2.5419  0.5034
 3602TIP3   OH232220   2.081   0.711   3.159 -0.6503 -0.8444 -0.1703
 3602TIP3    H132221   2.027   0.745   3.230 -0.7390 -2.1539  0.4111
 3602TIP3    H232222   2.165   0.756   3.169 -1.0273 -0.2043  0.0892
 3603TIP3   OH232223   4.462   1.869  16.878  0.2940  0.3106 -0.1351
 3603TIP3    H132224   4.389   1.865  16.940 -0.3298 -0.3760 -0.9206
 3603TIP3    H232225   4.531   1.914  16.927 -0.7052  1.1363  0.5495
 3604TIP3   OH232226   2.125   5.644  16.294 -0.4718  0.1869  0.2684
 3604TIP3    H132227   2.081   5.632  16.210  0.2334 -0.4102 -0.0174
 3604TIP3    H232228   2.093   5.572  16.349 -0.7613  0.4465  0.4451
 3605TIP3   OH232229   0.938   2.502  16.661 -0.6009  0.1996  0.1861
 3605TIP3    H132230   0.969   2.448  16.588 -0.1991 -0.4267  0.7978
 3605TIP3    H232231   0.865   2.552  16.626 -0.6563 -0.3838 -0.5380
 3606TIP3   OH232232   5.268   5.253   1.807 -0.4736  0.3994 -0.2480
 3606TIP3    H132233   5.264   5.257   1.712  0.4020 -0.7260 -0.3369
 3606TIP3    H232234   5.199   5.192   1.832  0.4280 -0.6499 -0.2812
 3607TIP3   OH232235   5.733   1.418   4.216  0.2256  0.7152  0.4598
 3607TIP3    H132236   5.689   1.339   4.248  0.3200  0.7165  0.5932
 3607TIP3    H232237   5.663   1.482   4.207 -0.0157  0.3022 -0.6663
 3608TIP3   OH232238   0.195   0.474  15.091 -0.0351  0.4343  0.1390
 3608TIP3    H132239   0.153   0.541  15.037  0.4237  1.9278  1.5820
 3608TIP3    H232240   0.144   0.474  15.172 -0.5595 -1.5963 -0.1445
 3609TIP3   OH232241   0.743   3.467   5.732 -0.0559  0.2953  0.2502
 3609TIP3    H132242   0.793   3.403   5.682 -0.7297 -0.3857  0.4398
 3609TIP3    H232243   0.760   3.445   5.824 -2.2391 -1.1966  0.3394
 3610TIP3   OH232244   6.300   4.077   3.073  0.2149 -0.8966  0.2167
 3610TIP3    H132245   6.341   4.019   3.137  0.9737  1.3350  1.8274
 3610TIP3    H232246   6.363   4.083   3.002  0.7067 -1.0171  0.6407
 3611TIP3   OH232247   5.978   0.365  12.567 -0.1829 -0.2885 -0.6185
 3611TIP3    H132248   6.052   0.423  12.579 -0.9715  0.6932 -0.4567
 3611TIP3    H232249   5.910   0.399  12.625  0.3911 -3.2495  1.9267
 3612TIP3   OH232250   4.737   4.462   3.808  0.2436 -0.8899 -0.7211
 3612TIP3    H132251   4.771   4.540   3.764 -1.4809 -0.8839 -2.1053
 3612TIP3    H232252   4.729   4.488   3.900  2.3145 -0.3600 -0.6747
 3613TIP3   OH232253   1.759   4.452  14.575  0.1408 -0.2664  0.5456
 3613TIP3    H132254   1.669   4.477  14.554  0.1583  1.3483  2.3673
 3613TIP3    H232255   1.754   4.411  14.661  1.2070  0.0447  0.7641
 3614TIP3   OH232256   5.361   4.313  11.788  0.1512 -0.1002 -0.0598
 3614TIP3    H132257   5.406   4.234  11.818 -1.5737 -1.8057 -1.8126
 3614TIP3    H232258   5.336   4.359  11.868  2.9940 -0.2343  0.9682
 3615TIP3   OH232259   3.763   6.124   2.370  0.1538 -0.3737 -0.0035
 3615TIP3    H132260   3.699   6.067   2.328  0.1304  0.0383 -0.5329
 3615TIP3    H232261   3.809   6.068   2.432 -0.4816 -0.7544  0.1298
 3616TIP3   OH232262   5.135   1.284   6.288 -0.4337 -0.7384  0.4852
 3616TIP3    H132263   5.098   1.197   6.308  1.3251 -1.1763  1.9477
 3616TIP3    H232264   5.225   1.266   6.262 -0.5987  0.5171 -0.9913
 3617TIP3   OH232265   1.280   3.207   2.803 -0.6841  0.3810 -0.1952
 3617TIP3    H132266   1.365   3.227   2.840 -1.2464 -0.2950  1.4876
 3617TIP3    H232267   1.296   3.202   2.708  0.9872  0.9154  0.0411
 3618TIP3   OH232268   4.003   4.187   3.705  0.4934 -0.0278  0.1242
 3618TIP3    H132269   3.954   4.184   3.788  0.9983 -0.3744  0.4103
 3618TIP3    H232270   3.981   4.272   3.668 -0.6976 -0.3580  0.0315
 3619TIP3   OH232271   1.045   2.623  12.639 -0.2934 -0.0493 -0.1928
 3619TIP3    H132272   1.105   2.645  12.567 -0.3024 -2.0929 -0.8454
 3619TIP3    H232273   1.098   2.569  12.698 -0.5807  0.7906  0.8322
 3620TIP3   OH232274   6.579   6.316   1.902  0.6839 -0.2940  0.3423
 3620TIP3    H132275   6.638   6.278   1.967 -0.8588 -2.2559  0.6348
 3620TIP3    H232276   6.517   6.368   1.954  0.2260 -0.8306  0.3400
 3621TIP3   OH232277   1.176   5.126   1.943 -0.1265  0.6411  0.2473
 3621TIP3    H132278   1.174   5.055   2.008  0.3128  2.0673  1.8377
 3621TIP3    H232279   1.218   5.199   1.988  0.0874  1.6937 -1.6195
 3622TIP3   OH232280   6.563   2.550  11.964  0.1294  0.3763 -1.0047
 3622TIP3    H132281   6.468   2.544  11.974  0.4121 -1.5390  0.7024
 3622TIP3    H232282   6.575   2.583  11.875 -2.1585  2.3487 -0.6379
 3623TIP3   OH232283   5.823   2.049  11.094  0.2360 -0.9037 -0.2125
 3623TIP3    H132284   5.915   2.041  11.119  0.2494  0.7899  0.3729
 3623TIP3    H232285   5.822   2.118  11.027 -0.8478  0.6806  1.3686
 3624TIP3   OH232286   1.667   2.010  12.406 -0.3963 -0.4296 -0.6387
 3624TIP3    H132287   1.706   2.082  12.456  0.2790 -1.1486 -0.1030
 3624TIP3    H232288   1.573   2.020  12.418 -0.2647 -0.2391  0.2988
 3625TIP3   OH232289   3.159   2.562  13.702  0.0617 -0.3083  0.1643
 3625TIP3    H132290   3.134   2.486  13.754  1.1077 -0.5317  0.3500
 3625TIP3    H232291   3.114   2.635  13.743  0.2729 -0.6030  0.9229
 3626TIP3   OH232292   2.363   0.543   5.328  0.5332 -0.2691 -0.3198
 3626TIP3    H132293   2.384   0.554   5.421 -0.8749 -1.2504  0.1432
 3626TIP3    H232294   2.422   0.602   5.282 -0.9391  2.6189  1.4132
 3627TIP3   OH232295   1.949   0.429   4.510 -0.7241 -0.0598 -0.3590
 3627TIP3    H132296   2.016   0.479   4.463 -0.7729 -1.1868 -1.6601
 3627TIP3    H232297   1.959   0.456   4.602  1.0470  0.3254 -0.6366
 3628TIP3   OH232298   4.789   6.142  15.650 -0.6472  0.3900 -0.9185
 3628TIP3    H132299   4.720   6.104  15.706 -1.1222 -0.3290 -1.9774
 3628TIP3    H232300   4.792   6.234  15.676  0.9618 -0.4464  2.1453
 3629TIP3   OH232301   4.205   2.676  16.290 -0.0285  0.3911  0.2464
 3629TIP3    H132302   4.266   2.725  16.233  0.0763 -0.8153 -0.6967
 3629TIP3    H232303   4.256   2.658  16.369  0.9108 -0.7050 -0.5785
 3630TIP3   OH232304   0.890   5.462   5.104 -0.4341 -0.6186  0.6500
 3630TIP3    H132305   0.816   5.408   5.133 -1.2477  0.2859  0.2657
 3630TIP3    H232306   0.962   5.400   5.093 -1.8773 -1.9603 -1.6642
 3631TIP3   OH232307   6.685   0.047  13.449 -0.1394  0.1440 -0.3296
 3631TIP3    H132308   6.596   0.027  13.477  0.6196 -1.2015  1.2336
 3631TIP3    H232309   6.686   0.029  13.355 -1.1540 -1.2713 -0.0898
 3632TIP3   OH232310   2.286   6.226  14.000  0.8513 -0.1561 -0.2467
 3632TIP3    H132311   2.222   6.258  13.937  0.8038 -0.6256 -0.4389
 3632TIP3    H232312   2.371   6.242  13.959  0.7648 -2.3537 -1.3466
 3633TIP3   OH232313   1.820   0.846   2.435  0.2666  0.3846  0.1324
 3633TIP3    H132314   1.885   0.888   2.490 -0.1983  1.6334 -0.2565
 3633TIP3    H232315   1.809   0.905   2.360 -0.4245 -0.3958 -0.3997
 3634TIP3   OH232316   6.621   5.080   3.802  0.2466  0.5214 -0.0915
 3634TIP3    H132317   6.576   5.046   3.879 -0.9010 -0.3828 -1.1530
 3634TIP3    H232318   6.633   5.173   3.820  2.0348 -0.0910  2.1679
 3635TIP3   OH232319   5.404   2.784  11.588  0.1706 -0.6651 -0.0849
 3635TIP3    H132320   5.355   2.709  11.623 -0.5075  0.3986  1.2719
 3635TIP3    H232321   5.383   2.784  11.495 -0.9038 -1.3561  0.1383
 3636TIP3   OH232322   5.829   4.467   1.821  0.1420  0.6401 -0.5469
 3636TIP3    H132323   5.849   4.510   1.738  0.6018 -0.8885 -1.2520
 3636TIP3    H232324   5.769   4.396   1.797  0.9041 -0.3126  0.2874
 3637TIP3   OH232325   5.306   6.196   0.272  0.4936 -0.5180  0.1230
 3637TIP3    H132326   5.224   6.232   0.304  0.3689 -0.5133 -0.2023
 3637TIP3    H232327   5.283   6.108   0.242  0.9551 -1.2074  1.6949
 3638TIP3   OH232328   4.904   3.335   0.429 -0.0946  0.1958 -0.8096
 3638TIP3    H132329   4.838   3.340   0.360 -0.3792 -2.6326 -0.8223
 3638TIP3    H232330   4.865   3.279   0.496  2.4618 -2.0211 -1.0693
 3639TIP3   OH232331   1.203   2.527  13.795  0.1042 -0.5005 -0.4780
 3639TIP3    H132332   1.280   2.581  13.778 -0.0760 -0.7674 -2.2739
 3639TIP3    H232333   1.201   2.465  13.722 -2.1680 -0.0670 -0.8071
 3640TIP3   OH232334   0.179   5.935   5.550  0.4421  0.0691  0.1673
 3640TIP3    H132335   0.117   5.959   5.481 -0.5803 -0.6356  0.8279
 3640TIP3    H232336   0.237   5.871   5.509 -1.3977 -1.8691  0.4956
 3641TIP3   OH232337   6.530   0.236   0.024 -0.2228  0.3526  0.1791
 3641TIP3    H132338   6.486   0.192   0.097 -1.5432 -0.1483 -0.9102
 3641TIP3    H232339   6.473   0.310   0.002  1.2062  1.7445  0.9830
 3642TIP3   OH232340   2.628   6.089  11.617  0.0361 -0.0350 -0.2728
 3642TIP3    H132341   2.709   6.039  11.615  0.3377  0.4867 -1.0997
 3642TIP3    H232342   2.591   6.080  11.529 -1.1572 -0.8382  0.2903
 3643TIP3   OH232343   0.591   4.273   4.514 -1.1455 -0.2363  0.3111
 3643TIP3    H132344   0.607   4.204   4.449 -0.6065  1.2201 -1.1168
 3643TIP3    H232345   0.495   4.277   4.521 -1.2255  0.0004 -0.8265
 3644TIP3   OH232346   4.827   6.145   5.574 -0.1398 -0.1360  0.0323
 3644TIP3    H132347   4.906   6.132   5.521 -0.0485  0.9814 -0.1101
 3644TIP3    H232348   4.816   6.240   5.578 -0.9700 -0.2594  0.8069
 3645TIP3   OH232349   6.530   2.285  13.004  0.6392 -0.2933 -0.1362
 3645TIP3    H132350   6.448   2.262  13.048  0.0766  0.8095 -0.5981
 3645TIP3    H232351   6.591   2.217  13.031 -0.1764 -0.6019  0.9592
 3646TIP3   OH232352   3.017   0.556  15.270 -0.4641 -0.1300  0.4039
 3646TIP3    H132353   3.028   0.462  15.253 -0.5667 -0.1655  0.5346
 3646TIP3    H232354   3.098   0.595  15.238 -1.4106  0.0294 -1.8576
 3647TIP3   OH232355   0.894   5.692   0.049 -0.5183  0.6736 -0.1358
 3647TIP3    H132356   0.828   5.760   0.064 -1.0230  0.3577 -0.8867
 3647TIP3    H232357   0.876   5.660  -0.039 -0.3710 -0.5392  0.2668
 3648TIP3   OH232358   4.928   5.026   4.925 -0.5018  0.2722  0.1890
 3648TIP3    H132359   4.851   5.076   4.897 -0.8873  0.2504  1.1713
 3648TIP3    H232360   4.995   5.047   4.860 -1.4749 -0.0812 -0.9458
 3649TIP3   OH232361   2.289   1.199   1.222 -0.5898 -0.2497 -0.1427
 3649TIP3    H132362   2.383   1.184   1.232 -0.2469  1.2247 -0.9339
 3649TIP3    H232363   2.248   1.119   1.255  0.9707 -1.2859 -0.6552
 3650TIP3   OH232364   1.036   1.112   2.143  0.0894  0.2352  0.0804
 3650TIP3    H132365   0.962   1.070   2.098  0.0775  1.4987 -1.1202
 3650TIP3    H232366   1.108   1.105   2.080  0.9193 -0.7312  1.1292
 3651TIP3   OH232367   5.546   4.740  17.113 -0.7603 -0.6012 -0.0908
 3651TIP3    H132368   5.471   4.783  17.073 -0.0171  1.3464  0.5310
 3651TIP3    H232369   5.615   4.744  17.046  0.2589  1.9989  1.0572
 3652TIP3   OH232370   2.679   4.344  16.237 -0.3748  0.1652  0.0063
 3652TIP3    H132371   2.598   4.394  16.228  0.5972  1.5358 -1.1550
 3652TIP3    H232372   2.726   4.386  16.308  0.5597  1.0976 -1.1397
 3653TIP3   OH232373   0.977   4.820  14.046 -0.4328  0.0588  0.5988
 3653TIP3    H132374   0.971   4.828  14.141  1.3991  0.4514  0.7100
 3653TIP3    H232375   1.068   4.793  14.030 -0.8599 -0.5066 -1.0124
 3654TIP3   OH232376   0.035   3.514  13.214 -0.4000  0.3376 -0.4042
 3654TIP3    H132377   0.123   3.477  13.218 -0.6848 -0.2863  0.0718
 3654TIP3    H232378  -0.023   3.438  13.207 -0.9940  0.6807  0.6780
 3655TIP3   OH232379   0.796   2.272   1.248  0.4832  0.5955  0.2349
 3655TIP3    H132380   0.877   2.240   1.207  1.0831  1.8158  0.4209
 3655TIP3    H232381   0.785   2.218   1.326  0.6793 -0.1184 -0.2325
 3656TIP3   OH232382   3.417   4.605  13.286 -0.1377 -0.7433  0.4399
 3656TIP3    H132383   3.394   4.562  13.368 -0.0274 -0.1781  0.7713
 3656TIP3    H232384   3.360   4.682  13.282  0.4309 -0.3155  0.3955
 3657TIP3   OH232385   2.450   4.434  11.087  0.2471 -0.3801 -0.2541
 3657TIP3    H132386   2.492   4.375  11.150 -0.2803 -0.3639  0.1255
 3657TIP3    H232387   2.359   4.403  11.084  0.4219 -0.8044 -1.5204
 3658TIP3   OH232388   1.093   5.429  14.379 -0.0306  0.7143 -0.1846
 3658TIP3    H132389   1.066   5.340  14.354 -1.5891  0.7940  1.1193
 3658TIP3    H232390   1.152   5.416  14.453  0.4312  0.7223 -0.5522
 3659TIP3   OH232391   4.818   1.729   2.912 -0.3335 -0.2984  0.1546
 3659TIP3    H132392   4.723   1.720   2.924 -0.1034 -1.3460  1.3200
 3659TIP3    H232393   4.850   1.638   2.913  0.5000 -0.0431 -1.8283
 3660TIP3   OH232394   6.496   6.640  16.720  0.1029 -0.5852 -0.3192
 3660TIP3    H132395   6.441   6.714  16.747  1.3987  0.4151 -0.4291
 3660TIP3    H232396   6.517   6.596  16.803  2.1043  1.1133  0.1007
 3661TIP3   OH232397   4.382   3.746  13.114  0.3414 -0.2434 -0.1769
 3661TIP3    H132398   4.381   3.724  13.021  0.5602 -1.2669  0.0513
 3661TIP3    H232399   4.290   3.755  13.138  0.2785 -0.1556 -0.4549
 3662TIP3   OH232400   1.875   2.042  15.948  0.4071  0.1778 -0.6805
 3662TIP3    H132401   1.958   2.067  15.989 -0.1925 -0.1543  0.7737
 3662TIP3    H232402   1.888   2.060  15.855  1.8033  0.9521 -0.3552
 3663TIP3   OH232403   1.873   3.489  16.965  0.0597  0.2930  0.5685
 3663TIP3    H132404   1.932   3.466  16.894  0.7204  1.0362  0.8708
 3663TIP3    H232405   1.820   3.410  16.979  0.4361 -0.1039 -0.2344
 3664TIP3   OH232406   5.237   4.331  11.144 -0.5362 -0.0507  0.2658
 3664TIP3    H132407   5.179   4.303  11.073  0.2706  0.3555 -0.5597
 3664TIP3    H232408   5.180   4.337  11.220 -1.2803 -1.1639 -0.1848
 3665TIP3   OH232409   3.232   5.137   5.918  0.1986  0.4094 -0.1099
 3665TIP3    H132410   3.310   5.190   5.897  3.0237 -2.4326  2.7330
 3665TIP3    H232411   3.162   5.202   5.925  2.0280  3.0029 -3.5301
 3666TIP3   OH232412   1.911   2.787  11.359  0.4008 -0.1008 -0.1654
 3666TIP3    H132413   1.917   2.791  11.264 -1.3775 -1.1143 -0.3558
 3666TIP3    H232414   1.883   2.697  11.377  0.5950  0.1238  1.3035
 3667TIP3   OH232415   6.222   6.243  16.460  0.0091 -0.1145  0.2649
 3667TIP3    H132416   6.241   6.197  16.379 -2.2078  0.0773 -0.4198
 3667TIP3    H232417   6.261   6.330  16.448  0.1018 -0.2455 -0.3947
 3668TIP3   OH232418   4.330   1.785   0.607  0.8477 -0.1497  0.0200
 3668TIP3    H132419   4.290   1.722   0.667  0.2487  0.1979 -0.0156
 3668TIP3    H232420   4.421   1.790   0.636  0.7578 -0.5920  0.3934
 3669TIP3   OH232421   5.919   0.820   0.034 -0.1217 -0.4346  0.1211
 3669TIP3    H132422   5.914   0.887   0.103 -0.7633 -0.0043 -0.3412
 3669TIP3    H232423   5.974   0.859  -0.033  0.1691 -0.6961  0.2050
 3670TIP3   OH232424   2.312   6.459   5.828 -0.0986 -0.1496 -0.2307
 3670TIP3    H132425   2.280   6.370   5.813  0.2527 -0.3670  0.3202
 3670TIP3    H232426   2.397   6.461   5.783 -1.0563  0.5510 -2.0379
 3671TIP3   OH232427   2.607   4.986  17.089 -0.3385 -0.0579 -0.1133
 3671TIP3    H132428   2.573   5.070  17.060  1.5469  0.4261 -0.9955
 3671TIP3    H232429   2.560   4.968  17.171 -2.0490  0.9744 -0.8424
 3672TIP3   OH232430   5.676   5.325  14.208  0.3850 -0.1278  0.3104
 3672TIP3    H132431   5.743   5.321  14.276 -1.0077 -0.2596  1.7392
 3672TIP3    H232432   5.594   5.309  14.255 -0.6185 -0.2377 -1.4202
 3673TIP3   OH232433   4.437   4.007  13.181 -0.4944 -0.2137 -0.0306
 3673TIP3    H132434   4.415   3.914  13.173 -1.8932  0.1141 -0.0081
 3673TIP3    H232435   4.372   4.052  13.127  0.8094  0.6862 -0.8725
 3674TIP3   OH232436   1.229   6.570   4.941  0.7475 -0.1883  0.2347
 3674TIP3    H132437   1.254   6.486   4.904  0.3147  0.2600 -1.1177
 3674TIP3    H232438   1.216   6.553   5.035 -0.2738 -1.8363 -0.1876
 3675TIP3   OH232439   1.297   4.471  13.070 -0.5040  0.2944 -0.7403
 3675TIP3    H132440   1.302   4.379  13.045 -0.2279 -0.0156  0.3881
 3675TIP3    H232441   1.223   4.475  13.131 -0.8492  0.9271 -1.1903
 3676TIP3   OH232442   0.369   1.777  10.846  0.0665  0.4156  0.1828
 3676TIP3    H132443   0.320   1.716  10.790 -0.1053 -1.4308  2.2441
 3676TIP3    H232444   0.459   1.744  10.845  0.1132  0.5096  0.7486
 3677TIP3   OH232445   3.454   5.771   5.994 -0.0150 -0.0526 -0.4795
 3677TIP3    H132446   3.464   5.850   5.942  2.5670 -0.0572 -0.0258
 3677TIP3    H232447   3.510   5.706   5.951 -0.1470 -0.9105  0.6076
 3678TIP3   OH232448   0.379   2.586   5.454  0.4100 -0.2628 -0.3666
 3678TIP3    H132449   0.325   2.515   5.488  0.1503  0.3204  0.4663
 3678TIP3    H232450   0.359   2.588   5.361  1.0362 -1.8078 -0.5412
 3679TIP3   OH232451   2.926   0.062  16.352  0.1189 -0.4073  0.1963
 3679TIP3    H132452   2.839   0.063  16.392 -0.7786 -1.9886 -1.6666
 3679TIP3    H232453   2.962   0.149  16.370 -1.5869  0.0433  1.5071
 3680TIP3   OH232454   5.748   6.072   3.560 -0.3183  0.2432  0.1759
 3680TIP3    H132455   5.712   6.130   3.494 -2.0675 -0.6765  0.2904
 3680TIP3    H232456   5.773   5.993   3.511  2.2597  1.1446 -0.0190
 3681TIP3   OH232457   6.609   2.823   5.900  0.2292 -0.8901  0.0662
 3681TIP3    H132458   6.702   2.802   5.891  0.5967  0.0615  1.4401
 3681TIP3    H232459   6.571   2.802   5.815  1.7984 -0.8199 -0.6680
 3682TIP3   OH232460   4.970   0.204   0.200 -0.1634  0.1143  0.2801
 3682TIP3    H132461   5.000   0.164   0.282 -1.9888 -0.1246  0.8613
 3682TIP3    H232462   4.984   0.298   0.212  0.9864 -0.0445  0.2516
 3683TIP3   OH232463   2.127   5.276   5.796 -0.1854  0.2603 -0.5105
 3683TIP3    H132464   2.124   5.189   5.757  0.0237 -0.2050  0.4923
 3683TIP3    H232465   2.200   5.320   5.751 -0.4118 -0.0138 -1.1471
 3684TIP3   OH232466   0.736   6.102   5.249  0.2052 -0.3898  0.1516
 3684TIP3    H132467   0.723   6.184   5.296 -2.2476 -0.5065 -0.2620
 3684TIP3    H232468   0.762   6.040   5.316 -1.8954 -0.2198  1.1671
 3685TIP3   OH232469   3.550   4.902   3.219 -0.0522  0.0236 -0.0276
 3685TIP3    H132470   3.564   4.817   3.176  0.1447 -0.4508  0.9755
 3685TIP3    H232471   3.629   4.915   3.272 -0.3509  0.5637  0.2779
 3686TIP3   OH232472   5.752   2.733   5.059  0.8468 -0.4650  0.1097
 3686TIP3    H132473   5.747   2.641   5.086  2.9507 -0.8129 -0.5770
 3686TIP3    H232474   5.790   2.729   4.971  0.9291  1.0680  0.0756
 3687TIP3   OH232475   1.460   6.490  10.690 -0.2696 -0.6634 -0.9473
 3687TIP3    H132476   1.446   6.470  10.782  2.3135 -0.7307 -0.5195
 3687TIP3    H232477   1.373   6.489  10.651 -1.4117 -0.4890  1.5154
 3688TIP3   OH232478   5.988   1.698   5.614  0.5597  0.5232 -0.0023
 3688TIP3    H132479   6.056   1.710   5.547  2.1571 -1.9564  1.1037
 3688TIP3    H232480   5.909   1.675   5.565  0.5124  3.1943 -1.2939
 3689TIP3   OH232481   5.402   1.282   5.414  0.1558  0.2095  0.0082
 3689TIP3    H132482   5.353   1.200   5.404 -3.9463  2.6092 -0.7006
 3689TIP3    H232483   5.419   1.311   5.324 -0.2688  1.1218  0.2109
 3690TIP3   OH232484   5.596   5.109   2.566 -0.0507 -0.3183 -0.2825
 3690TIP3    H132485   5.625   5.018   2.559 -1.4557 -1.0344  2.5728
 3690TIP3    H232486   5.657   5.150   2.627 -1.2739 -0.1932  0.8863
 3691TIP3   OH232487   4.611   1.037  15.191  0.7781 -0.0448  1.0226
 3691TIP3    H132488   4.618   1.073  15.279  1.6709  0.4742  0.7407
 3691TIP3    H232489   4.700   1.039  15.157  0.8641 -2.6057  1.0215
 3692TIP3   OH232490   0.437   0.148  16.601 -0.1618 -0.5266  0.3528
 3692TIP3    H132491   0.379   0.167  16.675 -0.8567  1.2215 -0.6006
 3692TIP3    H232492   0.428   0.225  16.544  0.8515 -1.5600 -1.2248
 3693TIP3   OH232493   1.189   0.676   2.190  0.4288 -0.0079 -0.2358
 3693TIP3    H132494   1.226   0.588   2.190 -0.7468 -0.5147 -0.6261
 3693TIP3    H232495   1.146   0.684   2.105 -0.8899  0.3253  0.4450
 3694TIP3   OH232496   5.276   0.049  14.778  0.1276 -0.1258  0.0052
 3694TIP3    H132497   5.193   0.004  14.795 -0.6543  0.1347 -2.8267
 3694TIP3    H232498   5.342  -0.019  14.784 -0.3858 -0.4964  1.4999
 3695TIP3   OH232499   1.693   1.311  13.922 -0.2777 -0.0036  0.0500
 3695TIP3    H132500   1.739   1.360  13.853  1.3506 -2.6160 -0.7935
 3695TIP3    H232501   1.662   1.232  13.878  0.1245 -1.3548  2.1324
 3696TIP3   OH232502   1.379   0.492   0.881  0.6381 -0.2030 -0.3063
 3696TIP3    H132503   1.369   0.505   0.786  1.1357 -2.8032 -0.7602
 3696TIP3    H232504   1.393   0.579   0.916  0.2734  0.8238 -2.6237
 3697TIP3   OH232505   3.935   0.426   1.367 -0.1188  0.3478  0.2484
 3697TIP3    H132506   3.983   0.363   1.421 -0.2318  0.8224  0.9094
 3697TIP3    H232507   3.856   0.379   1.340 -1.0201  0.7305  2.1093
 3698TIP3   OH232508   5.367   2.233   0.088 -0.0551  1.1392 -0.0294
 3698TIP3    H132509   5.371   2.138   0.077 -1.3212  1.3880 -2.8253
 3698TIP3    H232510   5.378   2.245   0.183  0.9967 -1.7127  0.2925
 3699TIP3   OH232511   2.036   1.577   3.711  0.0501 -0.1996  0.7006
 3699TIP3    H132512   2.098   1.607   3.778  1.7205  0.7286 -1.1850
 3699TIP3    H232513   1.961   1.636   3.719 -0.1675 -0.6931  2.3605
 3700TIP3   OH232514   5.354   1.541  15.466 -0.2671 -0.0033 -0.2406
 3700TIP3    H132515   5.449   1.530  15.463 -0.2724 -0.3577  0.5846
 3700TIP3    H232516   5.320   1.465  15.419 -0.2083 -1.6726  2.3190
 3701TIP3   OH232517   3.358   0.241  16.404  0.0633  0.1186 -0.1250
 3701TIP3    H132518   3.318   0.270  16.486 -0.3934 -0.1621 -0.2530
 3701TIP3    H232519   3.323   0.154  16.389 -0.1594  0.3253 -0.8256
 3702TIP3   OH232520   2.105   5.599  14.757 -0.4420  0.0851  0.4545
 3702TIP3    H132521   2.120   5.650  14.837 -1.1303  1.1149 -0.0555
 3702TIP3    H232522   2.106   5.508  14.786 -1.2296  0.4740  1.7287
 3703TIP3   OH232523   0.285   2.315  14.084 -0.2082 -0.5233  0.3788
 3703TIP3    H132524   0.282   2.265  14.165 -0.7240 -2.4999 -0.8453
 3703TIP3    H232525   0.196   2.310  14.049  0.1824 -0.2787 -0.6715
 3704TIP3   OH232526   1.814   5.106   5.372 -0.7888  0.1180  0.4079
 3704TIP3    H132527   1.737   5.071   5.417 -0.5303 -0.8420  0.1168
 3704TIP3    H232528   1.887   5.055   5.407 -0.3593  0.6214  0.2465
 3705TIP3   OH232529   2.591   2.366  14.607 -0.4872  0.0459  0.5154
 3705TIP3    H132530   2.534   2.289  14.608 -0.6454  0.1145 -1.0406
 3705TIP3    H232531   2.605   2.388  14.699 -0.2718 -1.9586  0.9726
 3706TIP3   OH232532   2.718   4.446  15.216 -0.1997 -0.0793 -0.8283
 3706TIP3    H132533   2.768   4.512  15.263 -0.9323 -0.1552  0.0755
 3706TIP3    H232534   2.784   4.387  15.178  0.4355  0.8907 -1.2423
 3707TIP3   OH232535   0.581   4.955  11.080 -0.1510  0.0547 -0.5658
 3707TIP3    H132536   0.630   5.036  11.095  0.6230 -0.5030 -0.0510
 3707TIP3    H232537   0.583   4.910  11.164 -2.1567  0.3439 -0.3391
 3708TIP3   OH232538   6.145   6.456  17.126  0.2833  0.1535 -0.0904
 3708TIP3    H132539   6.058   6.475  17.090  0.0168 -0.1504  0.3703
 3708TIP3    H232540   6.204   6.461  17.052  0.3534  3.5965  0.1235
 3709TIP3   OH232541   4.716   6.376   4.659  0.4620 -0.1109 -0.1778
 3709TIP3    H132542   4.729   6.350   4.750  1.9501  1.1883  0.0082
 3709TIP3    H232543   4.772   6.317   4.609  0.5202 -0.0873 -0.1400
 3710TIP3   OH232544   5.629   0.197   2.888 -0.5190  0.2112  0.0864
 3710TIP3    H132545   5.706   0.219   2.941 -0.0079 -2.8558  0.7144
 3710TIP3    H232546   5.558   0.248   2.926  0.2750 -0.3913  2.4471
 3711TIP3   OH232547   3.642   6.252  13.270  0.3637  0.0747  0.9178
 3711TIP3    H132548   3.686   6.193  13.209  2.3670  0.2104  2.1704
 3711TIP3    H232549   3.603   6.320  13.215 -0.4265 -1.4507 -0.3989
 3712TIP3   OH232550   2.568   4.423   1.759  0.4044 -0.2934 -0.1384
 3712TIP3    H132551   2.551   4.394   1.849 -1.5097 -0.8589 -0.6616
 3712TIP3    H232552   2.659   4.398   1.743  0.6772 -0.4629  1.5363
 3713TIP3   OH232553   6.294   0.419   0.044  0.6226  0.6070 -0.1443
 3713TIP3    H132554   6.233   0.358   0.084  1.9958  0.2394  1.4160
 3713TIP3    H232555   6.260   0.506   0.067  0.1200  0.4173 -0.1664
 3714TIP3   OH232556   2.409   4.072   2.581 -0.2103 -0.0637 -0.1055
 3714TIP3    H132557   2.475   4.141   2.591  0.0837 -0.3679  0.0451
 3714TIP3    H232558   2.429   4.032   2.496 -0.3707  0.0261 -0.1852
 3715TIP3   OH232559   2.129   0.584   4.375  0.0524  0.4820 -0.1296
 3715TIP3    H132560   2.184   0.612   4.448  1.7604 -0.9133 -0.8272
 3715TIP3    H232561   2.190   0.571   4.302 -0.5625 -4.5738  0.0560
 3716TIP3   OH232562   2.600   6.274   6.178  0.3838 -0.0153 -0.4533
 3716TIP3    H132563   2.676   6.241   6.226  1.4420  1.5113 -1.0648
 3716TIP3    H232564   2.631   6.353   6.135 -1.8621  1.2434  0.1728
 3717TIP3   OH232565   5.823   2.417  12.724  0.1139 -0.2005 -0.6161
 3717TIP3    H132566   5.862   2.418  12.636 -0.1111  0.0143 -0.7134
 3717TIP3    H232567   5.882   2.361  12.775  2.1948  2.4538 -0.0109
 3718TIP3   OH232568   0.480   3.150   1.109 -0.6819 -0.1996  0.5649
 3718TIP3    H132569   0.509   3.101   1.032  1.2492  1.4778  0.1997
 3718TIP3    H232570   0.519   3.104   1.183 -0.4018 -0.2798  0.3659
 3719TIP3   OH232571   1.765   0.807  12.443  0.2766 -0.3293  0.1164
 3719TIP3    H132572   1.681   0.822  12.488  0.4218 -0.1088  0.3164
 3719TIP3    H232573   1.826   0.784  12.514  1.0088  2.0699  0.3011
 3720TIP3   OH232574   3.933   3.391   0.225 -0.0500  0.0500 -0.1660
 3720TIP3    H132575   4.009   3.376   0.169  0.8113  2.2093  0.3912
 3720TIP3    H232576   3.890   3.305   0.231  1.3284 -0.7830 -1.9408
 3721TIP3   OH232577   3.838   1.260  13.402  0.3484 -0.7317  0.0613
 3721TIP3    H132578   3.880   1.182  13.439  2.3262  1.3909  2.4325
 3721TIP3    H232579   3.760   1.226  13.359  2.0527 -4.2419 -0.4772
 3722TIP3   OH232580   1.998   3.443  15.780  0.1588 -0.2035 -0.1257
 3722TIP3    H132581   2.075   3.421  15.727 -0.2046 -1.3934 -0.1758
 3722TIP3    H232582   1.960   3.358  15.804 -1.0723  0.3593 -0.0120
 3723TIP3   OH232583   4.404   5.360  17.219 -0.0886  0.7460 -0.6246
 3723TIP3    H132584   4.464   5.289  17.241  0.4311  0.4875 -2.7686
 3723TIP3    H232585   4.440   5.437  17.262  1.1769  0.3616 -0.9877
 3724TIP3   OH232586   6.651   0.064  13.143 -0.4966  0.2109  0.2968
 3724TIP3    H132587   6.700   0.051  13.062 -0.2566 -0.1822  0.5035
 3724TIP3    H232588   6.674   0.152  13.171 -1.9055  1.0221 -0.9586
 3725TIP3   OH232589   6.726   4.538  12.889 -0.2136  0.3457 -0.0249
 3725TIP3    H132590   6.785   4.477  12.934  0.0630  1.2308  0.8260
 3725TIP3    H232591   6.660   4.482  12.848 -0.3275 -0.4819  1.2666
 3726TIP3   OH232592   3.603   3.716  15.257 -0.1335  0.1321  0.0051
 3726TIP3    H132593   3.630   3.660  15.329  0.7922  0.6371  0.0520
 3726TIP3    H232594   3.656   3.686  15.183  1.0165  1.5266  0.2465
 3727TIP3   OH232595   1.142   0.682   3.783 -0.1633  0.3589 -0.0658
 3727TIP3    H132596   1.118   0.591   3.766  2.5803 -0.4800  0.4356
 3727TIP3    H232597   1.184   0.712   3.703 -2.3152  1.6933 -0.7663
 3728TIP3   OH232598   3.607   0.353  15.999 -0.3599 -0.1006 -0.0662
 3728TIP3    H132599   3.537   0.419  15.996  1.1737  1.5556  0.0248
 3728TIP3    H232600   3.605   0.312  15.912 -1.7160 -0.3704  0.0811
 3729TIP3   OH232601   4.493   2.470   4.641  0.1088 -0.8323  0.2420
 3729TIP3    H132602   4.545   2.397   4.606  0.2167  0.2918 -2.0461
 3729TIP3    H232603   4.455   2.511   4.564 -1.6299  0.2944  1.6697
 3730TIP3   OH232604   0.291   5.589   6.552  0.3240  0.3525 -0.2449
 3730TIP3    H132605   0.364   5.650   6.544 -0.6786  1.4104 -1.3804
 3730TIP3    H232606   0.229   5.633   6.610 -1.2773  1.2977 -2.6171
 3731TIP3   OH232607   3.188   3.479  12.585 -0.1432 -1.3379  0.3954
 3731TIP3    H132608   3.208   3.418  12.657 -1.9747 -1.6352  0.6638
 3731TIP3    H232609   3.124   3.432  12.531  2.8969 -2.0769 -2.7595
 3732TIP3   OH232610   2.890   2.705   2.983 -0.5110 -0.2957 -0.0592
 3732TIP3    H132611   2.975   2.687   3.021 -1.2534 -3.6007  0.1607
 3732TIP3    H232612   2.861   2.622   2.946 -4.4516  0.2540  1.4771
 3733TIP3   OH232613   2.602   3.691   1.167  0.2861 -0.3501  0.3612
 3733TIP3    H132614   2.563   3.637   1.099  0.0861 -1.4783  1.3570
 3733TIP3    H232615   2.558   3.776   1.158 -1.1752 -1.0962  0.3678
 3734TIP3   OH232616   2.524   5.599   0.442 -0.4929  0.0163 -0.0632
 3734TIP3    H132617   2.556   5.644   0.364 -1.7835 -0.7274 -1.0575
 3734TIP3    H232618   2.475   5.524   0.407 -1.7875  0.1430  1.4407
 3735TIP3   OH232619   0.131   0.598   4.488 -0.5285  0.0937 -0.7050
 3735TIP3    H132620   0.154   0.651   4.565  0.4520 -0.2792 -0.7361
 3735TIP3    H232621   0.076   0.528   4.522  1.9776 -1.5555  0.0855
 3736TIP3   OH232622   0.993   4.284   5.627 -0.0041  0.3376 -0.6323
 3736TIP3    H132623   1.076   4.282   5.580  0.0432 -1.1550 -0.4989
 3736TIP3    H232624   1.008   4.231   5.706  0.0633  3.1776  1.3621
 3737TIP3   OH232625   0.802   2.026   5.682  0.0733 -0.3097 -0.0423
 3737TIP3    H132626   0.862   1.958   5.652  0.0119  0.0757 -1.0637
 3737TIP3    H232627   0.854   2.079   5.743  0.6751 -0.1686 -0.6692
 3738TIP3   OH232628   4.352   3.281   3.721 -0.2845 -0.3560 -0.1538
 3738TIP3    H132629   4.287   3.283   3.651  1.1996  1.9103 -1.5526
 3738TIP3    H232630   4.399   3.198   3.710 -1.9722 -1.3394 -0.0117
 3739TIP3   OH232631   4.083   1.120   0.816  0.4521  0.0803  0.0519
 3739TIP3    H132632   4.025   1.187   0.780  0.4685  0.9044  1.5329
 3739TIP3    H232633   4.078   1.133   0.911  1.4875 -1.1596  0.2799
 3740TIP3   OH232634   4.263   2.241  11.406  0.2448 -0.5181 -0.1312
 3740TIP3    H132635   4.216   2.166  11.368 -0.2671  0.0363 -0.6145
 3740TIP3    H232636   4.207   2.272  11.477  0.0423 -0.0730 -0.4807
 3741TIP3   OH232637   3.467   1.818  12.511 -0.5062  0.2287 -0.2591
 3741TIP3    H132638   3.403   1.790  12.446 -1.5181  0.3644  0.6689
 3741TIP3    H232639   3.427   1.796  12.595 -0.5274  2.7912  0.4411
 3742TIP3   OH232640   0.444   6.438   1.869  0.5280 -0.1714  0.5797
 3742TIP3    H132641   0.352   6.417   1.887 -0.3441  3.0981  0.2510
 3742TIP3    H232642   0.446   6.458   1.776  1.7347 -0.7583  0.4628
 3743TIP3   OH232643   1.606   6.615   5.070  0.3442 -0.3937  1.2300
 3743TIP3    H132644   1.691   6.633   5.028 -0.7425 -0.1194 -0.9107
 3743TIP3    H232645   1.583   6.526   5.042 -1.0722  0.3294  0.0488
 3744TIP3   OH232646   1.402   6.092   3.295 -0.1376  0.6160 -0.3362
 3744TIP3    H132647   1.345   6.058   3.364 -0.7736 -0.1637 -1.2403
 3744TIP3    H232648   1.345   6.147   3.242  0.3637  1.2467 -0.2364
 3745TIP3   OH232649   2.600   0.032  11.665  0.0073  0.3894  0.5342
 3745TIP3    H132650   2.641   0.099  11.721  2.0575 -0.9283  0.6793
 3745TIP3    H232651   2.656  -0.045  11.676 -1.4286 -0.8783 -0.8449
 3746TIP3   OH232652   1.127   1.242   3.413 -0.1410 -0.7232 -0.2556
 3746TIP3    H132653   1.200   1.187   3.382  1.7184  1.1304  0.6805
 3746TIP3    H232654   1.113   1.305   3.343  0.3146 -0.0231  0.2731
 3747TIP3   OH232655   6.681   3.663  15.720  0.5732  0.0486 -0.6312
 3747TIP3    H132656   6.632   3.722  15.777 -0.0897 -0.9589 -0.1532
 3747TIP3    H232657   6.616   3.625  15.662  1.0345 -0.0240 -1.1036
 3748TIP3   OH232658   6.123   2.028  16.949  0.1914 -0.3839 -0.3763
 3748TIP3    H132659   6.208   2.005  16.986  1.3852 -0.3102 -2.9347
 3748TIP3    H232660   6.081   1.944  16.931  0.3652 -0.4388 -0.5255
 3749TIP3   OH232661   5.252   3.389   0.211 -0.4237  0.0952 -0.2307
 3749TIP3    H132662   5.183   3.350   0.158 -2.0086  1.9755  0.3877
 3749TIP3    H232663   5.219   3.381   0.301  1.1299 -0.8782  0.2637
 3750TIP3   OH232664   6.038   0.929   1.925 -0.1477  0.2728 -0.2568
 3750TIP3    H132665   5.973   0.942   1.993 -0.9968 -0.5032 -0.9025
 3750TIP3    H232666   5.991   0.885   1.854  1.1621 -0.6678 -0.5760
 3751TIP3   OH232667   0.917   4.927   5.283 -0.0178 -0.1851 -0.1085
 3751TIP3    H132668   0.911   5.007   5.336  0.5572  0.6329 -1.2636
 3751TIP3    H232669   0.839   4.877   5.308 -0.2119  0.5760  0.8711
 3752TIP3   OH232670   0.254   0.986   4.313  0.2439 -0.1678 -0.3575
 3752TIP3    H132671   0.173   0.934   4.313 -0.0716  0.3212 -0.1870
 3752TIP3    H232672   0.252   1.035   4.395  2.4066 -2.7250  1.3217
 3753TIP3   OH232673   5.973   4.926  13.187  0.7153 -0.4023 -0.0737
 3753TIP3    H132674   5.975   4.836  13.154  1.4659 -1.2726  2.2589
 3753TIP3    H232675   5.982   4.980  13.108 -1.2874 -2.3088 -1.6659
 3754TIP3   OH232676   5.215   2.941  15.772  0.1817  0.1337  0.2221
 3754TIP3    H132677   5.215   2.868  15.834 -0.0887 -0.6511 -0.6788
 3754TIP3    H232678   5.202   2.899  15.687 -1.8911  1.3883 -0.1197
 3755TIP3   OH232679   4.306   3.050   5.637  0.4968 -0.7249 -0.6528
 3755TIP3    H132680   4.227   3.048   5.583  0.0330 -0.2937 -0.0029
 3755TIP3    H232681   4.275   3.030   5.725  1.2592 -1.4969 -0.5555
 3756TIP3   OH232682   1.102   5.131  10.833  0.0293  0.1294  0.6428
 3756TIP3    H132683   1.094   5.111  10.740  1.0141 -4.2407  1.4043
 3756TIP3    H232684   1.019   5.173  10.856 -0.9350 -0.3706 -1.8172
 3757TIP3   OH232685   4.295   5.994  16.105  0.1831 -0.1395 -0.4743
 3757TIP3    H132686   4.330   5.905  16.108 -1.1374 -0.6966 -0.9404
 3757TIP3    H232687   4.206   5.983  16.071 -0.3709  1.2558  0.4969
 3758TIP3   OH232688   3.414   0.576   3.071  0.4574 -0.0447  0.2252
 3758TIP3    H132689   3.468   0.569   3.150  0.9238 -0.0510 -0.0880
 3758TIP3    H232690   3.474   0.611   3.005  0.2428 -0.6529 -0.2947
 3759TIP3   OH232691   2.023   4.540  12.049  0.4362 -0.1704  0.5958
 3759TIP3    H132692   1.978   4.487  12.114  0.1568  1.3248  1.6480
 3759TIP3    H232693   2.114   4.543  12.079  0.3523  0.3312  0.8147
 3760TIP3   OH232694   0.750   6.376  12.364  0.3301 -0.2022  0.1973
 3760TIP3    H132695   0.730   6.302  12.308  1.0858 -2.6797  3.0824
 3760TIP3    H232696   0.809   6.430  12.312  0.5845 -2.1272 -1.5763
 3761TIP3   OH232697   6.262   2.557   1.956 -0.0749 -0.5231 -0.4181
 3761TIP3    H132698   6.247   2.522   2.043 -0.6536 -0.5533 -0.5251
 3761TIP3    H232699   6.223   2.645   1.958  1.2133  0.0639 -0.2036
 3762TIP3   OH232700   0.717   0.955  12.782  0.2621 -0.3109  0.8332
 3762TIP3    H132701   0.730   0.870  12.739 -3.2026 -1.9083  2.7851
 3762TIP3    H232702   0.633   0.986  12.749  0.5702  1.4459  1.6554
 3763TIP3   OH232703   3.997   2.748   1.214 -0.2742  0.2718  0.0731
 3763TIP3    H132704   4.032   2.782   1.132 -0.0682  2.2708  0.9623
 3763TIP3    H232705   4.000   2.653   1.203  0.6513  0.4880 -1.8519
 3764TIP3   OH232706   0.942   5.839  13.267 -0.3377 -0.3331 -0.3992
 3764TIP3    H132707   0.924   5.904  13.335 -0.2118  0.9153 -1.5291
 3764TIP3    H232708   0.975   5.891  13.194 -0.5969 -1.6448 -1.4515
 3765TIP3   OH232709   5.949   1.607  12.712 -0.4336  0.8439  0.8085
 3765TIP3    H132710   5.855   1.593  12.721 -0.0582 -1.9181  0.7566
 3765TIP3    H232711   5.962   1.629  12.620 -1.0976  2.0906  0.9960
 3766TIP3   OH232712   6.117   0.728  13.693  0.2038  0.4116 -0.2985
 3766TIP3    H132713   6.092   0.816  13.723  0.5877  0.5804 -0.4673
 3766TIP3    H232714   6.127   0.737  13.598 -1.4225 -0.2193 -0.5461
 3767TIP3   OH232715   4.622   5.744   3.824  0.0442  0.0519 -0.3812
 3767TIP3    H132716   4.548   5.790   3.863 -0.0298  0.7246 -1.3043
 3767TIP3    H232717   4.679   5.814   3.792  0.2521 -0.4894 -1.1925
 3768TIP3   OH232718   2.944   1.376  12.608  0.1044 -0.5388 -0.3581
 3768TIP3    H132719   2.991   1.402  12.687 -0.5823 -0.3902  0.0104
 3768TIP3    H232720   2.945   1.280  12.610  1.6150 -0.5587 -1.0987
 3769TIP3   OH232721   6.288   6.095  11.760  0.2053 -0.3562  0.1089
 3769TIP3    H132722   6.323   6.020  11.712  2.4693  1.3920 -1.0654
 3769TIP3    H232723   6.335   6.171  11.724 -1.2867  1.5175  1.9688
 3770TIP3   OH232724   2.821   3.239  14.155  0.4801 -0.3788  0.1539
 3770TIP3    H132725   2.838   3.162  14.210 -0.0218 -0.7151 -0.1548
 3770TIP3    H232726   2.733   3.266  14.178 -0.9846 -2.4317 -2.7100
 3771TIP3   OH232727   4.496   5.113   5.516 -0.6190  0.3444 -0.1998
 3771TIP3    H132728   4.509   5.057   5.439 -0.6522 -1.5906  1.1705
 3771TIP3    H232729   4.579   5.109   5.563 -1.1698  0.0934  0.7723
 3772TIP3   OH232730   4.916   2.382   0.732 -0.1670 -0.2184  0.4145
 3772TIP3    H132731   4.870   2.456   0.692  0.4325 -0.6834 -1.1914
 3772TIP3    H232732   4.956   2.419   0.811  1.1197  1.4841 -0.9787
 3773TIP3   OH232733   0.781   6.529  13.146  0.6780 -0.0102  0.6540
 3773TIP3    H132734   0.778   6.444  13.191 -1.6329 -1.5293 -2.1180
 3773TIP3    H232735   0.702   6.574  13.176  0.5479  0.0637  0.2118
 3774TIP3   OH232736   1.749   5.856   4.447  0.2493  0.8156  0.4306
 3774TIP3    H132737   1.743   5.901   4.531  1.0070  1.4708  0.1483
 3774TIP3    H232738   1.763   5.764   4.470 -3.8968  0.2526  1.0190
 3775TIP3   OH232739   1.957   4.872  14.100  0.3540 -0.0941  0.7521
 3775TIP3    H132740   1.884   4.830  14.145 -0.1810 -1.5748 -1.4413
 3775TIP3    H232741   1.920   4.954  14.067  0.3680  0.3254  1.7536
 3776TIP3   OH232742   6.184   3.528  15.196 -0.3682 -0.2640  0.1889
 3776TIP3    H132743   6.145   3.599  15.247 -2.0731 -1.5194  0.6709
 3776TIP3    H232744   6.261   3.567  15.156 -1.8400  2.1364 -0.3818
 3777TIP3   OH232745   0.693   5.701  13.288  0.1435  0.4727  0.1091
 3777TIP3    H132746   0.741   5.679  13.368  1.1012 -0.1842 -0.6227
 3777TIP3    H232747   0.758   5.747  13.234  0.1615 -0.9424 -1.1394
 3778TIP3   OH232748   2.221   3.830   1.021  0.7209 -0.0506 -0.4619
 3778TIP3    H132749   2.225   3.736   1.004 -0.9890 -0.2066 -0.0802
 3778TIP3    H232750   2.310   3.854   1.044  1.4295 -1.3490 -1.7576
 3779TIP3   OH232751   0.023   2.295   6.293  0.2478  0.0532  0.7840
 3779TIP3    H132752  -0.036   2.350   6.344  2.0646  0.0298  2.9925
 3779TIP3    H232753   0.081   2.357   6.249  0.7901 -0.0197  1.3921
 3780TIP3   OH232754   1.602   2.939   1.518 -0.4510 -0.4466 -0.1666
 3780TIP3    H132755   1.630   2.948   1.427  2.8645  0.2613  0.8735
 3780TIP3    H232756   1.641   2.856   1.547 -0.5345 -0.1117  0.9234
 3781TIP3   OH232757   3.508   5.561  14.445  0.2297  0.5790  0.0873
 3781TIP3    H132758   3.564   5.528  14.514 -1.1760  0.7631  1.3436
 3781TIP3    H232759   3.544   5.524  14.364  1.9489  0.4663  0.8908
 3782TIP3   OH232760   3.363   2.309  13.610  0.4874 -0.0321  0.5606
 3782TIP3    H132761   3.358   2.305  13.705  1.9304 -0.9729  0.6142
 3782TIP3    H232762   3.407   2.228  13.585  0.2370  0.2650 -0.9006
 3783TIP3   OH232763   3.705   1.340  14.469  0.2263  0.0819  0.1186
 3783TIP3    H132764   3.610   1.350  14.473  0.2525  0.6698 -0.6717
 3783TIP3    H232765   3.740   1.422  14.503  0.4518  0.1478 -0.2708
 3784TIP3   OH232766   5.421   4.566  14.948 -0.9491 -0.3969  0.4451
 3784TIP3    H132767   5.463   4.498  15.001 -0.1234  0.6681  1.1960
 3784TIP3    H232768   5.373   4.619  15.011  0.3336  1.0955  0.1919
 3785TIP3   OH232769   6.243   2.070   4.209 -0.4520 -0.3127 -0.2165
 3785TIP3    H132770   6.235   2.103   4.119 -1.1573 -1.2032 -0.4834
 3785TIP3    H232771   6.236   1.974   4.200 -2.4636 -0.3059  1.0006
 3786TIP3   OH232772   4.326   1.565   3.355  0.6714  0.2045  0.6190
 3786TIP3    H132773   4.374   1.591   3.277  1.1631  0.4246  0.9891
 3786TIP3    H232774   4.285   1.646   3.386  0.1862  0.0484  0.3918
 3787TIP3   OH232775   2.338   6.341  14.627  0.1064  0.2634 -0.4140
 3787TIP3    H132776   2.421   6.298  14.643 -1.1845 -1.8158  0.8609
 3787TIP3    H232777   2.277   6.270  14.606 -1.7213  1.5925  0.2793
 3788TIP3   OH232778   1.570   0.373   0.234  0.0463 -0.2507 -0.3940
 3788TIP3    H132779   1.640   0.344   0.293  0.3571  0.2356 -0.5222
 3788TIP3    H232780   1.521   0.293   0.215 -0.4048 -0.3234  0.9712
 3789TIP3   OH232781   2.093   0.381   5.089 -0.0472  0.1463  0.1173
 3789TIP3    H132782   2.082   0.476   5.097 -2.2544 -0.2999  3.6743
 3789TIP3    H232783   2.184   0.365   5.110  0.7550  1.5610 -2.0720
 3790TIP3   OH232784   5.795   0.245  11.379 -0.6744  0.1381  0.2643
 3790TIP3    H132785   5.867   0.233  11.317 -0.9506 -1.5769  0.2605
 3790TIP3    H232786   5.826   0.312  11.440  0.0776  0.9481 -0.9784
 3791TIP3   OH232787   2.512   3.430   2.231  0.5310 -0.2974  0.1905
 3791TIP3    H132788   2.418   3.436   2.218  0.5180 -1.3916 -0.3176
 3791TIP3    H232789   2.534   3.503   2.289 -0.4767  0.5517 -0.4886
 3792TIP3   OH232790   0.931   1.969  13.937  0.9704  0.1468 -0.0823
 3792TIP3    H132791   1.003   2.010  13.889  0.7939  0.0057 -0.4655
 3792TIP3    H232792   0.924   1.882  13.899  0.6535  0.1294  0.0183
 3793TIP3   OH232793   1.927   4.981   3.664 -0.1646 -0.4583 -0.6952
 3793TIP3    H132794   1.875   5.025   3.597  0.0997  0.7371 -0.1201
 3793TIP3    H232795   2.016   4.980   3.630 -0.1261 -0.3310 -0.5982
 3794TIP3   OH232796   3.380   5.095  16.124 -0.5430  0.5281  0.7811
 3794TIP3    H132797   3.396   5.034  16.051 -0.8311  2.3402 -0.8295
 3794TIP3    H232798   3.301   5.061  16.166 -0.4076 -0.4976  0.2317
 3795TIP3   OH232799   2.327   0.727   5.797 -0.0761  0.3672  0.3529
 3795TIP3    H132800   2.367   0.809   5.767 -1.1967  1.6189  2.1298
 3795TIP3    H232801   2.304   0.745   5.888 -0.4513 -1.9092  0.7234
 3796TIP3   OH232802   6.019   6.104   1.213 -0.3195 -0.0036 -0.6404
 3796TIP3    H132803   5.973   6.186   1.194 -2.1058 -1.3562 -2.4192
 3796TIP3    H232804   5.950   6.043   1.238  1.1886 -0.4933  2.6602
 3797TIP3   OH232805   1.342   4.392  15.863 -0.7838 -0.3774  0.0832
 3797TIP3    H132806   1.295   4.348  15.792 -1.1851  0.9875 -0.5280
 3797TIP3    H232807   1.307   4.353  15.943 -0.9919 -1.2814 -0.4380
 3798TIP3   OH232808   4.986   4.811  10.801 -0.5482  0.2655 -0.2819
 3798TIP3    H132809   5.031   4.842  10.723 -1.7507  0.8873 -0.7340
 3798TIP3    H232810   4.979   4.888  10.857 -2.1406  0.4855 -0.7473
 3799TIP3   OH232811   3.211   6.106   4.812 -0.4149  0.5920 -0.0565
 3799TIP3    H132812   3.223   6.020   4.852 -0.5560  0.4836 -0.2492
 3799TIP3    H232813   3.152   6.091   4.739 -0.0944  0.7773 -0.3547
 3800TIP3   OH232814   3.988   6.389  17.218 -0.0031  0.6825 -0.6816
 3800TIP3    H132815   3.920   6.402  17.284  1.2071  0.7319  0.5744
 3800TIP3    H232816   3.995   6.473  17.173  0.6154  1.2797  0.5236
 3801TIP3   OH232817   4.028   1.727   0.085  0.2915  0.2262 -0.5735
 3801TIP3    H132818   4.010   1.812   0.125  0.5520  0.1009 -0.1857
 3801TIP3    H232819   3.964   1.720   0.014 -0.0484  0.5372 -0.3026
 3802TIP3   OH232820   1.889   0.215  12.760  0.1992  0.4990  0.4010
 3802TIP3    H132821   1.966   0.201  12.816  0.1833  1.0748  0.5687
 3802TIP3    H232822   1.925   0.215  12.671  0.1925 -0.6383  0.3915
 3803TIP3   OH232823   4.446   5.655  12.410  0.1400  0.0220  0.7784
 3803TIP3    H132824   4.433   5.723  12.344  0.9910  0.1897  0.7822
 3803TIP3    H232825   4.398   5.579  12.376 -1.0059  0.6768  0.8836
 3804TIP3   OH232826   2.646   3.536   5.368 -0.3517  0.3191 -0.4167
 3804TIP3    H132827   2.730   3.559   5.327  0.0753  0.6867  0.6393
 3804TIP3    H232828   2.608   3.620   5.392 -0.5897  0.1059 -0.0525
 3805TIP3   OH232829   4.902   2.789   4.798 -0.3678 -0.2255 -0.3820
 3805TIP3    H132830   4.912   2.874   4.841 -0.6758  0.5676 -1.8604
 3805TIP3    H232831   4.815   2.792   4.759 -0.2468 -1.0956 -0.7221
 3806TIP3   OH232832   4.731   5.440   6.100 -0.2039  0.1530  0.2278
 3806TIP3    H132833   4.712   5.507   6.165  0.4680  1.1728 -0.6039
 3806TIP3    H232834   4.686   5.362   6.132 -0.0558  0.6851  1.7982
 3807TIP3   OH232835   3.848   2.222  13.433  0.3386 -0.2801  0.0272
 3807TIP3    H132836   3.904   2.288  13.392  1.0181 -0.4372  0.6697
 3807TIP3    H232837   3.811   2.172  13.360 -1.2067  1.6251 -0.5141
 3808TIP3   OH232838   4.504   6.355   0.119  0.0072  0.4220 -0.3517
 3808TIP3    H132839   4.535   6.427   0.064 -0.2494 -0.8175 -2.1561
 3808TIP3    H232840   4.414   6.378   0.142 -0.8579 -0.4007 -2.8303
 3809TIP3   OH232841   5.789   0.884  13.447 -0.1870  0.2514 -0.0651
 3809TIP3    H132842   5.720   0.909  13.385 -0.4615  0.6363  0.3881
 3809TIP3    H232843   5.870   0.892  13.398 -0.5086 -0.7109 -0.7657
 3810TIP3   OH232844   6.636   0.914  12.994  0.3061 -0.3500  0.6699
 3810TIP3    H132845   6.578   0.899  12.919 -0.5214  2.4233  0.7069
 3810TIP3    H232846   6.584   0.886  13.069 -1.0391  2.0437  0.6917
 3811TIP3   OH232847   2.574   1.608   0.974 -0.1376 -0.5757  0.1217
 3811TIP3    H132848   2.536   1.599   1.062  0.0326  1.1051  0.3934
 3811TIP3    H232849   2.650   1.549   0.974 -0.1396 -0.5864  1.1171
 3812TIP3   OH232850   5.201   6.162   1.713  0.4328 -0.3259 -0.1169
 3812TIP3    H132851   5.112   6.163   1.677 -0.2043 -0.2922  1.4359
 3812TIP3    H232852   5.255   6.133   1.640 -0.7191  0.5605 -1.3683
 3813TIP3   OH232853   2.989   1.114  12.572  0.5142 -0.0189 -0.4803
 3813TIP3    H132854   3.065   1.098  12.628  0.4801 -0.4163 -0.5479
 3813TIP3    H232855   3.025   1.139  12.487  0.5733  2.2243  0.1738
 3814TIP3   OH232856   1.240   5.208   5.525  0.0097  0.5863  0.0986
 3814TIP3    H132857   1.332   5.207   5.551  0.0982 -1.7626 -0.2580
 3814TIP3    H232858   1.198   5.265   5.590  1.6594  1.5378  0.3709
 3815TIP3   OH232859   6.785   2.530  13.655 -0.3997 -0.2163 -0.2386
 3815TIP3    H132860   6.863   2.582  13.674 -1.5400  1.7565 -0.8753
 3815TIP3    H232861   6.739   2.525  13.739 -0.7157  0.5409 -0.3620
 3816TIP3   OH232862   0.297   1.008  13.491  0.5399  1.2316  0.2784
 3816TIP3    H132863   0.218   0.984  13.539 -0.7143 -1.6184 -3.0285
 3816TIP3    H232864   0.265   1.052  13.412  2.2897  0.7285 -0.7481
 3817TIP3   OH232865   0.627   6.611   3.858 -0.4187 -0.4672  0.1362
 3817TIP3    H132866   0.602   6.703   3.866 -2.5484 -0.9628 -0.7087
 3817TIP3    H232867   0.710   6.613   3.811 -0.0686  1.0476  0.7836
 3818TIP3   OH232868   5.821   0.630  11.251  0.0678  0.3822 -0.2007
 3818TIP3    H132869   5.788   0.577  11.178 -2.5042 -0.2389  1.3624
 3818TIP3    H232870   5.862   0.567  11.310  1.2500  0.7560 -0.6160
 3819TIP3   OH232871   2.344   3.983   1.416  0.2779 -0.5362  0.2962
 3819TIP3    H132872   2.355   3.961   1.324 -1.5379 -0.1517 -0.0259
 3819TIP3    H232873   2.363   4.077   1.420 -3.0033  0.2233 -0.3358
 3820TIP3   OH232874   1.769   4.072   3.024  0.2864  0.0731  0.5913
 3820TIP3    H132875   1.692   4.119   3.057  0.4757 -0.3762  1.6792
 3820TIP3    H232876   1.833   4.078   3.094  0.9179 -0.3545  0.0553
 3821TIP3   OH232877   0.630   5.016   1.638 -0.5751 -0.2939 -0.2682
 3821TIP3    H132878   0.692   5.040   1.569 -0.8288  1.2986  0.0409
 3821TIP3    H232879   0.560   4.970   1.593 -0.3686  0.0751 -0.9652
 3822TIP3   OH232880   0.787   2.470   6.440 -0.0092  0.1060 -0.1594
 3822TIP3    H132881   0.881   2.484   6.433 -0.0383  0.8147  0.7060
 3822TIP3    H232882   0.775   2.428   6.525 -0.7639  3.1714  1.3457
 3823TIP3   OH232883   0.962   6.133   3.148 -0.5969 -0.0521 -0.1618
 3823TIP3    H132884   0.885   6.139   3.092 -1.2610 -1.5854  0.5631
 3823TIP3    H232885   0.951   6.202   3.213 -1.9705 -0.9999  0.6495
 3824TIP3   OH232886   3.939   2.601   5.338 -0.6275 -0.4429  0.1745
 3824TIP3    H132887   3.938   2.637   5.426  0.4540 -2.6493  1.1221
 3824TIP3    H232888   3.851   2.619   5.304 -0.9017  0.8362  1.5046
 3825TIP3   OH232889   4.952   1.559  13.664 -0.1915  0.4226  0.1948
 3825TIP3    H132890   5.039   1.589  13.690 -1.3980  1.4708  3.2307
 3825TIP3    H232891   4.948   1.468  13.695 -0.7105  0.8700  1.4825
 3826TIP3   OH232892   1.850   3.579   2.764  0.2537 -0.3172 -0.4640
 3826TIP3    H132893   1.814   3.496   2.733  1.0142 -0.3561 -1.2709
 3826TIP3    H232894   1.934   3.556   2.803  0.8943  0.1671 -1.5133
 3827TIP3   OH232895   1.001   4.675   0.862  0.1320 -0.4137 -0.0832
 3827TIP3    H132896   1.041   4.653   0.947 -0.5514 -1.8002 -0.1174
 3827TIP3    H232897   1.055   4.747   0.829  1.7351 -1.2861  0.5455
 3828TIP3   OH232898   4.886   0.647  16.651 -0.2625 -0.2811 -0.3292
 3828TIP3    H132899   4.958   0.651  16.714 -1.9160  1.9385  1.5227
 3828TIP3    H232900   4.902   0.721  16.593 -1.9289  1.2977  1.1565
 3829TIP3   OH232901   5.448   2.709   6.296 -0.1499  0.5632  0.0261
 3829TIP3    H132902   5.497   2.670   6.224  0.5568  0.8527  0.3396
 3829TIP3    H232903   5.357   2.705   6.269 -0.0354 -0.8556 -0.1546
 3830TIP3   OH232904   3.099   3.340  14.206 -0.6043 -0.0661 -0.1979
 3830TIP3    H132905   3.141   3.365  14.289  0.5727  0.1432 -0.8348
 3830TIP3    H232906   3.008   3.365  14.217 -0.6575 -0.8892  1.3816
 3831TIP3   OH232907   2.780   3.100  11.003  0.1484  0.5140  0.3506
 3831TIP3    H132908   2.794   3.053  10.921 -0.4130  1.2308 -0.1505
 3831TIP3    H232909   2.687   3.119  11.005  0.2992  1.2244  0.7672
 3832TIP3   OH232910   2.773   0.444  15.580 -0.4381 -0.2158 -0.0208
 3832TIP3    H132911   2.766   0.365  15.527 -2.6886 -0.9882  1.3674
 3832TIP3    H232912   2.775   0.516  15.516 -0.3612 -1.2815 -1.2282
 3833TIP3   OH232913   2.877   2.873  16.187  0.2783 -0.1274 -0.0788
 3833TIP3    H132914   2.931   2.933  16.241  0.1183 -0.2064  0.1725
 3833TIP3    H232915   2.830   2.931  16.127  0.0701  0.0043  0.2114
 3834TIP3   OH232916   6.564   3.260   3.578 -0.3015 -0.4581 -0.5495
 3834TIP3    H132917   6.619   3.254   3.500  0.2251 -2.6524 -0.0356
 3834TIP3    H232918   6.622   3.233   3.650 -0.7054  1.7898  0.6542
 3835TIP3   OH232919   0.220   4.355   2.476  0.3921  0.1489  0.1268
 3835TIP3    H132920   0.134   4.342   2.516  0.0971 -1.3141 -0.9406
 3835TIP3    H232921   0.282   4.337   2.547 -0.1268 -2.3131  0.0233
 3836TIP3   OH232922   6.303   0.176   5.322  0.1580 -0.2930  0.1164
 3836TIP3    H132923   6.241   0.123   5.372 -1.5754 -0.0436 -1.6908
 3836TIP3    H232924   6.272   0.266   5.333 -0.2758 -0.2413 -1.4024
 3837TIP3   OH232925   3.100   4.296   4.644 -0.1921 -0.0078 -0.2397
 3837TIP3    H132926   3.014   4.303   4.603  0.1304 -0.4334 -0.9837
 3837TIP3    H232927   3.081   4.264   4.733 -0.8005 -0.0800 -0.3933
 3838TIP3   OH232928   3.165   3.538  13.351 -0.4084 -0.0527 -0.2871
 3838TIP3    H132929   3.102   3.479  13.391  0.8448 -2.5218 -1.8569
 3838TIP3    H232930   3.113   3.592  13.292 -1.3092 -0.8555 -0.2321
 3839TIP3   OH232931   1.328   2.093   6.015  0.2511  0.5027 -0.4072
 3839TIP3    H132932   1.252   2.035   6.021  0.5468  0.2602  1.2145
 3839TIP3    H232933   1.378   2.059   5.940  0.6545 -1.6539  0.7845
 3840TIP3   OH232934   1.218   1.510   4.184 -0.1074 -0.2921  0.6021
 3840TIP3    H132935   1.293   1.526   4.128 -1.3441  1.8375 -0.5008
 3840TIP3    H232936   1.199   1.594   4.225 -1.9795 -0.7416  0.7379
 3841TIP3   OH232937   5.181   4.953  12.291  0.7836 -0.6389 -0.0747
 3841TIP3    H132938   5.229   5.035  12.304 -1.2136  0.3132  1.5057
 3841TIP3    H232939   5.152   4.957  12.200 -1.0947  1.4290  0.5788
 3842TIP3   OH232940   1.805   5.073  16.341  0.6874  0.3903  0.8735
 3842TIP3    H132941   1.796   5.043  16.431 -1.7862 -2.1037 -0.1310
 3842TIP3    H232942   1.867   5.012  16.302  1.3942  1.1849  0.7301
 3843TIP3   OH232943   6.238   1.118   6.029 -0.1813  0.2831 -0.4238
 3843TIP3    H132944   6.236   1.210   6.003 -0.2525  0.4566  0.1885
 3843TIP3    H232945   6.331   1.094   6.021 -0.0223  0.6510  0.2362
 3844TIP3   OH232946   5.759   2.437   5.183 -0.1038  0.5547 -0.3298
 3844TIP3    H132947   5.741   2.343   5.173  1.5954  0.2018 -0.1308
 3844TIP3    H232948   5.783   2.447   5.275 -0.2672  1.1872 -0.3566
 3845TIP3   OH232949   6.041   4.266  12.823 -0.0002 -0.2067 -0.4290
 3845TIP3    H132950   5.965   4.239  12.771  0.3239 -0.8957 -0.5464
 3845TIP3    H232951   6.068   4.349  12.783  0.0224 -0.5457 -1.1344
 3846TIP3   OH232952   2.378   5.170   0.124 -0.0429  0.3737  0.1994
 3846TIP3    H132953   2.320   5.125   0.063 -0.2065  0.1563  0.5109
 3846TIP3    H232954   2.416   5.100   0.177 -0.5302  0.6201  0.8872
 3847TIP3   OH232955   2.590   5.571  12.533 -0.5391 -0.1462  0.7537
 3847TIP3    H132956   2.563   5.660  12.556  0.0405  0.2300  0.0016
 3847TIP3    H232957   2.674   5.582  12.489 -1.7925 -0.8028 -1.9164
 3848TIP3   OH232958   4.019   4.564  10.945 -0.5192 -0.2516 -0.6777
 3848TIP3    H132959   4.064   4.524  10.871 -0.0439 -1.4185  0.2150
 3848TIP3    H232960   4.087   4.618  10.987 -0.0541 -1.6155  0.3760
 3849TIP3   OH232961   2.875   1.482  16.480 -0.1939 -0.0261  0.1555
 3849TIP3    H132962   2.871   1.513  16.570 -0.6952 -0.6121  0.3444
 3849TIP3    H232963   2.801   1.526  16.437  0.6317  1.0136 -0.2183
 3850TIP3   OH232964   1.122   5.175  12.705  0.0537 -0.2046 -0.5933
 3850TIP3    H132965   1.060   5.156  12.776  1.7441  1.0377  1.2758
 3850TIP3    H232966   1.070   5.219  12.639 -1.4959 -1.0900  0.0004
 3851TIP3   OH232967   5.413   6.433   2.212  0.1088  0.0793  0.3043
 3851TIP3    H132968   5.470   6.480   2.272  0.9075  2.3283 -2.0748
 3851TIP3    H232969   5.426   6.478   2.128 -0.4826 -3.3085 -1.6843
 3852TIP3   OH232970   4.611   2.064   1.681  1.0139 -0.8572 -0.0406
 3852TIP3    H132971   4.593   2.148   1.723  2.3659  0.6620 -2.4244
 3852TIP3    H232972   4.525   2.023   1.674  0.3939  0.1180  1.5516
 3853TIP3   OH232973   1.799   5.881  11.573  0.9658  0.1305 -0.6118
 3853TIP3    H132974   1.801   5.976  11.566 -0.8843  0.0890 -2.5876
 3853TIP3    H232975   1.802   5.851  11.482 -0.1294 -1.6344 -0.0911
 3854TIP3   OH232976   4.317   5.121  14.241  0.0309  0.5554  0.2501
 3854TIP3    H132977   4.252   5.113  14.312  0.4671 -0.0458  0.5819
 3854TIP3    H232978   4.328   5.032  14.208  0.0362  0.7959 -0.3932
 3855TIP3   OH232979   2.188   4.324   5.111  0.3080 -0.1143 -0.7044
 3855TIP3    H132980   2.209   4.387   5.180  0.1369 -0.0830 -0.6784
 3855TIP3    H232981   2.253   4.339   5.043  1.6890 -1.4506  0.2767
 3856TIP3   OH232982   4.300   5.378   4.624  0.5165 -0.6313 -0.3485
 3856TIP3    H132983   4.327   5.439   4.555  3.0998 -0.4674  0.7380
 3856TIP3    H232984   4.329   5.292   4.592  0.1603 -0.7910 -0.2435
 3857TIP3   OH232985   1.033   5.847   5.687 -0.5203 -0.3214 -0.2313
 3857TIP3    H132986   0.995   5.803   5.763  0.3610 -1.5151 -0.4651
 3857TIP3    H232987   1.123   5.816   5.685 -0.9989 -1.6458 -2.7670
 3858TIP3   OH232988   3.161   1.960   3.762  0.1904  0.4882  0.0405
 3858TIP3    H132989   3.211   1.885   3.730  1.2064  1.3922 -0.5541
 3858TIP3    H232990   3.092   1.972   3.696  0.6536  0.7015 -0.4117
 3859TIP3   OH232991   1.902   4.517   2.439 -0.0295 -0.3517  0.1096
 3859TIP3    H132992   1.809   4.497   2.425  0.7502 -2.4592 -2.3665
 3859TIP3    H232993   1.940   4.436   2.471  1.1536  0.2338  0.2165
 3860TIP3   OH232994   5.996   3.011  13.674  0.1244 -0.6477 -0.4887
 3860TIP3    H132995   5.936   3.035  13.604  1.3225 -0.2928 -1.4128
 3860TIP3    H232996   5.960   3.051  13.753 -0.2532  0.4722 -1.2303
 3861TIP3   OH232997   1.862   6.704  16.673  0.1162  0.0803  0.4858
 3861TIP3    H132998   1.783   6.742  16.634 -0.6704 -0.9287  1.0871
 3861TIP3    H232999   1.928   6.773  16.664 -0.9725  1.1366  0.4524
 3862TIP3   OH233000   0.569   6.103   3.449  0.9779 -0.3778 -0.5501
 3862TIP3    H133001   0.569   6.013   3.481  0.4513  0.2269  1.2678
 3862TIP3    H233002   0.481   6.116   3.414 -0.0294  0.3788  2.1387
 3863TIP3   OH233003   2.425   2.884  16.476  0.7488 -0.5176 -0.1445
 3863TIP3    H133004   2.483   2.918  16.543  1.5566  1.3507 -1.7722
 3863TIP3    H233005   2.357   2.838  16.525  2.4359 -0.9468  1.8557
 3864TIP3   OH233006   6.532   0.238   5.937  0.6376 -0.6141 -0.2649
 3864TIP3    H133007   6.494   0.283   6.013  0.1246  0.7470 -1.2891
 3864TIP3    H233008   6.460   0.186   5.901  0.2302  0.5025 -1.1101
 3865TIP3   OH233009   3.625   6.071  12.008 -0.0893 -0.0426 -0.0836
 3865TIP3    H133010   3.630   6.035  11.919  0.3053  0.2475 -0.1789
 3865TIP3    H233011   3.673   6.009  12.062  2.3334  1.3564 -0.5677
 3866TIP3   OH233012   3.903   3.756   1.401 -0.0049 -0.1272 -0.3219
 3866TIP3    H133013   3.818   3.736   1.362 -0.1005  2.2829 -1.4116
 3866TIP3    H233014   3.883   3.785   1.490 -0.3196  0.2592 -0.5169
 3867TIP3   OH233015   4.206   5.612  14.207  0.4125 -0.4155  0.2520
 3867TIP3    H133016   4.271   5.542  14.207  0.1483 -0.6755 -1.7127
 3867TIP3    H233017   4.200   5.640  14.116 -0.7905  0.9609  0.7293
 3868TIP3   OH233018   6.026   0.433  13.637 -0.2344  0.0193 -0.0567
 3868TIP3    H133019   5.991   0.458  13.551 -1.8571  0.4123  0.7104
 3868TIP3    H233020   6.052   0.515  13.678  0.3158 -0.1495 -0.0536
 3869TIP3   OH233021   6.641   3.316  11.545  0.2316  1.2721 -0.3964
 3869TIP3    H133022   6.656   3.270  11.628 -0.6089 -0.5993 -1.2483
 3869TIP3    H233023   6.592   3.253  11.492  2.5895  1.6157 -3.0940
 3870TIP3   OH233024   2.143   6.508  11.873 -0.5058 -0.0099  0.4020
 3870TIP3    H133025   2.056   6.468  11.871  0.0976 -1.3274  0.0936
 3870TIP3    H233026   2.156   6.541  11.784 -0.3236 -0.6078  0.2076
 3871TIP3   OH233027   2.299   6.024   6.015  0.1542  0.2121 -0.4614
 3871TIP3    H133028   2.361   5.966   5.969  0.3686  0.8557 -0.9892
 3871TIP3    H233029   2.294   5.987   6.103  0.6225 -0.3643 -0.6673
 3872TIP3   OH233030   3.644   4.748  11.386 -0.3816 -0.2167 -0.1537
 3872TIP3    H133031   3.647   4.655  11.409  0.4161  0.0600  0.9243
 3872TIP3    H233032   3.684   4.752  11.299  2.5641 -0.5173  1.1180
 3873TIP3   OH233033   6.663   5.307   5.700 -0.3481 -0.2426  1.0034
 3873TIP3    H133034   6.674   5.400   5.676  0.8918 -0.7753 -0.5907
 3873TIP3    H233035   6.726   5.293   5.771 -1.4889  0.4514  2.1775
 3874TIP3   OH233036   0.508   5.932   1.271 -0.5170  0.5386 -0.5549
 3874TIP3    H133037   0.516   6.007   1.211  0.6185  2.9488  2.4565
 3874TIP3    H233038   0.420   5.942   1.309 -0.1657  0.6328  0.2302
 3875TIP3   OH233039   2.677   6.068  10.587 -0.0851  0.2953 -0.0553
 3875TIP3    H133040   2.693   6.093  10.678  0.2960  2.4159 -0.6750
 3875TIP3    H233041   2.675   5.972  10.588 -0.5728  0.3092  2.2546
 3876TIP3   OH233042   4.115   0.791  15.263  0.5992 -0.1560 -0.0607
 3876TIP3    H133043   4.072   0.850  15.325  0.3978 -0.5553  0.1836
 3876TIP3    H233044   4.133   0.845  15.187  1.9513  0.6634  0.8200
 3877TIP3   OH233045   4.384   0.091   1.449  0.0907  0.2810 -0.3182
 3877TIP3    H133046   4.421   0.176   1.425 -0.0180  0.6410  0.7858
 3877TIP3    H233047   4.432   0.065   1.527 -0.9221  0.0346  0.2271
 3878TIP3   OH233048   4.574   6.403   2.988  0.2009  0.1631 -0.2258
 3878TIP3    H133049   4.667   6.380   2.978  0.4571  0.9872  0.1485
 3878TIP3    H233050   4.535   6.385   2.903  0.6580 -0.4281 -0.3108
 3879TIP3   OH233051   5.393   2.967   5.931 -0.6429 -0.0456  0.0811
 3879TIP3    H133052   5.466   2.904   5.936 -1.0654 -0.6219 -0.9448
 3879TIP3    H233053   5.363   2.975   6.021 -0.5688 -1.3085  0.2367
 3880TIP3   OH233054   3.552   1.942   5.706  0.3061  0.4772  0.2442
 3880TIP3    H133055   3.503   1.894   5.640  0.8672  0.1181  0.0801
 3880TIP3    H233056   3.496   1.941   5.783  0.8709 -1.5776  0.6389
 3881TIP3   OH233057   5.859   5.537   0.119 -0.0958  0.2770 -0.0908
 3881TIP3    H133058   5.930   5.522   0.182  0.0503  0.3499 -0.2395
 3881TIP3    H233059   5.891   5.608   0.064 -0.7641  1.0946  0.5745
 3882TIP3   OH233060   4.743   0.229   2.342  0.2097 -0.0418  0.1226
 3882TIP3    H133061   4.767   0.161   2.279  0.2560  1.0274 -1.0297
 3882TIP3    H233062   4.821   0.283   2.350 -0.9943  2.0769 -1.8649
 3883TIP3   OH233063   5.899   4.218  16.124 -0.0483  0.3795  0.0276
 3883TIP3    H133064   5.955   4.173  16.186  0.1063  0.6087  0.0569
 3883TIP3    H233065   5.821   4.243  16.174  0.4720  1.3586  0.3555
 3884TIP3   OH233066   6.328   4.921   2.016  0.2212  0.0101  0.5174
 3884TIP3    H133067   6.324   4.892   2.107 -1.0044  0.6529  0.6844
 3884TIP3    H233068   6.239   4.910   1.984  0.5838  0.0717 -0.5179
 3885TIP3   OH233069   4.187   6.653   3.976  0.4306  0.6000 -0.0311
 3885TIP3    H133070   4.097   6.656   4.009  0.6196 -0.9564  0.7056
 3885TIP3    H233071   4.207   6.559   3.971  0.5372  0.7814 -4.3439
 3886TIP3   OH233072   0.894   1.416   1.758  0.7885  0.4298  0.3481
 3886TIP3    H133073   0.946   1.339   1.734 -0.2466 -0.2004  0.1012
 3886TIP3    H233074   0.959   1.482   1.782  1.6797 -0.6038  0.8232
 3887TIP3   OH233075   6.464   0.211  11.326 -0.5987 -0.7659 -0.3068
 3887TIP3    H133076   6.432   0.294  11.360  0.7319 -0.3771  0.0197
 3887TIP3    H233077   6.424   0.145  11.384 -2.3198 -0.4364 -1.0750
 3888TIP3   OH233078   2.927   1.162  10.790 -0.2187  0.4125  0.2668
 3888TIP3    H133079   2.942   1.197  10.702  0.5639  0.5951  0.4713
 3888TIP3    H233080   2.957   1.232  10.849 -2.1486  0.9288  0.6992
 3889TIP3   OH233081   2.170   2.857  15.665 -0.5223 -0.1123 -1.0930
 3889TIP3    H133082   2.096   2.848  15.725  0.1079 -1.3475 -0.4885
 3889TIP3    H233083   2.157   2.942  15.623 -1.5600  0.2698 -0.0085
 3890TIP3   OH233084   2.380   4.094  13.801  0.6463 -0.3093  1.0122
 3890TIP3    H133085   2.319   4.049  13.743  1.6493 -0.0758 -0.2564
 3890TIP3    H233086   2.390   4.035  13.876 -0.8166 -0.5231  1.0575
 3891TIP3   OH233087   3.598   0.973  16.424 -0.2526 -0.3769 -0.1881
 3891TIP3    H133088   3.688   0.950  16.404 -0.2161  0.1283 -0.6281
 3891TIP3    H233089   3.604   1.031  16.500 -0.0030  1.5970 -1.6644
 3892TIP3   OH233090   3.414   4.362   3.968 -0.0511 -0.3067  0.5281
 3892TIP3    H133091   3.411   4.270   3.993  0.7239  0.0933  2.1365
 3892TIP3    H233092   3.488   4.369   3.907 -1.4635 -1.1364 -1.3267
 3893TIP3   OH233093   2.698   1.893   0.725 -0.3066  0.2607 -0.0870
 3893TIP3    H133094   2.709   1.805   0.689  0.6196  0.9996 -1.6620
 3893TIP3    H233095   2.715   1.883   0.819 -5.8863 -2.3155  0.8616
 3894TIP3   OH233096   1.136   0.422  16.343  0.9927  0.3036 -0.2800
 3894TIP3    H133097   1.113   0.448  16.432  1.4589  1.9866 -0.6287
 3894TIP3    H233098   1.189   0.343  16.354  0.0332 -0.2061  0.8517
 3895TIP3   OH233099   5.457   4.170  12.032 -0.2113 -0.4756  0.0126
 3895TIP3    H133100   5.365   4.164  12.058 -0.1326  0.2114  0.4648
 3895TIP3    H233101   5.483   4.259  12.057  0.3614 -0.4096 -0.8179
 3896TIP3   OH233102   2.246   1.619   0.875 -0.7997  0.4536 -1.0319
 3896TIP3    H133103   2.287   1.582   0.953 -0.2502 -1.1702 -2.0688
 3896TIP3    H233104   2.245   1.547   0.812 -2.7432  1.2644 -1.9666
 3897TIP3   OH233105   0.503   1.800  15.707  0.0674  0.1123 -0.0844
 3897TIP3    H133106   0.538   1.841  15.786  0.2245  0.7959 -0.5025
 3897TIP3    H233107   0.570   1.736  15.681  0.1080  0.0321  0.2230
 3898TIP3   OH233108   0.522   4.307   2.373  0.2424  0.5025  0.5195
 3898TIP3    H133109   0.528   4.401   2.388  0.3363  0.6351 -0.3478
 3898TIP3    H233110   0.430   4.292   2.351  0.8880  0.8947 -2.6662
 3899TIP3   OH233111   4.608   4.214  15.533 -0.3003 -0.6311 -0.1693
 3899TIP3    H133112   4.682   4.199  15.474 -0.3824 -0.4745 -0.3136
 3899TIP3    H233113   4.605   4.309  15.544 -0.2771 -0.6601  0.1009
 3900TIP3   OH233114   2.130   3.405   6.793  0.4548  0.3836 -0.4745
 3900TIP3    H133115   2.171   3.491   6.786 -0.7127  1.1759  2.0313
 3900TIP3    H233116   2.036   3.423   6.787  0.2507 -0.8817 -1.2522
 3901TIP3   OH233117   2.516   0.739   5.140  0.0120  0.7941  0.1278
 3901TIP3    H133118   2.560   0.815   5.178  0.4593  0.9597 -0.6894
 3901TIP3    H233119   2.558   0.728   5.054 -2.1442  1.4874 -1.0404
 3902TIP3   OH233120   4.788   5.502  12.953 -0.6015 -0.4122  0.0088
 3902TIP3    H133121   4.865   5.541  12.993 -0.8401 -0.2883  0.3451
 3902TIP3    H233122   4.727   5.574  12.942 -0.7556 -0.5506 -0.0533
 3903TIP3   OH233123   0.859   1.084  13.237 -0.4700  0.2789  0.2008
 3903TIP3    H133124   0.828   1.020  13.174  0.0494 -0.2891  0.5188
 3903TIP3    H233125   0.896   1.032  13.309  1.5956  0.9225 -0.3653
 3904TIP3   OH233126   2.743   4.563  15.903 -0.2185 -0.4243 -0.3305
 3904TIP3    H133127   2.755   4.468  15.909 -1.3396 -0.5868 -0.5754
 3904TIP3    H233128   2.798   4.598  15.973 -0.8397 -1.3409  0.6364
 3905TIP3   OH233129   4.557   1.638   2.594 -0.5090  0.2061 -0.3343
 3905TIP3    H133130   4.506   1.686   2.659 -0.1182  0.0428  0.0930
 3905TIP3    H233131   4.574   1.702   2.525 -2.6033 -0.1598 -1.2072
 3906TIP3   OH233132   1.830   4.515  15.814 -0.2035 -0.6709  0.5198
 3906TIP3    H133133   1.896   4.527  15.745 -0.0969 -3.8226  0.0351
 3906TIP3    H233134   1.837   4.423  15.839 -1.6778 -0.0755  3.3119
 3907TIP3   OH233135   0.044   3.839  17.210  0.0900  0.0140  0.1730
 3907TIP3    H133136   0.076   3.841  17.300  2.8250 -2.2847 -0.6668
 3907TIP3    H233137   0.094   3.769  17.168 -1.1656  0.9853 -3.1215
 3908TIP3   OH233138   5.893   3.217  12.494 -0.2719  0.0619  0.3804
 3908TIP3    H133139   5.988   3.218  12.484 -0.3261 -0.1097 -0.1789
 3908TIP3    H233140   5.867   3.127  12.473 -0.7159  0.5052 -1.0597
 3909TIP3   OH233141   2.421   6.713  12.327 -0.2647  0.6283 -0.4459
 3909TIP3    H133142   2.471   6.741  12.250  0.4995  0.3400 -0.0504
 3909TIP3    H233143   2.458   6.628  12.350  0.3942  1.3046  1.0413
 3910TIP3   OH233144   3.439   6.314   6.416  0.5820 -0.4941 -0.6117
 3910TIP3    H133145   3.396   6.237   6.454  2.2523 -1.2450 -0.2244
 3910TIP3    H233146   3.488   6.352   6.489  1.6368 -0.3992 -1.3623
 3911TIP3   OH233147   0.432   3.138   1.978 -0.0789 -0.4926  0.1833
 3911TIP3    H133148   0.382   3.218   1.993 -0.0488 -0.5089  0.3738
 3911TIP3    H233149   0.518   3.167   1.950 -0.0906 -0.4590  0.1830
 3912TIP3   OH233150   3.506   6.761  14.970 -0.0538 -0.0975  0.5451
 3912TIP3    H133151   3.587   6.811  14.957 -0.0577  0.6969  3.2448
 3912TIP3    H233152   3.445   6.797  14.906  0.8690  1.2591  0.4021
 3913TIP3   OH233153   6.782   1.872  12.225  0.9659  0.2092 -0.5490
 3913TIP3    H133154   6.810   1.921  12.303 -0.8655 -0.5932  0.6499
 3913TIP3    H233155   6.773   1.939  12.157  3.0082  0.8556 -0.2086
 3914TIP3   OH233156   1.011   6.294  13.850  0.5349 -0.2277 -0.0144
 3914TIP3    H133157   0.964   6.378  13.858 -0.7368 -0.8814 -0.4598
 3914TIP3    H233158   1.067   6.306  13.773 -0.5240 -0.1770 -0.7998
 3915TIP3   OH233159   3.879   2.740  12.644 -0.2060  0.3382  0.3047
 3915TIP3    H133160   3.910   2.654  12.614 -1.3270  0.0707 -0.1131
 3915TIP3    H233161   3.933   2.803  12.596 -1.1393 -0.1069 -1.3860
 3916TIP3   OH233162   5.296   3.791  16.008 -0.1435 -0.0126 -0.0940
 3916TIP3    H133163   5.271   3.871  16.055  0.3393 -0.5432  1.0864
 3916TIP3    H233164   5.373   3.759  16.055  0.3512 -0.5606 -1.2578
 3917TIP3   OH233165   2.918   2.931   1.273 -0.1907  0.1363  0.1493
 3917TIP3    H133166   2.859   3.006   1.282  1.6426  1.8450 -1.7336
 3917TIP3    H233167   3.004   2.964   1.299  0.1279 -2.1347  2.1647
 3918TIP3   OH233168   4.280   4.003  12.000  0.1326  0.1101  0.0862
 3918TIP3    H133169   4.225   3.977  12.074 -2.3666  0.3254 -1.6334
 3918TIP3    H233170   4.336   3.928  11.985 -2.0576 -1.5219 -0.2582
 3919TIP3   OH233171   5.391   1.047   3.277 -0.6353  0.2080 -0.3653
 3919TIP3    H133172   5.480   1.047   3.313  0.1101  1.1656 -2.1042
 3919TIP3    H233173   5.374   0.956   3.256 -0.7122 -0.2199  1.4644
 3920TIP3   OH233174   5.706   1.186   0.445 -0.8147  0.3773  0.0097
 3920TIP3    H133175   5.766   1.130   0.494 -0.6494  1.5227  1.1553
 3920TIP3    H233176   5.670   1.130   0.377  0.9685 -0.5303 -0.1954
 3921TIP3   OH233177   4.432   2.560   3.682  0.4087  0.8375  0.2454
 3921TIP3    H133178   4.479   2.480   3.704  1.9160  1.0010 -2.1762
 3921TIP3    H233179   4.343   2.531   3.660  1.6011 -0.5347 -3.0078
 3922TIP3   OH233180   4.717   6.421  14.023  0.2552  0.4958 -0.1317
 3922TIP3    H133181   4.639   6.430  13.967  0.3166  0.2269 -0.2618
 3922TIP3    H233182   4.695   6.469  14.103 -1.5551 -2.7699  1.4141
 3923TIP3   OH233183   5.909   1.810  14.590 -0.4849 -0.2402 -0.2334
 3923TIP3    H133184   5.989   1.854  14.561  0.9655 -1.3171  1.9947
 3923TIP3    H233185   5.847   1.881  14.608  0.1962  0.6390 -1.3302
 3924TIP3   OH233186   0.831   2.645   4.427  0.4539 -0.4106  0.6502
 3924TIP3    H133187   0.861   2.730   4.395  0.0739  0.0606  1.5133
 3924TIP3    H233188   0.748   2.631   4.382  1.0073 -0.8025 -0.2604
 3925TIP3   OH233189   4.798   0.114   1.884  0.3897 -0.2179 -0.0888
 3925TIP3    H133190   4.729   0.047   1.882  0.3702 -0.1793 -0.9169
 3925TIP3    H233191   4.837   0.110   1.797  1.2946 -0.0867  0.3092
 3926TIP3   OH233192   0.498   4.992  13.728  0.7203 -0.1970  0.0805
 3926TIP3    H133193   0.495   4.916  13.786 -0.5012 -0.7162 -0.6406
 3926TIP3    H233194   0.452   5.060  13.777  0.9465 -0.2161  0.3189
 3927TIP3   OH233195   4.784   6.180  10.411 -0.3032 -0.0500 -0.1762
 3927TIP3    H133196   4.705   6.168  10.358 -0.7822 -1.1672  0.7590
 3927TIP3    H233197   4.762   6.253  10.469 -0.7506 -0.5230  0.2570
 3928TIP3   OH233198   0.494   2.181  13.055 -0.2051  0.2836 -0.2859
 3928TIP3    H133199   0.566   2.221  13.006  0.5986 -1.7636 -0.8122
 3928TIP3    H233200   0.517   2.088  13.060 -1.8756 -0.0721  1.1954
 3929TIP3   OH233201   4.774   0.421   0.714  0.1511 -0.3654 -0.3109
 3929TIP3    H133202   4.858   0.414   0.759  0.1874  0.5392 -0.2275
 3929TIP3    H233203   4.797   0.427   0.621  0.1540 -0.6601 -0.3285
 3930TIP3   OH233204   3.592   6.302   6.161  0.0374  0.1473 -0.0307
 3930TIP3    H133205   3.584   6.393   6.133  0.0110  1.0836  2.8468
 3930TIP3    H233206   3.521   6.289   6.223  0.8302 -1.4410  0.5871
 3931TIP3   OH233207   0.958   4.010   2.692  0.0167 -0.1779 -0.7293
 3931TIP3    H133208   0.937   4.095   2.654 -0.1174  0.0532 -0.1549
 3931TIP3    H233209   0.965   4.027   2.786 -0.4087 -0.8826 -0.5683
 3932TIP3   OH233210   2.898   3.160  14.670 -0.3608 -0.0809  0.0714
 3932TIP3    H133211   2.900   3.161  14.766 -0.3465  0.4386  0.0681
 3932TIP3    H233212   2.974   3.211  14.644 -1.8349  2.0610 -0.1957
 3933TIP3   OH233213   2.690   4.695   6.819  0.2554 -0.2706  0.3969
 3933TIP3    H133214   2.679   4.621   6.878 -1.2686 -0.6617 -0.3515
 3933TIP3    H233215   2.616   4.689   6.759  1.9331 -0.0930 -1.7694
 3934TIP3   OH233216   4.495   5.046  13.225 -0.4107  0.3826 -0.0816
 3934TIP3    H133217   4.409   5.036  13.184  0.6106 -0.7675 -2.0238
 3934TIP3    H233218   4.557   5.025  13.156  1.3990 -0.9562  1.8711
 3935TIP3   OH233219   3.373   1.754   2.870 -0.3706 -0.2716 -0.1307
 3935TIP3    H133220   3.464   1.728   2.880 -0.4068 -0.1968  0.4225
 3935TIP3    H233221   3.366   1.835   2.920 -1.1863 -1.2595  1.3789
 3936TIP3   OH233222   0.078   0.203   4.802 -0.1470  0.9411  0.0945
 3936TIP3    H133223   0.015   0.136   4.828  0.0713  0.5774 -0.3086
 3936TIP3    H233224   0.111   0.239   4.885  1.9688 -1.5235  0.3909
 3937TIP3   OH233225   0.858   2.522  16.166  0.0711 -1.0047 -0.2946
 3937TIP3    H133226   0.895   2.589  16.109 -0.2733 -0.8794 -0.3715
 3937TIP3    H233227   0.900   2.441  16.138 -1.9323 -1.3671 -2.4294
 3938TIP3   OH233228   1.723   4.312  13.696  0.2984 -0.3802 -0.6512
 3938TIP3    H133229   1.771   4.258  13.634  0.6474  0.7834 -1.4145
 3938TIP3    H233230   1.780   4.320  13.772  0.1802 -1.1967 -0.4746
 3939TIP3   OH233231   5.347   3.577  13.008  0.3826 -0.2248  0.4133
 3939TIP3    H133232   5.348   3.581  13.104 -2.3647  0.4597  0.4420
 3939TIP3    H233233   5.377   3.663  12.980  1.4011 -0.4993  0.6410
 3940TIP3   OH233234   2.450   6.670   4.501  0.1119 -0.1747 -1.0111
 3940TIP3    H133235   2.514   6.732   4.535 -0.8791  0.3973 -0.1777
 3940TIP3    H233236   2.429   6.703   4.413 -2.3723  2.1866  0.4178
 3941TIP3   OH233237   4.898   6.426   5.609  0.6793 -0.3764  0.4787
 3941TIP3    H133238   4.862   6.505   5.650  0.7915 -0.4097  0.6432
 3941TIP3    H233239   4.886   6.440   5.516 -2.0598 -1.5015  0.6201
 3942TIP3   OH233240   5.672   6.733   3.076 -0.2220 -0.8265  0.0105
 3942TIP3    H133241   5.667   6.829   3.076  0.4614 -0.7903  0.3683
 3942TIP3    H233242   5.757   6.713   3.114 -1.7383 -1.6376  3.2185
 3943TIP3   OH233243   4.631   1.036  14.093 -0.1088 -0.9418 -0.6927
 3943TIP3    H133244   4.626   0.966  14.159 -0.2328 -0.8943 -0.6495
 3943TIP3    H233245   4.541   1.070  14.089  0.3105  0.4033  0.5896
 3944TIP3   OH233246   0.561   6.102   0.472 -0.2465 -0.0940 -0.0204
 3944TIP3    H133247   0.490   6.129   0.413 -0.6473 -2.6462 -0.7860
 3944TIP3    H233248   0.518   6.049   0.539  0.6022  0.4743  0.9888
 3945TIP3   OH233249   3.991   3.290   5.417  0.0175 -0.1257  0.2967
 3945TIP3    H133250   3.980   3.335   5.500  0.0202 -0.4527  0.4749
 3945TIP3    H233251   3.910   3.306   5.369  0.3268  0.7102  0.0528
 3946TIP3   OH233252   4.782   5.628  15.576  0.8558 -0.1534 -1.0416
 3946TIP3    H133253   4.836   5.705  15.594 -0.0923  0.0744  0.9286
 3946TIP3    H233254   4.763   5.634  15.482 -0.2730  2.7167 -0.6726
 3947TIP3   OH233255   2.432   1.916   2.711 -0.5003  0.2884 -0.4647
 3947TIP3    H133256   2.477   1.854   2.654 -0.0777 -0.7267  0.9366
 3947TIP3    H233257   2.502   1.972   2.745 -0.5393 -0.1147  0.2808
 3948TIP3   OH233258   0.844   1.080   0.480 -0.0775 -0.0652 -0.1056
 3948TIP3    H133259   0.931   1.052   0.452 -0.6026 -2.6748  0.7295
 3948TIP3    H233260   0.860   1.137   0.555  0.9378 -0.0753 -0.3108
 3949TIP3   OH233261   4.479   1.138  16.034 -0.1280 -0.0269  0.2425
 3949TIP3    H133262   4.441   1.213  16.080 -1.0557 -1.2744  1.5327
 3949TIP3    H233263   4.568   1.131  16.071  0.0236  0.5387 -0.0082
 3950TIP3   OH233264   0.088   0.674   1.133  0.2418 -0.3498  0.0820
 3950TIP3    H133265   0.136   0.624   1.067  1.9096 -0.3626  1.2800
 3950TIP3    H233266   0.123   0.763   1.126 -1.6162  0.3325 -0.9848
 3951TIP3   OH233267   4.083   2.941   3.235  0.3082 -0.5217 -0.3465
 3951TIP3    H133268   4.022   3.014   3.237  0.9461  0.0240 -0.3519
 3951TIP3    H233269   4.149   2.966   3.171  0.3369 -1.2676 -0.6178
 3952TIP3   OH233270   1.862   1.286   4.683  0.8886  0.3202  0.1486
 3952TIP3    H133271   1.867   1.191   4.686 -2.4709  0.0927 -0.3490
 3952TIP3    H233272   1.910   1.310   4.603  3.4239 -0.7468  1.2844
 3953TIP3   OH233273   3.461   2.656   5.418 -0.0272  0.0536 -0.0709
 3953TIP3    H133274   3.477   2.562   5.422 -0.0475 -0.0509 -1.9624
 3953TIP3    H233275   3.387   2.666   5.359  1.3220  1.3590 -1.6176
 3954TIP3   OH233276   1.431   3.363  15.003  0.3374  0.2841  0.1528
 3954TIP3    H133277   1.526   3.371  14.994  0.2520  2.1232  0.8012
 3954TIP3    H233278   1.411   3.400  15.089 -1.2050  1.9284 -0.8826
 3955TIP3   OH233279   6.387   6.725   4.656 -0.2253  0.0735  0.0735
 3955TIP3    H133280   6.409   6.704   4.565 -0.0725  1.6279 -0.2509
 3955TIP3    H233281   6.363   6.640   4.694 -0.7317 -0.5365 -1.5299
 3956TIP3   OH233282   4.424   5.732   5.412 -0.2535  0.0037 -0.2959
 3956TIP3    H133283   4.502   5.752   5.464  0.1234  0.1578 -0.9231
 3956TIP3    H233284   4.440   5.771   5.327 -0.5446 -0.9085 -0.7759
 3957TIP3   OH233285   0.075   6.572   4.950  0.4019 -0.3076  0.0362
 3957TIP3    H133286   0.154   6.540   4.992  0.5673  1.2819  0.9517
 3957TIP3    H233287   0.102   6.651   4.903 -0.6490  0.3206  0.4606
 3958TIP3   OH233288   0.113   0.128  17.037  0.6844  0.0206 -0.3249
 3958TIP3    H133289   0.040   0.119  16.975  1.0698  1.2496 -0.9946
 3958TIP3    H233290   0.073   0.161  17.117  0.5810  1.4223 -0.9303
 3959TIP3   OH233291   2.128   1.723   3.947 -0.3204 -0.0495  0.0580
 3959TIP3    H133292   2.112   1.708   4.040  0.8938 -0.1438  0.2568
 3959TIP3    H233293   2.214   1.765   3.944 -0.7584  0.7928 -0.9559
 3960TIP3   OH233294   6.771   0.237  11.709 -0.0255 -0.1784  0.1069
 3960TIP3    H133295   6.699   0.208  11.766  0.0575 -0.2596  0.1713
 3960TIP3    H233296   6.760   0.332  11.704  0.1450 -0.1382  0.5009
 3961TIP3   OH233297   5.027   1.525  15.277 -0.2727 -0.8775  0.1496
 3961TIP3    H133298   5.064   1.613  15.287 -0.4430 -0.7406 -0.4125
 3961TIP3    H233299   4.935   1.535  15.302 -0.2114 -0.9727  0.4175
 3962TIP3   OH233300   5.345   1.249  10.989  0.1373  0.5760 -0.0659
 3962TIP3    H133301   5.402   1.218  10.918  1.7008 -1.3362  1.9584
 3962TIP3    H233302   5.257   1.221  10.962  0.8299 -0.9486 -0.8059
 3963TIP3   OH233303   0.748   1.096   1.001  0.6141 -0.3849  0.8085
 3963TIP3    H133304   0.666   1.092   0.951  1.3342 -2.0929 -0.2798
 3963TIP3    H233305   0.720   1.098   1.093 -0.6464 -1.8704  0.4727
 3964TIP3   OH233306   0.620   6.652   2.680 -0.4343 -0.0529  0.5062
 3964TIP3    H133307   0.525   6.652   2.695 -0.2144 -1.5707  1.9662
 3964TIP3    H233308   0.645   6.560   2.685  0.8206  0.1082 -1.9939
 3965TIP3   OH233309   1.571   1.739  12.111  0.2822 -0.5249  0.0744
 3965TIP3    H133310   1.612   1.652  12.111 -1.2770 -1.2721 -0.8537
 3965TIP3    H233311   1.543   1.752  12.202  0.1719 -1.1470  0.1314
 3966TIP3   OH233312   5.550   3.411  11.809  0.2021  0.4530  0.1771
 3966TIP3    H133313   5.475   3.380  11.758  1.5364 -0.5115 -1.2673
 3966TIP3    H233314   5.570   3.339  11.869  0.7442  0.1854 -0.3174
 3967TIP3   OH233315   6.628   0.898  11.733  0.4641 -0.3134  0.2646
 3967TIP3    H133316   6.544   0.937  11.757 -0.0377 -2.0289  1.4968
 3967TIP3    H233317   6.677   0.968  11.691 -0.4365  1.5936  2.2630
 3968TIP3   OH233318   1.828   5.285   2.747 -0.8195 -0.2326 -0.5513
 3968TIP3    H133319   1.889   5.212   2.736 -0.2126  0.1794  0.0735
 3968TIP3    H233320   1.779   5.287   2.665  0.1632 -0.4122 -1.1523
 3969TIP3   OH233321   3.878   5.887  10.714 -0.0034  0.1324 -0.0972
 3969TIP3    H133322   3.936   5.941  10.659  0.1804  2.4474  2.2504
 3969TIP3    H233323   3.938   5.845  10.776 -0.5707  0.5650  0.7471
 3970TIP3   OH233324   5.387   0.402  14.558 -0.4335 -0.3661 -0.4882
 3970TIP3    H133325   5.328   0.450  14.616 -1.5965 -1.3137 -0.8548
 3970TIP3    H233326   5.331   0.372  14.486  0.5743 -0.9563 -1.0429
 3971TIP3   OH233327   0.845   3.116  11.345 -0.6652  0.4053 -0.1413
 3971TIP3    H133328   0.880   3.161  11.422 -0.5663 -0.0765  0.0964
 3971TIP3    H233329   0.755   3.149  11.336 -0.2565  1.4384 -0.5907
 3972TIP3   OH233330   2.592   3.328   1.180  0.4301 -0.1012 -0.1140
 3972TIP3    H133331   2.659   3.329   1.111 -0.9941 -1.7656 -1.5730
 3972TIP3    H233332   2.523   3.386   1.148 -1.1633 -2.4665 -1.0922
 3973TIP3   OH233333   3.563   5.299   0.715  0.0784 -0.0523 -0.3749
 3973TIP3    H133334   3.582   5.316   0.623  0.7225  0.8430 -0.0882
 3973TIP3    H233335   3.568   5.204   0.724 -1.2750 -0.2449 -1.5322
 3974TIP3   OH233336   4.341   5.997  16.578  0.2881  0.1097  0.8462
 3974TIP3    H133337   4.409   6.012  16.511 -0.8023  1.6225  0.0307
 3974TIP3    H233338   4.344   5.903  16.595  2.0031  0.0256  0.1973
 3975TIP3   OH233339   0.235   1.300  13.544 -0.1994  0.4212  0.8540
 3975TIP3    H133340   0.282   1.330  13.622  1.1163 -1.4139  0.7939
 3975TIP3    H233341   0.275   1.348  13.472 -1.4192  2.1261  1.2828
 3976TIP3   OH233342   6.480   4.890   3.959 -0.0087  0.3480  0.2414
 3976TIP3    H133343   6.482   4.808   3.909  2.3589  1.3138 -1.3099
 3976TIP3    H233344   6.490   4.862   4.050  0.1495 -1.1184 -0.2076
 3977TIP3   OH233345   6.445   3.770  15.544  0.1339  0.3608  0.6544
 3977TIP3    H133346   6.352   3.777  15.563 -0.1542  1.5876 -1.1237
 3977TIP3    H233347   6.480   3.858  15.556  0.6289  0.3914 -0.8447
 3978TIP3   OH233348   5.867   0.240   4.099  0.7277  0.7939 -0.7630
 3978TIP3    H133349   5.934   0.177   4.073  0.8675  0.4237  0.4515
 3978TIP3    H233350   5.790   0.216   4.047  1.2010  0.5069 -1.3346
 3979TIP3   OH233351   3.357   4.400   1.770 -0.2424  0.5688  0.2411
 3979TIP3    H133352   3.318   4.337   1.709  2.1098 -1.3961  0.6676
 3979TIP3    H233353   3.288   4.418   1.834 -1.8529  0.5561 -1.4680
 3980TIP3   OH233354   0.927   2.035  14.932  0.9059 -0.2252  0.4555
 3980TIP3    H133355   0.984   1.983  14.990 -0.2534 -0.7862  1.1156
 3980TIP3    H233356   0.930   1.988  14.849 -0.0472 -1.3325  1.0185
 3981TIP3   OH233357   0.711   4.140   1.959 -0.7737 -0.1866 -0.1038
 3981TIP3    H133358   0.694   4.048   1.939 -0.0189 -0.2061 -0.6922
 3981TIP3    H233359   0.635   4.187   1.927  0.9121 -0.0639 -4.2615
 3982TIP3   OH233360   3.869   6.123  14.945 -0.1144  0.1357  0.2036
 3982TIP3    H133361   3.839   6.171  15.022 -0.6046  0.6312 -0.2952
 3982TIP3    H233362   3.909   6.189  14.888 -1.7020  0.1532 -0.9373
 3983TIP3   OH233363   3.784   2.886  16.057  0.6932 -0.5858  0.0295
 3983TIP3    H133364   3.853   2.909  16.119  0.6742 -1.4865  0.3930
 3983TIP3    H233365   3.715   2.950  16.074 -0.1592 -2.0547  2.3800
 3984TIP3   OH233366   4.981   0.934  16.203  0.3387 -0.2539  0.4963
 3984TIP3    H133367   4.997   0.981  16.121 -1.7529  0.9366  0.7399
 3984TIP3    H233368   4.887   0.915  16.202  0.7309 -2.4582  1.4628
 3985TIP3   OH233369   2.501   2.886   3.840 -0.7108  0.5367  0.2467
 3985TIP3    H133370   2.519   2.936   3.761 -3.0971  0.8283 -0.1308
 3985TIP3    H233371   2.576   2.826   3.848 -1.0250 -0.3509 -2.8944
 3986TIP3   OH233372   6.684   1.627   6.033 -0.4140 -0.1224  0.0876
 3986TIP3    H133373   6.685   1.661   5.943 -0.5859  1.1378  0.5535
 3986TIP3    H233374   6.633   1.546   6.027  0.8596 -0.8625 -1.2323
 3987TIP3   OH233375   2.414   5.414  12.380 -0.2541  0.4157  0.1137
 3987TIP3    H133376   2.474   5.346  12.348 -0.8786  0.7042 -1.7298
 3987TIP3    H233377   2.471   5.478  12.422  0.5335 -0.2926  0.1429
 3988TIP3   OH233378   4.134   0.578   1.419 -0.0695  0.4865  0.1094
 3988TIP3    H133379   4.052   0.543   1.385  0.3285  0.3803 -0.7555
 3988TIP3    H233380   4.129   0.672   1.404  0.2187  0.4087 -0.5052
 3989TIP3   OH233381   5.168   5.011   1.586  0.2529  0.5181 -0.2710
 3989TIP3    H133382   5.250   4.977   1.549  0.8509  0.3389  1.1756
 3989TIP3    H233383   5.100   4.957   1.547  0.7900  0.8353 -1.6920
 3990TIP3   OH233384   6.751   2.338  15.298 -0.1781 -0.3585  0.1098
 3990TIP3    H133385   6.701   2.403  15.347 -2.0873 -1.0883 -0.8541
 3990TIP3    H233386   6.775   2.383  15.217  1.4463  0.2499  0.8999
 3991TIP3   OH233387   0.473   0.089   4.647 -0.7868  0.3453 -0.2698
 3991TIP3    H133388   0.505   0.144   4.718 -0.2621 -0.6184  0.2492
 3991TIP3    H233389   0.531   0.107   4.573 -0.1643 -0.0435  0.1196
 3992TIP3   OH233390   3.601   2.395  15.692  0.5946  0.2607 -1.0981
 3992TIP3    H133391   3.508   2.386  15.713  0.5827  0.6840 -0.9726
 3992TIP3    H233392   3.602   2.454  15.616  0.8493  1.2828 -0.2958
 3993TIP3   OH233393   3.644   0.793  16.676  0.1507 -0.3040 -0.5141
 3993TIP3    H133394   3.700   0.809  16.752 -0.6555  0.6145 -0.0975
 3993TIP3    H233395   3.698   0.740  16.617  1.6104  0.9564 -0.3322
 3994TIP3   OH233396   4.446   6.621   4.326 -0.1778 -0.3593 -0.2404
 3994TIP3    H133397   4.454   6.545   4.384 -0.1300  0.6841  1.1306
 3994TIP3    H233398   4.353   6.624   4.303 -0.7813  1.0629  2.3082
 3995TIP3   OH233399   1.208   0.475  14.906 -0.0394  0.0366  0.7279
 3995TIP3    H133400   1.170   0.525  14.834 -1.2090 -1.3549  0.3564
 3995TIP3    H233401   1.264   0.538  14.952 -1.8615  1.8397  0.5711
 3996TIP3   OH233402   5.299   3.998  14.429 -0.4286  0.3295  0.0523
 3996TIP3    H133403   5.235   3.934  14.399 -0.0080  0.7343 -1.7867
 3996TIP3    H233404   5.283   4.075  14.374 -0.3288  1.4929  1.6062
 3997TIP3   OH233405   2.202   2.770   0.399 -0.3697 -0.2859 -0.4296
 3997TIP3    H133406   2.128   2.764   0.460  0.0353 -1.9344 -0.0472
 3997TIP3    H233407   2.232   2.860   0.405 -0.3569 -0.4155  1.8227
 3998TIP3   OH233408   5.999   4.399   2.523 -0.0134 -0.7021  0.3896
 3998TIP3    H133409   6.071   4.390   2.586  0.5005  1.9510  0.2459
 3998TIP3    H233410   5.922   4.370   2.571  0.7963 -1.3820  1.3059
 3999TIP3   OH233411   0.126   0.394  16.636  0.0890 -0.0334  0.3592
 3999TIP3    H133412   0.134   0.438  16.551 -0.1356 -1.0225 -0.1820
 3999TIP3    H233413   0.132   0.465  16.700  3.9149  0.3639 -0.3222
 4000TIP3   OH233414   2.465   2.618  11.297  0.5693  0.6713 -0.1396
 4000TIP3    H133415   2.511   2.569  11.229  0.0152  1.4079 -1.0687
 4000TIP3    H233416   2.415   2.684  11.249 -2.2231 -0.7142  0.7808
 4001TIP3   OH233417   4.604   6.660   1.924 -0.0819  0.6080  0.0580
 4001TIP3    H133418   4.515   6.690   1.939 -0.8656 -1.5497 -0.1151
 4001TIP3    H233419   4.609   6.643   1.830 -0.3770 -1.8921  0.4585
 4002TIP3   OH233420   3.326   5.056   5.014 -0.0334  0.3888  0.2270
 4002TIP3    H133421   3.255   5.120   5.020 -0.1130  0.1028  2.8564
 4002TIP3    H233422   3.282   4.973   4.997 -0.1694  0.5364 -0.1392
 4003TIP3   OH233423   5.408   5.498   3.466 -0.0626  0.2218 -0.2488
 4003TIP3    H133424   5.352   5.444   3.522 -0.3013 -0.2987 -0.9815
 4003TIP3    H233425   5.395   5.588   3.497  0.1265 -0.1106  0.8009
 4004TIP3   OH233426   0.121   3.033  17.193  0.5242 -0.4194 -0.0632
 4004TIP3    H133427   0.191   2.988  17.240  0.5476  0.3951  0.7014
 4004TIP3    H233428   0.110   2.983  17.112  2.2853 -0.3039 -0.3884
 4005TIP3   OH233429   4.427   0.751   4.661 -0.0633  0.5021  0.3745
 4005TIP3    H133430   4.411   0.799   4.580 -1.4811  1.1279  1.0189
 4005TIP3    H233431   4.374   0.796   4.727  0.3389 -0.5774  1.4537
 4006TIP3   OH233432   0.912   3.395   0.261 -0.2261 -0.5184  0.1135
 4006TIP3    H133433   0.862   3.477   0.266  2.4682  1.2032 -0.3570
 4006TIP3    H233434   0.901   3.366   0.170  0.2879  0.2882 -0.2086
 4007TIP3   OH233435   1.384   5.532  10.929 -0.2000  0.6261  0.1247
 4007TIP3    H133436   1.434   5.499  10.855 -0.6824 -1.3129  0.6480
 4007TIP3    H233437   1.295   5.501  10.913 -0.1434 -0.4807  1.9133
 4008TIP3   OH233438   3.966   6.446  14.562  0.1612  0.0576  0.6020
 4008TIP3    H133439   3.903   6.479  14.497 -1.5282 -1.6714  1.3185
 4008TIP3    H233440   4.051   6.474  14.528 -0.9075  1.8066 -0.7808
 4009TIP3   OH233441   3.591   4.955   2.435  0.3570  0.9878 -0.1095
 4009TIP3    H133442   3.686   4.951   2.441  0.4612  3.6395  0.6211
 4009TIP3    H233443   3.563   5.002   2.513 -1.5848  0.0477 -0.1967
 4010TIP3   OH233444   0.769   4.523  11.432 -0.1128 -0.1915  0.3266
 4010TIP3    H133445   0.842   4.461  11.422  0.1677  0.2902 -0.6504
 4010TIP3    H233446   0.803   4.605  11.397 -1.6263 -0.3240 -1.5538
 4011TIP3   OH233447   5.817   6.275   1.199  0.3617 -0.1957 -0.1284
 4011TIP3    H133448   5.739   6.240   1.242 -0.1779  1.0645 -0.0653
 4011TIP3    H233449   5.786   6.351   1.150  0.9757 -1.5480 -2.6774
 4012TIP3   OH233450   1.146   6.340  13.597  0.2185 -0.5068 -0.0413
 4012TIP3    H133451   1.164   6.343  13.503  1.8824 -2.0906  0.1933
 4012TIP3    H233452   1.213   6.396  13.637 -0.6057  0.3186  0.1774
 4013TIP3   OH233453   0.959   5.846  15.219 -0.1554 -0.3039  0.1844
 4013TIP3    H133454   1.000   5.773  15.171 -1.4228 -0.4261 -0.7439
 4013TIP3    H233455   0.998   5.924  15.180 -0.3667 -0.4370 -0.3096
 4014TIP3   OH233456   4.723   4.153  15.251 -0.6371  0.2636  0.8193
 4014TIP3    H133457   4.735   4.231  15.197  0.6323  0.3918  1.2859
 4014TIP3    H233458   4.636   4.121  15.226  0.1549 -0.0124 -1.7458
 4015TIP3   OH233459   5.767   5.798   4.595  0.1469 -0.0186  0.4234
 4015TIP3    H133460   5.729   5.733   4.654  0.3689  0.5303  1.1834
 4015TIP3    H233461   5.730   5.777   4.509 -0.5134 -0.5581  0.8316
 4016TIP3   OH233462   5.710   0.778   4.026 -0.3310  0.3311 -0.4661
 4016TIP3    H133463   5.711   0.688   4.059  0.8142 -0.1020 -1.6416
 4016TIP3    H233464   5.627   0.786   3.980 -1.0924  0.3439  0.8860
 4017TIP3   OH233465   5.177   6.013  14.618 -0.1277 -0.4763  0.0729
 4017TIP3    H133466   5.170   6.002  14.523  1.4490 -1.7974  0.0812
 4017TIP3    H233467   5.177   6.108  14.631 -1.7170 -0.2969 -1.1151
 4018TIP3   OH233468   2.698   2.118   2.227 -0.1762  0.0235 -0.2411
 4018TIP3    H133469   2.624   2.164   2.266 -1.8789 -2.1663 -0.8328
 4018TIP3    H233470   2.739   2.071   2.301 -1.0898 -1.0254 -0.3889
 4019TIP3   OH233471   1.482   2.104   4.109 -0.0325 -0.3826  0.5501
 4019TIP3    H133472   1.412   2.039   4.104 -0.4144  0.1885 -2.4341
 4019TIP3    H233473   1.548   2.064   4.166 -1.2993 -2.3628  0.6771
 4020TIP3   OH233474   6.265   0.103  14.103  0.2844 -0.4577  0.4076
 4020TIP3    H133475   6.343   0.155  14.083  1.0134 -0.5779  2.8170
 4020TIP3    H233476   6.192   0.163  14.086  1.0351  0.7370  1.2431
 4021TIP3   OH233477   6.066   2.983  13.956 -0.4766  0.5292 -0.2064
 4021TIP3    H133478   6.147   3.034  13.949  0.2942 -0.5826  0.2771
 4021TIP3    H233479   6.018   3.022  14.028 -0.8240  1.8115 -1.1286
 4022TIP3   OH233480   0.668   6.389   0.377  0.0176 -0.1123  0.0339
 4022TIP3    H133481   0.573   6.382   0.373  0.0909 -0.7185 -0.8937
 4022TIP3    H233482   0.693   6.331   0.449 -0.1390 -2.0269 -1.3982
 4023TIP3   OH233483   5.414   2.037  15.228 -0.7037 -0.7444 -0.3689
 4023TIP3    H133484   5.480   1.975  15.258 -0.3487 -0.5689 -0.7717
 4023TIP3    H233485   5.438   2.120  15.271 -0.3315 -0.5486 -0.9371
 4024TIP3   OH233486   6.563   3.103   1.735  0.0963  0.0738  0.5121
 4024TIP3    H133487   6.500   3.169   1.706 -0.6786 -0.6393  0.5544
 4024TIP3    H233488   6.520   3.019   1.717  0.1105 -0.4035  2.5901
 4025TIP3   OH233489   1.968   3.742  11.358 -0.1231 -0.0673 -0.3806
 4025TIP3    H133490   1.971   3.658  11.404  0.3446  1.1030  1.7640
 4025TIP3    H233491   2.020   3.728  11.279 -0.9203 -2.0926 -0.5803
 4026TIP3   OH233492   4.086   4.224  13.112 -0.5803 -0.0635 -0.3246
 4026TIP3    H133493   4.079   4.143  13.061  1.5209 -0.9436  0.7133
 4026TIP3    H233494   3.995   4.247  13.133 -1.1680 -2.8718  0.4233
 4027TIP3   OH233495   0.046   1.268   5.284 -0.2881 -0.4318  0.3791
 4027TIP3    H133496   0.137   1.281   5.310 -0.0112 -0.8915 -0.3538
 4027TIP3    H233497   0.050   1.236   5.194 -1.2005  0.1555  0.1120
 4028TIP3   OH233498   2.569   3.870   3.688  0.0840  0.4785  0.4878
 4028TIP3    H133499   2.496   3.854   3.748  0.0438  1.0883  0.6098
 4028TIP3    H233500   2.600   3.783   3.663 -0.3211  0.2210  0.8819
 4029TIP3   OH233501   1.106   2.225  17.137 -0.3036  0.0581 -0.3476
 4029TIP3    H133502   1.031   2.243  17.081 -1.0788  0.3646  0.7561
 4029TIP3    H233503   1.078   2.152  17.192  1.6234 -2.4263 -2.5266
 4030TIP3   OH233504   3.996   2.759  13.588  0.2625 -0.0622 -1.1307
 4030TIP3    H133505   3.937   2.823  13.547 -1.7047 -0.8545  0.3984
 4030TIP3    H233506   3.943   2.680  13.595  0.4360  0.1012  3.1284
 4031TIP3   OH233507   1.298   6.668   5.409 -0.0554  0.1309  0.0804
 4031TIP3    H133508   1.273   6.759   5.424  0.1229  0.2310 -0.2414
 4031TIP3    H233509   1.375   6.673   5.353 -0.3514 -0.2337 -0.3637
 4032TIP3   OH233510   1.418   3.261   2.466  0.0597 -0.1685 -0.2235
 4032TIP3    H133511   1.449   3.278   2.377  1.9158  0.2160  0.4689
 4032TIP3    H233512   1.370   3.178   2.459  3.0214 -1.8827 -0.9745
 4033TIP3   OH233513   1.704   3.340   1.328 -0.2241 -0.0435 -0.4112
 4033TIP3    H133514   1.701   3.303   1.240  1.5325 -0.9316 -0.1153
 4033TIP3    H233515   1.742   3.270   1.382  2.0194  1.7470  0.3947
 4034TIP3   OH233516   6.437   4.537   5.176 -0.0146 -0.9312  0.0033
 4034TIP3    H133517   6.474   4.625   5.186  2.5690 -2.1143  1.2647
 4034TIP3    H233518   6.466   4.509   5.089  0.6438 -1.1973  0.3044
 4035TIP3   OH233519   6.748   1.926   1.119 -0.1017 -0.5762 -0.2912
 4035TIP3    H133520   6.788   1.939   1.205 -1.6433 -1.4772  0.5838
 4035TIP3    H233521   6.822   1.926   1.058  0.8880  1.5875  0.8434
 4036TIP3   OH233522   3.698   6.214   1.981  0.3818  0.2957  0.1763
 4036TIP3    H133523   3.615   6.253   1.953 -0.4271 -0.6190  1.2290
 4036TIP3    H233524   3.739   6.281   2.035 -0.8601 -0.1427  1.7246
 4037TIP3   OH233525   6.000   4.084   2.559  0.1376 -0.0616  0.3844
 4037TIP3    H133526   6.095   4.075   2.562  0.0355 -1.1993  0.5927
 4037TIP3    H233527   5.984   4.178   2.558  1.2570  0.1329  0.5949
 4038TIP3   OH233528   4.276   0.859   4.445  0.3367  0.3073  0.4579
 4038TIP3    H133529   4.244   0.948   4.430  0.1248 -0.1692 -2.1248
 4038TIP3    H233530   4.197   0.809   4.465  0.1890  0.2820 -0.1856
 4039TIP3   OH233531   2.025   4.548  13.964 -0.0527  0.2564  0.2508
 4039TIP3    H133532   2.093   4.549  13.896  0.7094  0.9450  0.9974
 4039TIP3    H233533   1.987   4.461  13.959  1.9482 -0.6867  0.8237
 4040TIP3   OH233534   0.478   6.479   0.686 -0.4767  0.1359 -1.1407
 4040TIP3    H133535   0.471   6.389   0.720 -0.1744  0.3031 -0.6334
 4040TIP3    H233536   0.387   6.507   0.673 -0.6078  0.2436 -0.0092
 4041TIP3   OH233537   6.489   4.420   2.054 -0.3989 -0.0629  0.3778
 4041TIP3    H133538   6.563   4.387   2.003 -0.0689  1.8679 -0.4642
 4041TIP3    H233539   6.449   4.486   1.998 -1.5645  0.3062  1.6164
 4042TIP3   OH233540   4.933   3.701  13.801  0.3271  0.0253  0.3066
 4042TIP3    H133541   4.887   3.643  13.740  0.5830 -3.3653  3.1961
 4042TIP3    H233542   4.879   3.780  13.804 -0.6807 -0.4595 -2.8248
 4043TIP3   OH233543   5.104   6.732  10.018  0.0098  1.0247 -1.1308
 4043TIP3    H133544   5.062   6.761  10.099 -0.0179 -1.3613 -0.2391
 4043TIP3    H233545   5.043   6.758   9.949 -2.0101 -0.5537 -0.0255
 4044TIP3   OH233546   1.620   0.350   0.885  0.0290 -0.1288  0.4399
 4044TIP3    H133547   1.527   0.373   0.892  0.6860  2.8707 -0.0355
 4044TIP3    H233548   1.624   0.289   0.812 -1.3017  1.6271 -1.1710
 4045TIP3   OH233549   5.934   0.237   5.402  0.1777  1.0282  0.4558
 4045TIP3    H133550   5.911   0.246   5.309  0.5527  0.4275  0.2998
 4045TIP3    H233551   5.933   0.326   5.436 -1.0633  1.1373  0.1435
 4046TIP3   OH233552   5.809   2.024   2.618  0.2211  0.4390  0.6642
 4046TIP3    H133553   5.752   1.968   2.669  1.3606 -0.0724  1.3919
 4046TIP3    H233554   5.760   2.106   2.608 -0.6280  0.0117  1.2666
 4047TIP3   OH233555   1.468   6.729   0.035  0.2709  0.4000 -0.2758
 4047TIP3    H133556   1.563   6.721   0.041  0.1271 -0.4562  1.3006
 4047TIP3    H233557   1.438   6.641   0.015 -0.4089 -0.1947  3.0174
 4048TIP3   OH233558   1.008   4.501  16.132  0.2201 -0.4387  0.0013
 4048TIP3    H133559   1.091   4.545  16.113 -0.2353 -0.4301 -2.1191
 4048TIP3    H233560   1.011   4.421  16.079 -0.1642 -1.5842  1.6662
 4049TIP3   OH233561   6.118   5.885   5.711 -0.0103 -0.6154  0.3433
 4049TIP3    H133562   6.146   5.964   5.756  0.2116 -0.6187  0.2115
 4049TIP3    H233563   6.165   5.887   5.628 -1.9123  0.3978 -0.7234
 4050TIP3   OH233564   4.589   1.021  11.116  0.0392  0.1405 -0.2494
 4050TIP3    H133565   4.640   0.980  11.186 -0.0411 -2.4120 -1.6461
 4050TIP3    H233566   4.514   0.964  11.105 -0.6170  1.2414 -1.5705
 4051TIP3   OH233567   3.097   5.147  11.481 -0.7288  0.3430 -0.1533
 4051TIP3    H133568   3.133   5.233  11.507  0.7612 -0.8552  1.9521
 4051TIP3    H233569   3.028   5.168  11.418  0.1896  3.0452 -0.3480
 4052TIP3   OH233570   0.943   3.914   4.997  0.5853  0.1044 -0.5604
 4052TIP3    H133571   0.884   3.920   5.072  0.1097  1.3118 -1.0152
 4052TIP3    H233572   1.030   3.903   5.036  0.5207  2.1120  0.2398
 4053TIP3   OH233573   4.024   2.227   1.865 -0.2633 -0.1736 -0.2178
 4053TIP3    H133574   3.958   2.163   1.893 -0.3765  0.6211  1.4194
 4053TIP3    H233575   4.101   2.207   1.918 -0.7683  1.9315  1.4108
 4054TIP3   OH233576   1.359   0.484  14.606 -0.5318 -0.3349  0.5628
 4054TIP3    H133577   1.389   0.557  14.661  2.8963 -0.3705 -1.0993
 4054TIP3    H233578   1.301   0.525  14.542 -1.8509  0.2372  2.0740
 4055TIP3   OH233579   5.693   3.350  15.057  0.0258 -0.2112  0.0468
 4055TIP3    H133580   5.656   3.328  15.142 -0.7019  0.0333 -0.2001
 4055TIP3    H233581   5.632   3.312  14.994 -0.2616  0.9396 -0.3705
 4056TIP3   OH233582   5.031   2.346  12.158  0.4394 -0.9015  0.0654
 4056TIP3    H133583   4.965   2.309  12.217 -1.5539  0.7917 -1.0243
 4056TIP3    H233584   5.088   2.272  12.136 -0.8801 -2.3319  1.3384
 4057TIP3   OH233585   1.435   0.552   1.357 -0.4513  0.0534  0.6612
 4057TIP3    H133586   1.372   0.609   1.312 -0.5701  0.9353  1.9207
 4057TIP3    H233587   1.487   0.514   1.286 -1.1115  0.8569 -0.2698
 4058TIP3   OH233588   2.898   0.047  15.188 -0.0427 -0.2121 -0.1828
 4058TIP3    H133589   2.930  -0.001  15.111  2.4291 -0.6247  1.0394
 4058TIP3    H233590   2.967   0.111  15.206 -2.1074  2.1167 -0.2357
 4059TIP3   OH233591   4.625   2.269   3.992 -0.7960  0.2227 -0.3435
 4059TIP3    H133592   4.616   2.360   4.023  3.1401 -0.5177  3.4724
 4059TIP3    H233593   4.586   2.216   4.061  2.2773 -1.2146  0.3638
 4060TIP3   OH233594   4.155   4.578  14.062 -0.1935 -0.0939 -0.2606
 4060TIP3    H133595   4.071   4.532  14.062 -0.1114 -0.2512 -1.2024
 4060TIP3    H233596   4.132   4.668  14.085 -0.7763  0.1350 -1.7056
 4061TIP3   OH233597   2.271   0.637   3.504  0.0115  0.2458 -0.7549
 4061TIP3    H133598   2.333   0.566   3.489 -1.0120 -0.7175 -0.4705
 4061TIP3    H233599   2.295   0.672   3.591  0.4585  0.2093 -0.8593
 4062TIP3   OH233600   2.059   1.598   2.056 -0.3044  0.0384 -0.0595
 4062TIP3    H133601   2.080   1.528   2.118  0.1684  0.3036  0.0840
 4062TIP3    H233602   1.992   1.650   2.100  0.5959  0.6766  0.5480
 4063TIP3   OH233603   1.697   4.653  15.526  0.2319 -0.5004 -0.8046
 4063TIP3    H133604   1.649   4.719  15.476  1.8047  0.8962 -0.4953
 4063TIP3    H233605   1.631   4.585  15.544 -1.0191  0.2264 -2.4471
 4064TIP3   OH233606   6.032   4.307   5.873  0.6394  0.3237  0.5938
 4064TIP3    H133607   6.042   4.253   5.795 -0.6254 -0.8708  1.2374
 4064TIP3    H233608   6.041   4.246   5.947 -1.1224  0.8988  1.3240
 4065TIP3   OH233609   0.936   5.754   0.591  0.4044 -1.0364 -1.0788
 4065TIP3    H133610   1.005   5.801   0.638  0.5913 -2.5783  0.2324
 4065TIP3    H233611   0.903   5.817   0.527  1.0226  0.6852  0.2667
 4066TIP3   OH233612   3.459   3.131   1.284  0.1241 -0.2939  0.6678
 4066TIP3    H133613   3.448   3.134   1.189 -2.1073 -0.0756  0.8895
 4066TIP3    H233614   3.490   3.219   1.307 -1.0689  0.2423  0.2980
 4067TIP3   OH233615   2.399   5.367   0.441 -0.3476  0.3376 -0.1942
 4067TIP3    H133616   2.345   5.342   0.366 -2.5105 -0.2947  1.5055
 4067TIP3    H233617   2.383   5.298   0.505  2.4661  0.1717  0.4080
 4068TIP3   OH233618   0.502   2.818  15.403 -0.0237 -0.2069  0.5801
 4068TIP3    H133619   0.409   2.797  15.414 -0.0616  0.6208  1.9841
 4068TIP3    H233620   0.504   2.878  15.329 -0.7467  0.5498  1.1501
 4069TIP3   OH233621   1.017   3.250   2.625  0.2138  0.5594  0.2900
 4069TIP3    H133622   1.094   3.300   2.651 -0.6145  0.7385  2.5320
 4069TIP3    H233623   1.052   3.166   2.594  1.4104  1.3947 -0.6339
 4070TIP3   OH233624   2.982   4.546   3.986 -0.1992 -0.0284 -0.3565
 4070TIP3    H133625   3.038   4.603   3.932  0.6170  1.1325  1.6353
 4070TIP3    H233626   3.043   4.488   4.031 -0.6232  0.6765  1.1833
 4071TIP3   OH233627   2.777   4.475   3.385  0.0689  0.2442  0.5955
 4071TIP3    H133628   2.774   4.381   3.364 -0.1182 -0.0768  2.0177
 4071TIP3    H233629   2.740   4.481   3.472 -2.5185  2.0010 -0.5766
 4072TIP3   OH233630   2.818   0.936  11.671 -0.6271  0.5432  0.5604
 4072TIP3    H133631   2.843   0.982  11.591 -0.6033  1.2513  0.9777
 4072TIP3    H233632   2.820   0.843  11.646 -1.3411  0.7904 -0.4643
 4073TIP3   OH233633   1.127   1.242  13.057 -0.4736  0.0309  0.0214
 4073TIP3    H133634   1.108   1.210  12.969  2.0353  0.7189 -0.8061
 4073TIP3    H233635   1.156   1.165  13.105 -2.9792 -0.5747  0.6226
 4074TIP3   OH233636   5.398   5.319   2.342  0.1010 -0.6314  0.6569
 4074TIP3    H133637   5.474   5.273   2.308  1.4358  1.4919  0.6392
 4074TIP3    H233638   5.337   5.322   2.268  0.6457 -1.0069  0.1880
 4075TIP3   OH233639   6.624   0.023  15.787 -0.2533  0.0959 -0.2739
 4075TIP3    H133640   6.559  -0.011  15.725  0.7533 -0.3568 -1.0786
 4075TIP3    H233641   6.593   0.112  15.806 -1.5571 -0.3951 -0.0097
 4076TIP3   OH233642   3.402   5.336  11.498  0.1449  0.4539  0.6611
 4076TIP3    H133643   3.461   5.262  11.509 -0.5351 -0.3264 -0.7762
 4076TIP3    H233644   3.357   5.344  11.582  0.5119 -0.5039  0.9498
 4077TIP3   OH233645   5.286   1.066  12.835  0.6193 -0.3529  0.1860
 4077TIP3    H133646   5.280   1.077  12.741  2.2907  1.3635  0.2428
 4077TIP3    H233647   5.315   0.976  12.847 -0.8049 -0.9605 -0.8824
 4078TIP3   OH233648   5.933   2.060  13.838 -0.2350 -0.0368 -0.3323
 4078TIP3    H133649   5.860   2.057  13.900 -1.7584  0.4877 -2.0683
 4078TIP3    H233650   5.990   2.130  13.871 -0.7288 -0.1558  0.7857
 4079TIP3   OH233651   4.421   2.223  16.731  0.3904  0.3249  0.2671
 4079TIP3    H133652   4.463   2.163  16.668  0.8798 -0.0492  0.9340
 4079TIP3    H233653   4.336   2.183  16.749  0.1129  0.6090 -0.4119
 4080TIP3   OH233654   5.008   5.689   0.528 -0.6035  0.0104 -0.6990
 4080TIP3    H133655   4.916   5.680   0.500 -1.1565 -1.6493  1.4939
 4080TIP3    H233656   5.015   5.779   0.559 -1.1210  0.5447 -2.0778
 4081TIP3   OH233657   3.389   1.294  16.993 -0.3663  0.0806 -0.0746
 4081TIP3    H133658   3.452   1.317  17.063  1.4441 -1.3428 -1.1859
 4081TIP3    H233659   3.306   1.330  17.023  0.8102  1.2892  1.8571
 4082TIP3   OH233660   5.009   5.613  13.457  0.5248 -0.3848  0.6093
 4082TIP3    H133661   5.070   5.544  13.483  0.3591 -0.9117 -0.3799
 4082TIP3    H233662   4.926   5.589  13.500  0.0767 -1.6106 -0.8995
 4083TIP3   OH233663   5.269   2.709  13.212  0.7072 -0.0009 -0.2351
 4083TIP3    H133664   5.320   2.756  13.278  0.1026  0.7115 -0.2697
 4083TIP3    H233665   5.291   2.752  13.129 -0.0301  0.3844 -0.2344
 4084TIP3   OH233666   1.471   4.916   0.533 -0.1240  0.0500 -0.1791
 4084TIP3    H133667   1.390   4.951   0.497 -1.3071 -0.4912  1.8859
 4084TIP3    H233668   1.503   4.984   0.592 -0.3716 -0.7228  0.8631
 4085TIP3   OH233669   5.768   0.273  15.456 -0.0357  0.3777 -0.2608
 4085TIP3    H133670   5.676   0.299  15.459  0.3104  1.4960  0.7745
 4085TIP3    H233671   5.779   0.236  15.368 -0.9304  2.2672 -1.1937
 4086TIP3   OH233672   5.032   6.222   0.156 -0.7337 -0.2822  0.5197
 4086TIP3    H133673   4.948   6.210   0.112  0.3513 -1.9361 -1.1462
 4086TIP3    H233674   5.041   6.317   0.165 -1.4420  0.0414 -1.9219
 4087TIP3   OH233675   5.970   3.158  14.503  0.1129  0.0144 -0.3300
 4087TIP3    H133676   6.051   3.198  14.474  0.6470  0.0869  1.1904
 4087TIP3    H233677   5.997   3.084  14.558 -0.8502 -0.5047 -0.5256
 4088TIP3   OH233678   1.468   3.645   4.508 -0.6663 -0.2046 -0.1691
 4088TIP3    H133679   1.499   3.563   4.546  0.4939 -0.0076 -0.6716
 4088TIP3    H233680   1.378   3.653   4.539 -0.8337 -1.7279 -0.2147
 4089TIP3   OH233681   3.380   3.606  10.520  0.1945  1.0342 -0.0987
 4089TIP3    H133682   3.298   3.626  10.476  0.8757  1.2703 -1.3093
 4089TIP3    H233683   3.437   3.680  10.498  0.6879  0.9325  0.8247
 4090TIP3   OH233684   0.103   1.986   5.459  0.4661  0.4535 -0.4687
 4090TIP3    H133685   0.099   2.063   5.516 -0.5319  0.0453  0.0313
 4090TIP3    H233686   0.023   1.937   5.480  1.7423 -1.4153  0.2045
 4091TIP3   OH233687   5.844   1.537  13.866  0.2368  0.0026  0.1951
 4091TIP3    H133688   5.860   1.598  13.938 -0.1289 -0.7398  0.9216
 4091TIP3    H233689   5.750   1.543  13.850  0.4963  0.9591 -0.9463
 4092TIP3   OH233690   5.852   2.900  14.228 -0.4082  0.5634  0.3914
 4092TIP3    H133691   5.766   2.860  14.215 -1.1051  2.6720 -1.8443
 4092TIP3    H233692   5.833   2.985  14.267  0.8029  0.3506  1.4913
 4093TIP3   OH233693   6.556   6.756   6.173 -0.2401  0.4829  0.3816
 4093TIP3    H133694   6.585   6.789   6.088 -2.2735  0.1518 -0.4703
 4093TIP3    H233695   6.462   6.778   6.177 -0.2718  0.1155  2.3564
 4094TIP3   OH233696   4.335   0.316  13.999 -0.8535 -0.0425  0.4556
 4094TIP3    H133697   4.261   0.285  13.947 -1.7115 -1.6264  2.5343
 4094TIP3    H233698   4.317   0.410  14.012 -0.7953  0.2967 -1.7489
 4095TIP3   OH233699   1.803   4.083   3.277  0.5438  0.3540  0.0116
 4095TIP3    H133700   1.861   4.087   3.353  0.1856  0.1555  0.2974
 4095TIP3    H233701   1.745   4.159   3.287 -1.6895 -1.5221  1.7246
 4096TIP3   OH233702   3.461   1.599   0.583 -0.4654 -0.6634  0.7977
 4096TIP3    H133703   3.510   1.537   0.529 -0.4609  0.8949 -1.0381
 4096TIP3    H233704   3.526   1.665   0.609 -1.1692  0.3826 -0.0656
 4097TIP3   OH233705   5.391   0.937   5.113 -0.1842  0.0734  0.3743
 4097TIP3    H133706   5.361   1.025   5.137 -0.5808 -0.0623  0.3872
 4097TIP3    H233707   5.406   0.893   5.197  0.1031  0.1605  0.3675
 4098TIP3   OH233708   5.622   5.970   3.147 -0.1371 -0.1710  0.1414
 4098TIP3    H133709   5.611   5.897   3.087 -3.7916 -0.8503  1.5351
 4098TIP3    H233710   5.536   6.011   3.152  1.1447  2.4833  1.6132
 4099TIP3   OH233711   3.782   3.274   2.420  0.5585  0.0548 -0.3681
 4099TIP3    H133712   3.775   3.338   2.491  1.0250  0.4690 -0.6976
 4099TIP3    H233713   3.741   3.195   2.455 -1.9175  1.1347 -0.6835
 4100TIP3   OH233714   5.407   0.381  16.256 -0.2190  0.1867  0.1726
 4100TIP3    H133715   5.502   0.390  16.255 -0.1240  0.0545  2.9347
 4100TIP3    H233716   5.375   0.470  16.276 -0.6908  0.3120 -1.1254
 4101TIP3   OH233717   4.688   3.298  13.247  0.3354 -0.2078  0.3545
 4101TIP3    H133718   4.777   3.327  13.267 -0.1486  2.3539 -0.9603
 4101TIP3    H233719   4.631   3.363  13.289 -0.8486 -0.5915 -0.6065
 4102TIP3   OH233720   2.414   6.692  15.935  0.0243  0.4588 -0.6255
 4102TIP3    H133721   2.473   6.617  15.945 -1.1029 -0.3253  0.2415
 4102TIP3    H233722   2.470   6.762  15.902  1.6909  0.0305  1.1695
 4103TIP3   OH233723   4.074   1.475   5.458 -0.3309 -0.3080  0.6867
 4103TIP3    H133724   4.013   1.545   5.436 -0.1004 -0.3782 -0.1802
 4103TIP3    H233725   4.143   1.518   5.508  0.4450  0.3166 -0.9038
 4104TIP3   OH233726   6.411   2.374   4.725 -0.0559  0.1454  0.0785
 4104TIP3    H133727   6.403   2.467   4.745  2.1487  0.5327 -0.6915
 4104TIP3    H233728   6.328   2.350   4.686 -0.4890  1.9014 -0.1106
 4105TIP3   OH233729   3.155   2.540  13.430  0.5930  0.1562  0.6234
 4105TIP3    H133730   3.143   2.529  13.524  0.3010 -1.5469  0.3976
 4105TIP3    H233731   3.085   2.601  13.405  0.1806  0.0015  1.3700
 4106TIP3   OH233732   5.892   2.262   5.466 -0.2158  0.1019 -0.2349
 4106TIP3    H133733   5.967   2.212   5.498 -0.3497 -1.2059 -1.8453
 4106TIP3    H233734   5.931   2.340   5.425  0.0801  0.7088  1.1769
 4107TIP3   OH233735   6.302   2.294  16.202 -0.3081 -0.2561  0.1777
 4107TIP3    H133736   6.383   2.342  16.216  0.2679 -1.8045  2.3118
 4107TIP3    H233737   6.240   2.333  16.263 -0.5026 -0.6623  0.2414
 4108TIP3   OH233738   2.037   0.855   5.350  0.4239  0.3348 -0.2396
 4108TIP3    H133739   1.970   0.908   5.307  0.3623  1.4067  1.1508
 4108TIP3    H233740   2.066   0.908   5.424  1.4740 -0.9228  0.2708
 4109TIP3   OH233741   0.140   2.090  16.774 -0.4276  0.0737 -0.5607
 4109TIP3    H133742   0.065   2.087  16.715 -1.0090  0.0203  0.1762
 4109TIP3    H233743   0.114   2.150  16.844 -1.1421 -2.5044  1.4986
 4110TIP3   OH233744   2.529   3.630  12.995  0.2959 -0.2691  0.1900
 4110TIP3    H133745   2.542   3.580  12.915 -4.3588  0.0444 -0.8779
 4110TIP3    H233746   2.503   3.717  12.965  0.6145  0.5065  2.0718
 4111TIP3   OH233747   3.607   0.617   0.361 -0.0908 -0.4190  0.0566
 4111TIP3    H133748   3.624   0.711   0.354 -0.4973 -0.2496  1.2648
 4111TIP3    H233749   3.666   0.578   0.297 -0.3712  0.7002 -0.9073
 4112TIP3   OH233750   4.561   6.064  16.745 -0.1424  0.6267 -0.4794
 4112TIP3    H133751   4.481   6.055  16.693 -1.4923 -1.3267  1.8060
 4112TIP3    H233752   4.586   5.974  16.766  0.4283  1.3261  2.0716
 4113TIP3   OH233753   3.146   4.699   4.513 -0.2143  0.2238 -0.3549
 4113TIP3    H133754   3.222   4.746   4.480 -0.7427  0.8098 -0.7691
 4113TIP3    H233755   3.123   4.744   4.595 -1.3598  1.3952 -1.2895
 4114TIP3   OH233756   4.016   3.565  15.767 -0.2360  0.0236 -0.4949
 4114TIP3    H133757   3.962   3.507  15.820  0.1158 -0.7679 -1.0031
 4114TIP3    H233758   3.965   3.646  15.760 -1.2467 -0.6289 -0.7570
 4115TIP3   OH233759   6.289   1.995   4.615 -0.4556 -0.4103 -0.0545
 4115TIP3    H133760   6.377   1.962   4.631  0.1880  0.3430 -1.8268
 4115TIP3    H233761   6.303   2.082   4.578 -2.0374  0.7801  2.0483
 4116TIP3   OH233762   3.770   3.131   5.513  0.0680  0.5823 -0.4542
 4116TIP3    H133763   3.771   3.036   5.508  1.1895  0.5311  0.4331
 4116TIP3    H233764   3.701   3.158   5.453 -0.3391 -0.7934 -0.6182
 4117TIP3   OH233765   0.897   2.224  15.429 -0.0018  0.3237  1.0041
 4117TIP3    H133766   0.990   2.219  15.406 -0.3455  0.0128 -0.3928
 4117TIP3    H233767   0.853   2.177  15.358 -1.2809  1.0937  1.2826
 4118TIP3   OH233768   0.168   0.937  16.676 -0.6004  0.3857  0.5684
 4118TIP3    H133769   0.133   0.984  16.600 -0.3455  0.6628  0.6230
 4118TIP3    H233770   0.127   0.850  16.671 -0.4643  0.3522  0.0294
 4119TIP3   OH233771   4.550   5.461  10.873  0.5936  0.0274  0.3969
 4119TIP3    H133772   4.635   5.463  10.830  0.9770  1.2809  1.1626
 4119TIP3    H233773   4.513   5.376  10.850  1.5306 -0.0416 -0.9376
 4120TIP3   OH233774   5.629   6.504   3.232  0.0830  0.0713 -0.2528
 4120TIP3    H133775   5.631   6.566   3.159 -1.5892  0.5622  0.0971
 4120TIP3    H233776   5.594   6.554   3.305 -1.6678 -1.3804 -0.0658
 4121TIP3   OH233777   3.608   2.481   3.067  0.2846 -0.3784 -0.0230
 4121TIP3    H133778   3.605   2.577   3.069  0.1411 -0.3094 -2.2298
 4121TIP3    H233779   3.701   2.460   3.065  0.3957 -0.4083  3.5077
 4122TIP3   OH233780   4.459   2.256   2.291 -0.6926  0.2984 -0.2650
 4122TIP3    H133781   4.436   2.167   2.261  2.2817 -1.3627  2.0854
 4122TIP3    H233782   4.538   2.278   2.242 -0.8801  1.2942 -0.1291
 4123TIP3   OH233783   6.008   5.184  14.954 -0.0411 -0.5357  0.5985
 4123TIP3    H133784   5.916   5.160  14.946 -0.0513 -0.2314 -0.2338
 4123TIP3    H233785   6.030   5.167  15.046 -1.1386  0.1785  0.9961
 4124TIP3   OH233786   1.662   0.858  15.983 -0.1600  0.0164  0.0706
 4124TIP3    H133787   1.719   0.921  15.938  0.6839  2.5273  4.4655
 4124TIP3    H233788   1.706   0.774  15.970  3.5938  1.6304  1.6777
 4125TIP3   OH233789   2.660   3.120  11.960  0.1119  0.3860  0.3503
 4125TIP3    H133790   2.583   3.146  11.910 -0.0070  1.3635  1.0266
 4125TIP3    H233791   2.654   3.024  11.966 -1.2816  0.4888  0.7846
 4126TIP3   OH233792   2.427   5.898  11.676 -0.0566 -0.4124  0.2770
 4126TIP3    H133793   2.466   5.820  11.713  0.4617 -0.1007  0.3935
 4126TIP3    H233794   2.496   5.965  11.683 -0.0707 -0.2643 -0.9187
 4127TIP3   OH233795   3.211   6.079  14.521 -0.0941  0.7289  0.9119
 4127TIP3    H133796   3.231   6.013  14.454  0.2260  1.5620  0.1760
 4127TIP3    H233797   3.116   6.077  14.530 -0.1016  0.3068  0.7569
 4128TIP3   OH233798   5.283   1.505  17.123 -0.1900  0.0754  0.0658
 4128TIP3    H133799   5.194   1.485  17.150 -0.4120  0.7536 -0.1575
 4128TIP3    H233800   5.283   1.491  17.028 -0.3672  1.1784 -0.1075
 4129TIP3   OH233801   1.667   4.590   5.946 -0.0721 -0.0664 -0.1525
 4129TIP3    H133802   1.650   4.526   6.015  1.3632 -1.3558 -0.9534
 4129TIP3    H233803   1.608   4.663   5.965  0.2203 -0.4565  2.3515
 4130TIP3   OH233804   6.239   3.707   5.312  0.1098 -0.4897 -0.1338
 4130TIP3    H133805   6.158   3.758   5.306 -0.3083 -1.1657 -0.2893
 4130TIP3    H233806   6.304   3.759   5.264 -0.1431  0.2212  0.2883
 4131TIP3   OH233807   6.416   6.047  15.573  0.5461  0.3767 -0.1658
 4131TIP3    H133808   6.476   6.122  15.569  0.8223  0.2687  1.4806
 4131TIP3    H233809   6.421   6.008  15.486  1.5649  1.3854 -0.5797
 4132TIP3   OH233810   1.155   4.679   4.766 -0.7184  0.4195  0.7387
 4132TIP3    H133811   1.129   4.613   4.703 -1.2957  0.9315  0.4394
 4132TIP3    H233812   1.209   4.631   4.830  0.9986  0.1566 -0.8534
 4133TIP3   OH233813   3.838   6.542   5.086 -0.0215  0.1067 -0.3860
 4133TIP3    H133814   3.875   6.571   5.002  0.7063  0.5725  0.0927
 4133TIP3    H233815   3.903   6.482   5.122  0.5594  1.4042  0.7480
 4134TIP3   OH233816   1.292   4.266  16.147 -0.1356 -0.1141  0.2311
 4134TIP3    H133817   1.318   4.295  16.234  1.7715 -0.6146 -0.1395
 4134TIP3    H233818   1.289   4.171  16.153  0.4932 -0.1785 -0.3627
 4135TIP3   OH233819   4.382   1.187   2.850  0.1822 -0.2620 -0.8356
 4135TIP3    H133820   4.420   1.222   2.769 -0.0916 -1.2783 -1.4167
 4135TIP3    H233821   4.325   1.116   2.821 -0.4777 -0.1705  0.2011
 4136TIP3   OH233822   3.503   2.668   5.839 -0.3193 -0.3233 -0.0088
 4136TIP3    H133823   3.444   2.726   5.887 -1.1576 -0.1793 -1.2010
 4136TIP3    H233824   3.452   2.588   5.825 -1.0954  0.6636 -3.1144
 4137TIP3   OH233825   3.356   2.675  13.264  0.4853 -0.7353  0.0610
 4137TIP3    H133826   3.327   2.616  13.333 -0.9095  0.6817  0.7261
 4137TIP3    H233827   3.337   2.763  13.297  0.2740  0.0016 -1.8932
 4138TIP3   OH233828   2.241   0.423   2.565 -0.4378 -0.2918  0.0829
 4138TIP3    H133829   2.267   0.477   2.640  0.0395  0.1289 -0.3710
 4138TIP3    H233830   2.307   0.443   2.498 -1.0395 -0.4093 -0.5574
 4139TIP3   OH233831   6.560   2.245   3.269  0.0008  0.0969 -0.0689
 4139TIP3    H133832   6.572   2.155   3.240 -0.6382 -0.1284  0.3654
 4139TIP3    H233833   6.472   2.247   3.307  0.4915  0.5984  1.0693
 4140TIP3   OH233834   0.630   0.688   3.773 -0.2332 -0.6123 -0.5324
 4140TIP3    H133835   0.579   0.761   3.739 -1.2671 -1.4582 -0.8454
 4140TIP3    H233836   0.719   0.720   3.777 -0.4246  0.1528 -2.1577
 4141TIP3   OH233837   5.147   1.940  13.476 -0.3854  0.5663  0.1712
 4141TIP3    H133838   5.175   2.025  13.441  1.2389  0.3634  0.9511
 4141TIP3    H233839   5.192   1.876  13.421  0.7906  0.2372  1.4876
 4142TIP3   OH233840   1.111   2.048   4.133  0.2695  0.2029 -0.1819
 4142TIP3    H133841   1.031   1.995   4.129  0.4209 -0.2191  1.8453
 4142TIP3    H233842   1.082   2.136   4.108 -0.9245  0.1301  0.8507
 4143TIP3   OH233843   1.972   1.816  11.823  0.1758  0.2057 -0.0433
 4143TIP3    H133844   1.920   1.863  11.758 -1.6518 -0.8860  0.6006
 4143TIP3    H233845   1.924   1.735  11.839  0.9807  0.1150  2.1165
 4144TIP3   OH233846   0.296   3.545  11.682 -0.1397 -0.1097 -0.1029
 4144TIP3    H133847   0.295   3.618  11.744  2.4963 -1.7589  2.0040
 4144TIP3    H233848   0.223   3.489  11.710 -0.9894  0.7561 -0.5526
 4145TIP3   OH233849   0.118   5.962  15.254 -0.0669  0.4973  0.2593
 4145TIP3    H133850   0.170   5.909  15.193 -1.2815 -1.3878  0.8263
 4145TIP3    H233851   0.156   5.945  15.340 -0.6044  0.3364  0.4706
 4146TIP3   OH233852   0.360   6.650  10.441 -0.0052 -0.0895  0.2223
 4146TIP3    H133853   0.281   6.688  10.403  0.5989  1.0387  0.0549
 4146TIP3    H233854   0.430   6.710  10.414  0.6703 -0.1638  1.7509
 4147TIP3   OH233855   0.284   4.831  15.075 -0.2264 -0.0543 -0.7598
 4147TIP3    H133856   0.314   4.922  15.072  0.6288 -0.2956  0.0916
 4147TIP3    H233857   0.320   4.791  14.996  2.6024 -0.5876  0.7180
 4148TIP3   OH233858   6.017   0.663  15.248  0.2161  0.8261  0.2003
 4148TIP3    H133859   6.071   0.689  15.323 -1.7684  0.7888  1.6759
 4148TIP3    H233860   6.032   0.732  15.183  1.9907  0.8371  0.5955
 4149TIP3   OH233861   5.902   2.715   4.826  0.3012 -0.0265  0.2122
 4149TIP3    H133862   5.875   2.789   4.772 -2.8162 -2.2921 -1.5249
 4149TIP3    H233863   5.991   2.694   4.795  0.3014  1.5377 -0.8765
 4150TIP3   OH233864   5.228   3.039  17.198  0.0622  0.1276 -0.2889
 4150TIP3    H133865   5.303   3.031  17.139 -0.4627 -2.4160 -0.6630
 4150TIP3    H233866   5.154   3.059  17.141  0.2817  1.8570 -0.0024
 4151TIP3   OH233867   6.072   4.399   5.381 -0.3252 -0.5238 -0.2130
 4151TIP3    H133868   6.075   4.466   5.450 -0.2355 -1.4972  0.7449
 4151TIP3    H233869   6.039   4.446   5.304 -0.5807  0.5507  0.5305
 4152TIP3   OH233870   4.617   2.910  16.350  0.4012  0.7001  0.1964
 4152TIP3    H133871   4.672   2.840  16.313 -1.2417 -1.4345  1.7028
 4152TIP3    H233872   4.680   2.977  16.378  2.1347 -0.9242  0.3039
 4153TIP3   OH233873   2.843   0.452   2.866 -0.0089 -0.0799  0.2534
 4153TIP3    H133874   2.871   0.487   2.950 -1.4381  1.0451  0.2918
 4153TIP3    H233875   2.814   0.529   2.816  0.2369 -0.8007 -1.0278
 4154TIP3   OH233876   1.363   1.962   5.517  0.1892  0.1099 -0.7077
 4154TIP3    H133877   1.430   1.987   5.453  0.7312 -0.2687 -0.3017
 4154TIP3    H233878   1.306   2.038   5.523  0.0351  0.0793 -1.7654
 4155TIP3   OH233879   4.638   4.091   2.428  0.3198  0.1279  0.4232
 4155TIP3    H133880   4.653   3.997   2.435  0.1728  0.1689  1.3992
 4155TIP3    H233881   4.701   4.121   2.362  2.1113 -0.2636  1.9002
 4156TIP3   OH233882   1.972   5.439  12.047 -0.1723 -0.3639 -0.0430
 4156TIP3    H133883   2.009   5.449  12.135 -0.4098  1.7604 -0.1655
 4156TIP3    H233884   2.023   5.368  12.008  0.7334 -0.5156  1.3774
 4157TIP3   OH233885   5.327   2.757   4.180 -0.6409 -0.1281 -0.0432
 4157TIP3    H133886   5.377   2.712   4.113  0.1691  0.9762 -0.1935
 4157TIP3    H233887   5.371   2.734   4.262 -0.7244 -0.2628 -0.0355
 4158TIP3   OH233888   0.486   6.697  15.317  0.5430  0.1894 -0.1964
 4158TIP3    H133889   0.510   6.759  15.387 -0.0978  1.2384 -0.8970
 4158TIP3    H233890   0.542   6.721  15.243  1.9669 -1.5913  0.2528
 4159TIP3   OH233891   5.993   2.386  10.407 -0.0134 -0.4047 -0.7263
 4159TIP3    H133892   5.963   2.461  10.459 -2.6974 -2.5765  1.0259
 4159TIP3    H233893   5.951   2.397  10.322 -1.1344 -0.3357 -0.1797
 4160TIP3   OH233894   6.224   1.100   3.930  0.1296 -0.4271  0.4010
 4160TIP3    H133895   6.220   1.027   3.868 -1.7457 -0.0754  0.0878
 4160TIP3    H233896   6.277   1.166   3.886 -0.3110 -0.5954 -0.3919
 4161TIP3   OH233897   6.624   1.992  14.863 -0.1749  0.5783 -0.4604
 4161TIP3    H133898   6.566   1.950  14.926 -1.0043  2.0204 -0.2328
 4161TIP3    H233899   6.684   2.044  14.916  1.3964 -0.9554 -0.6928
 4162TIP3   OH233900   0.496   4.018  12.207 -0.2343 -0.1108  0.0095
 4162TIP3    H133901   0.530   4.080  12.272  0.6098 -1.3500  0.7578
 4162TIP3    H233902   0.479   3.938  12.256 -1.9969 -0.2742 -0.8147
 4163TIP3   OH233903   4.735   1.557   3.803 -0.6221  0.0635 -0.2248
 4163TIP3    H133904   4.776   1.586   3.885 -0.5675 -0.6367 -0.0086
 4163TIP3    H233905   4.802   1.574   3.736  0.0445 -1.1182  0.1321
 4164TIP3   OH233906   3.225   2.589  15.868  0.1935 -0.0254  0.3050
 4164TIP3    H133907   3.164   2.516  15.857  0.0594  0.3145 -1.3084
 4164TIP3    H233908   3.293   2.554  15.927 -1.9648 -0.1116  2.8175
 4165TIP3   OH233909   3.296   5.484   1.918 -0.6112 -0.2247  0.1284
 4165TIP3    H133910   3.274   5.404   1.967  0.6586  0.2044  1.4369
 4165TIP3    H233911   3.245   5.552   1.961  1.5210  0.3879  1.7465
 4166TIP3   OH233912   4.910   2.927   1.369  0.2999  0.0235  0.1534
 4166TIP3    H133913   4.928   3.020   1.378 -0.6839  0.3025 -0.6633
 4166TIP3    H233914   4.890   2.915   1.276  3.0521 -1.4892 -0.2972
 4167TIP3   OH233915   0.561   2.717   1.941 -0.2314 -0.5373  0.2451
 4167TIP3    H133916   0.653   2.714   1.966 -0.7549  0.0579  2.3790
 4167TIP3    H233917   0.515   2.672   2.012 -1.5440 -1.3099 -1.0578
 4168TIP3   OH233918   3.059   4.940  13.882 -0.0289 -0.6106  0.9331
 4168TIP3    H133919   3.123   4.980  13.823 -2.0538 -0.3962 -1.1593
 4168TIP3    H233920   3.020   5.013  13.930 -1.1202 -0.3917 -0.2600
 4169TIP3   OH233921   1.023   4.733  16.315  0.1411  0.3472  0.0887
 4169TIP3    H133922   1.071   4.803  16.271  1.3776 -0.0809  0.7091
 4169TIP3    H233923   1.015   4.664  16.250  1.3444 -0.0075  0.3042
 4170TIP3   OH233924   2.925   0.304   1.319 -0.2225 -0.2790 -0.8109
 4170TIP3    H133925   2.892   0.214   1.326  0.6111 -0.5437 -0.2236
 4170TIP3    H233926   2.847   0.358   1.328 -0.5022 -0.8963  0.6928
 4171TIP3   OH233927   5.409   4.501   5.608  0.1015 -0.0278  0.0472
 4171TIP3    H133928   5.472   4.484   5.679  2.0787  0.8737 -1.4507
 4171TIP3    H233929   5.401   4.417   5.562  0.9133  0.0917 -0.3113
 4172TIP3   OH233930   2.793   0.602  12.867 -0.2865 -0.2866  0.3109
 4172TIP3    H133931   2.737   0.525  12.858 -0.4745  0.1055 -2.1121
 4172TIP3    H233932   2.764   0.661  12.798  1.5936  0.8641  0.4763
 4173TIP3   OH233933   2.043   3.703   5.538  0.0624 -0.2721 -0.1604
 4173TIP3    H133934   2.054   3.721   5.631 -1.5603 -1.4563  0.2699
 4173TIP3    H233935   1.995   3.621   5.534 -1.3511  0.5947 -2.0193
 4174TIP3   OH233936   0.742   1.540   1.999 -0.3412 -0.6212 -0.0023
 4174TIP3    H133937   0.835   1.552   2.018 -0.9126  0.8706  1.9571
 4174TIP3    H233938   0.741   1.480   1.924  2.1914 -0.4359 -0.2345
 4175TIP3   OH233939   3.804   4.425   4.873  0.2869  0.2654  0.7023
 4175TIP3    H133940   3.831   4.476   4.949  0.2069 -0.9295  1.5380
 4175TIP3    H233941   3.709   4.426   4.876  0.2940 -1.0500  1.4756
 4176TIP3   OH233942   6.362   2.348   5.052  0.7340 -0.5008  0.1027
 4176TIP3    H133943   6.338   2.272   5.000  1.2950 -0.8667  0.3617
 4176TIP3    H233944   6.372   2.313   5.141  0.3933 -0.0056  0.3370
 4177TIP3   OH233945   5.702   1.981  14.030  0.5989 -0.2076 -0.3997
 4177TIP3    H133946   5.632   1.915  14.030  1.3614 -1.0480 -1.7585
 4177TIP3    H233947   5.722   1.995  14.122  0.2354 -1.7066 -0.0793
 4178TIP3   OH233948   0.599   5.844  17.088 -0.2965  0.5780  0.1365
 4178TIP3    H133949   0.615   5.938  17.101  2.1049  0.4619 -1.6853
 4178TIP3    H233950   0.592   5.809  17.177  0.0126  2.2845  0.8661
 4179TIP3   OH233951   0.750   5.252  14.511  0.1423 -0.4316 -0.0420
 4179TIP3    H133952   0.818   5.185  14.521 -0.2736 -0.4118  3.6182
 4179TIP3    H233953   0.724   5.274  14.601 -2.5421  1.7902 -1.2702
 4180TIP3   OH233954   1.461   4.838  14.684 -0.9378  0.3238 -0.1335
 4180TIP3    H133955   1.511   4.919  14.693  1.9786 -1.2794 -1.1428
 4180TIP3    H233956   1.394   4.844  14.752 -1.2116  3.8289 -0.6092
 4181TIP3   OH233957   2.214   3.062   0.391 -0.5600  0.2581 -0.0432
 4181TIP3    H133958   2.296   3.087   0.349 -0.8691  2.3181  0.5132
 4181TIP3    H233959   2.146   3.099   0.334 -1.0665 -0.0202  0.3728
 4182TIP3   OH233960   4.818   6.320  17.153  0.4208 -0.1647  0.3386
 4182TIP3    H133961   4.834   6.414  17.148 -2.2270  0.3953  1.2557
 4182TIP3    H233962   4.763   6.300  17.077 -0.9796 -0.4915  1.4056
 4183TIP3   OH233963   5.823   0.672   5.733 -0.5705  0.3575  0.1219
 4183TIP3    H133964   5.825   0.759   5.692  0.5898  0.5848  0.6279
 4183TIP3    H233965   5.789   0.688   5.820 -1.0791  0.1854 -0.0450
 4184TIP3   OH233966   2.342   1.705  12.937  0.6682 -0.3210 -0.1647
 4184TIP3    H133967   2.379   1.617  12.932  1.7030  0.1439 -0.9833
 4184TIP3    H233968   2.374   1.739  13.021  0.8149 -0.5026 -0.1465
 4185TIP3   OH233969   1.020   4.254   0.638 -0.0433  0.2888 -0.1116
 4185TIP3    H133970   1.090   4.309   0.602 -0.5241  1.4338  0.6558
 4185TIP3    H233971   0.999   4.192   0.568 -0.1565  1.7184 -1.3661
 4186TIP3   OH233972   3.040   3.044   3.568  0.2152 -0.5829  0.3016
 4186TIP3    H133973   2.954   3.077   3.542 -0.4590 -1.2752  1.6121
 4186TIP3    H233974   3.054   2.968   3.511  0.3491  0.0376 -0.5041
 4187TIP3   OH233975   2.602   6.264   1.918 -0.0219 -0.1097 -0.1346
 4187TIP3    H133976   2.579   6.268   1.825  0.9911  0.2490 -0.3784
 4187TIP3    H233977   2.573   6.347   1.953  0.8645  0.3327 -0.4363
 4188TIP3   OH233978   6.749   2.403  14.351 -0.2924  0.3155 -0.7626
 4188TIP3    H133979   6.679   2.430  14.411 -0.4063  0.4431 -0.9551
 4188TIP3    H233980   6.779   2.484  14.311 -0.1326  0.2434 -0.7904
 4189TIP3   OH233981   4.877   3.962   2.275  0.1396 -0.7182 -0.1380
 4189TIP3    H133982   4.925   3.906   2.215 -1.4090 -3.4506  1.0767
 4189TIP3    H233983   4.918   3.948   2.360 -0.6947 -0.5604  0.2981
 4190TIP3   OH233984   5.784   6.215   2.388  0.2643  0.0698 -0.4299
 4190TIP3    H133985   5.696   6.209   2.350  0.4263 -0.0609 -0.7969
 4190TIP3    H233986   5.803   6.308   2.391 -0.3181  0.1547  0.6695
 4191TIP3   OH233987   2.827   0.007   2.278  0.2735  0.3721  0.6064
 4191TIP3    H133988   2.841   0.097   2.307 -1.4174  0.2962  1.6771
 4191TIP3    H233989   2.853  -0.046   2.352  0.4848 -0.0079  0.2639
 4192TIP3   OH233990   4.404   2.935  11.729 -0.0976 -0.3706  0.2429
 4192TIP3    H133991   4.327   2.944  11.673  0.6458 -0.1158 -0.7566
 4192TIP3    H233992   4.476   2.921  11.667  0.9028  0.9815  1.0897
 4193TIP3   OH233993   4.481   5.469   4.828 -0.0362  0.0148 -0.2730
 4193TIP3    H133994   4.401   5.513   4.800  0.5905  1.2148 -0.2211
 4193TIP3    H233995   4.475   5.382   4.789 -0.2621  0.8769 -2.2432
 4194TIP3   OH233996   2.374   4.715   1.975  0.6634  0.1435  0.2199
 4194TIP3    H133997   2.470   4.716   1.979  0.7441 -1.6269 -0.6941
 4194TIP3    H233998   2.348   4.650   2.039  0.1855 -0.8167 -0.9289
 4195TIP3   OH233999   3.700   4.100   0.781  0.4711  0.0529 -0.0005
 4195TIP3    H134000   3.671   4.070   0.694  1.0553 -2.1910  0.5401
 4195TIP3    H234001   3.656   4.042   0.842  1.1211  0.7434  1.1338
 4196TIP3   OH234002   1.443   5.130  14.186 -0.1842  0.6703  0.4408
 4196TIP3    H134003   1.501   5.114  14.260 -1.1821  0.6820  1.2259
 4196TIP3    H234004   1.408   5.218  14.201 -2.0288 -0.1467  1.0857
 4197TIP3   OH234005   6.169   0.211  12.843  0.6049 -0.3161  0.1818
 4197TIP3    H134006   6.128   0.217  12.757  1.4925  1.1105 -0.1612
 4197TIP3    H234007   6.247   0.266  12.836  0.2594  0.4636  2.1581
 4198TIP3   OH234008   0.545   2.977  15.168 -0.9997  0.7490 -0.1320
 4198TIP3    H134009   0.611   2.999  15.103 -0.2615 -1.2200 -0.0877
 4198TIP3    H234010   0.465   3.018  15.136 -0.5269  0.2242 -2.0264
 4199TIP3   OH234011   0.311   0.248  14.595  0.1384  0.1903  0.4167
 4199TIP3    H134012   0.228   0.238  14.548 -0.4500  0.0369  1.4570
 4199TIP3    H234013   0.364   0.305  14.539 -0.4632 -0.1555 -0.5212
 4200TIP3   OH234014   4.060   3.597  13.432  0.2184  0.5850 -0.1052
 4200TIP3    H134015   4.054   3.679  13.384 -1.4183 -0.5322 -1.8955
 4200TIP3    H234016   3.994   3.606  13.502 -0.3197  0.6192 -0.6077
 4201TIP3   OH234017   4.522   4.335  16.075 -0.3362 -0.1454  0.5053
 4201TIP3    H134018   4.561   4.413  16.034 -0.4076 -1.7542 -2.7267
 4201TIP3    H234019   4.598   4.283  16.103 -0.2727  0.3340  1.2375
 4202TIP3   OH234020   5.257   0.355  11.355 -0.3598 -0.1320  0.5310
 4202TIP3    H134021   5.245   0.260  11.350  0.8546 -0.3795  1.9875
 4202TIP3    H234022   5.302   0.378  11.274 -0.6065 -0.8090  0.1983
 4203TIP3   OH234023   1.665   3.424  12.692 -0.1240 -0.9581 -0.0620
 4203TIP3    H134024   1.591   3.396  12.746  0.6783 -1.1589  0.9591
 4203TIP3    H234025   1.652   3.518  12.681 -0.0525 -0.8362  0.8720
 4204TIP3   OH234026   2.967   4.302  12.287 -0.0986  0.4161  0.2875
 4204TIP3    H134027   3.006   4.315  12.200 -2.7171 -1.6003 -1.2884
 4204TIP3    H234028   2.980   4.209  12.305 -1.0902  0.4584  1.2706
 4205TIP3   OH234029   1.599   3.591   4.161 -0.6879 -0.3040  0.9087
 4205TIP3    H134030   1.671   3.621   4.216  0.4330 -1.5155  0.1426
 4205TIP3    H234031   1.554   3.524   4.213  0.2649 -1.3232  0.4492
 4206TIP3   OH234032   6.263   2.963   5.797 -0.0628  0.4487  0.0353
 4206TIP3    H134033   6.249   2.971   5.703 -2.8106  2.2321  0.5282
 4206TIP3    H234034   6.251   3.052   5.831 -0.0268 -0.3223  2.1701
 4207TIP3   OH234035   5.588   1.639   5.213  0.0487  0.4107 -0.5260
 4207TIP3    H134036   5.589   1.544   5.202  0.1889  0.1886  1.1579
 4207TIP3    H234037   5.516   1.655   5.274  1.4829  1.1458  1.0147
 4208TIP3   OH234038   3.999   1.083  15.316  0.6489 -0.2487  0.0905
 4208TIP3    H134039   3.919   1.065  15.364 -0.3359  0.4621 -1.2590
 4208TIP3    H234040   3.971   1.100  15.226  2.6436 -3.4976 -1.2307
 4209TIP3   OH234041   5.632   4.836   4.028 -0.1073  0.0938 -0.4619
 4209TIP3    H134042   5.610   4.808   3.939 -1.4280 -0.5015  0.0415
 4209TIP3    H234043   5.549   4.834   4.075  0.8454 -1.1480  1.2102
 4210TIP3   OH234044   2.693   5.206  16.309  0.2741 -0.2277  0.1367
 4210TIP3    H134045   2.683   5.115  16.339 -0.7524 -0.1118  0.1522
 4210TIP3    H234046   2.788   5.217  16.300  0.4707 -0.9913  1.0871
 4211TIP3   OH234047   2.634   4.229   2.589 -0.2144 -0.0363 -0.3816
 4211TIP3    H134048   2.719   4.230   2.631 -1.6677  1.9633  2.7213
 4211TIP3    H234049   2.652   4.250   2.497  2.4923  2.3973  0.6268
 4212TIP3   OH234050   2.306   0.646   3.908  0.5681  0.2311 -0.1330
 4212TIP3    H134051   2.364   0.580   3.872  1.4542  0.5255  0.7335
 4212TIP3    H234052   2.289   0.617   3.998 -1.4390 -0.3861 -0.6848
 4213TIP3   OH234053   5.115   4.803   4.724  0.0943 -0.9239 -0.3843
 4213TIP3    H134054   5.116   4.750   4.804  0.9518 -2.5901 -1.4608
 4213TIP3    H234055   5.029   4.786   4.685  0.0352 -0.8477 -0.2869
 4214TIP3   OH234056   5.039   3.287   0.086  0.1854  0.5417 -0.6720
 4214TIP3    H134057   5.061   3.194   0.094 -0.7596  0.3527 -0.0754
 4214TIP3    H234058   4.953   3.294   0.127 -0.1538  1.5218 -1.5308
 4215TIP3   OH234059   1.999   3.880  15.937 -0.3393 -0.6297 -0.5063
 4215TIP3    H134060   2.038   3.827  15.867  0.8981 -0.8779  0.3747
 4215TIP3    H234061   2.020   3.833  16.018 -0.8061  0.2483  0.1307
 4216TIP3   OH234062   1.222   6.028   1.424  0.6018 -0.1042  0.1437
 4216TIP3    H134063   1.133   6.038   1.457  0.9394  0.1005  1.0082
 4216TIP3    H234064   1.211   5.987   1.338 -0.3794  0.9545 -0.2411
 4217TIP3   OH234065   1.868   1.671   4.941  0.0128  0.0334  0.3977
 4217TIP3    H134066   1.934   1.662   4.872 -0.2817  1.5335 -0.0814
 4217TIP3    H234067   1.794   1.714   4.898 -0.0038  1.3888  1.7544
 4218TIP3   OH234068   3.264   5.398  12.424 -0.1899  0.2063  0.2930
 4218TIP3    H134069   3.182   5.386  12.375  0.6729 -1.1557 -0.8288
 4218TIP3    H234070   3.244   5.364  12.511 -0.6621 -0.6209 -0.1298
 4219TIP3   OH234071   4.145   1.025   2.537  0.2627  0.3784  0.1909
 4219TIP3    H134072   4.169   1.072   2.456  0.8082  1.4782  0.9820
 4219TIP3    H234073   4.075   1.078   2.575 -0.2765 -0.3642  0.2316
 4220TIP3   OH234074   0.660   3.775  11.125  0.2124  0.9728 -0.7398
 4220TIP3    H134075   0.624   3.836  11.061 -0.1713  1.1447 -0.3659
 4220TIP3    H234076   0.664   3.691  11.079 -1.1618  0.8332 -0.6280
 4221TIP3   OH234077   3.610   3.908   3.346 -0.1600 -0.0880 -0.3152
 4221TIP3    H134078   3.608   3.978   3.281 -0.7206 -0.0473 -0.2611
 4221TIP3    H234079   3.599   3.827   3.296  0.5172 -0.1405 -0.3811
 4222TIP3   OH234080   5.674   6.017  15.111 -0.3215 -0.4089 -0.4111
 4222TIP3    H134081   5.614   6.024  15.185 -0.0644 -0.8659 -0.1625
 4222TIP3    H234082   5.710   6.105  15.102 -1.8392  0.1455 -1.2440
 4223TIP3   OH234083   4.537   5.815  16.917 -0.1466  0.5143  0.4537
 4223TIP3    H134084   4.596   5.794  16.844 -0.5391  0.3208  0.1913
 4223TIP3    H234085   4.449   5.802  16.881 -0.3352  0.2552  1.0162
 4224TIP3   OH234086   0.621   1.622  11.389 -0.2964 -0.3398 -0.1025
 4224TIP3    H134087   0.586   1.704  11.353  2.7569  1.4257  0.7383
 4224TIP3    H234088   0.589   1.554  11.329 -1.3229  1.6778 -1.9427
 4225TIP3   OH234089   4.382   5.596   2.119 -0.5071 -0.2018  0.1139
 4225TIP3    H134090   4.304   5.600   2.064 -0.6949  0.3697  0.4124
 4225TIP3    H234091   4.421   5.683   2.111  0.1013 -0.4926 -0.0445
 4226TIP3   OH234092   2.634   6.573  15.891 -0.4020  0.1059 -0.0278
 4226TIP3    H134093   2.660   6.504  15.953  1.0240  0.9436  0.3188
 4226TIP3    H234094   2.704   6.573  15.826 -1.8387 -0.6983 -1.6173
 4227TIP3   OH234095   5.116   0.760  13.092 -0.1208 -0.3779 -0.1019
 4227TIP3    H134096   5.191   0.722  13.045  0.0711 -0.2762  0.1200
 4227TIP3    H234097   5.064   0.802  13.023 -1.0044 -2.1244 -0.5301
 4228TIP3   OH234098   0.721   6.569  12.556 -0.1823 -0.4116  0.6448
 4228TIP3    H134099   0.751   6.508  12.488 -0.4517 -1.4517  1.4466
 4228TIP3    H234100   0.663   6.516  12.611  0.5975  0.2356  2.1073
 4229TIP3   OH234101   3.962   1.406   4.477 -0.0716  0.3965 -0.2080
 4229TIP3    H134102   4.019   1.481   4.461 -2.0820  1.8133 -0.9635
 4229TIP3    H234103   3.999   1.335   4.425 -0.8067  2.1835 -3.2366
 4230TIP3   OH234104   4.262   4.381  15.046 -0.4107  0.4787 -0.0003
 4230TIP3    H134105   4.313   4.459  15.063 -0.1264 -0.3078  3.1038
 4230TIP3    H234106   4.311   4.334  14.979  1.1534  1.3991  0.4725
 4231TIP3   OH234107   5.953   0.198  15.034 -0.1659 -0.4559  0.0488
 4231TIP3    H134108   5.950   0.266  15.102 -0.4500  0.6627 -1.0808
 4231TIP3    H234109   6.045   0.192  15.010 -0.2484  0.0873 -0.4077
 4232TIP3   OH234110   6.230   2.625   3.336  0.1135  0.0227  0.0383
 4232TIP3    H134111   6.158   2.669   3.382 -0.2568 -0.0960 -0.4276
 4232TIP3    H234112   6.280   2.582   3.405 -0.6279 -0.4282  0.2988
 4233TIP3   OH234113   0.525   2.421   2.313  0.2287  0.1093  0.2978
 4233TIP3    H134114   0.462   2.360   2.276  0.5988  0.0060 -0.1630
 4233TIP3    H234115   0.499   2.507   2.279 -0.2153  0.1903  0.8434
 4234TIP3   OH234116   2.872   2.509  12.830  0.2639  0.4190  0.5620
 4234TIP3    H134117   2.794   2.561  12.846  0.0782  0.5037 -0.5723
 4234TIP3    H234118   2.945   2.570  12.841  0.0720  0.7897 -0.2534
 4235TIP3   OH234119   3.861   6.062  14.560  0.2762 -0.0437 -0.2580
 4235TIP3    H134120   3.908   6.002  14.619  1.6269  0.3096 -0.9504
 4235TIP3    H234121   3.779   6.017  14.541 -1.0915  0.7613  3.5149
 4236TIP3   OH234122   2.104   4.199  16.616  0.3090  0.2001 -0.1556
 4236TIP3    H134123   2.128   4.116  16.574  0.7128  0.2352  0.0063
 4236TIP3    H234124   2.035   4.175  16.678 -0.1954  0.1251 -0.7334
 4237TIP3   OH234125   5.116   5.071  12.872  0.4170 -0.3084  0.0347
 4237TIP3    H134126   5.205   5.053  12.840  0.2029  0.4374 -1.0081
 4237TIP3    H234127   5.064   5.080  12.792 -0.1880  1.3309  0.6017
 4238TIP3   OH234128   3.365   2.944   0.747  1.0948  0.0281 -0.1753
 4238TIP3    H134129   3.350   2.865   0.798 -1.3439 -0.3935 -1.4492
 4238TIP3    H234130   3.363   2.914   0.656 -1.2008  1.6837 -0.7304
 4239TIP3   OH234131   2.749   3.112  17.147  0.0177 -0.2493  0.5274
 4239TIP3    H134132   2.824   3.168  17.125  0.2170 -0.1507  1.4048
 4239TIP3    H234133   2.783   3.055  17.217 -1.0300  0.5175  1.6886
 4240TIP3   OH234134   3.924   6.529   4.138  0.7671 -0.1771  0.0360
 4240TIP3    H134135   3.892   6.472   4.207 -2.0133 -0.5382 -1.4936
 4240TIP3    H234136   3.848   6.581   4.111  2.0651  0.8037 -1.9069
 4241TIP3   OH234137   2.881   0.535   0.281  0.4569  0.0813  0.3234
 4241TIP3    H134138   2.932   0.474   0.334  1.2292  0.7061  0.3075
 4241TIP3    H234139   2.924   0.533   0.195 -0.4197 -0.4689 -0.1194
 4242TIP3   OH234140   1.001   1.754   2.062  0.1632 -0.3548  0.9428
 4242TIP3    H134141   1.093   1.726   2.060  0.5294  0.8944  0.2963
 4242TIP3    H234142   0.981   1.762   2.156  0.8872 -0.0396  1.0725
 4243TIP3   OH234143   5.749   5.835   3.432 -0.0319 -0.3537 -0.4534
 4243TIP3    H134144   5.677   5.815   3.491 -0.3410  1.8846 -0.0208
 4243TIP3    H234145   5.791   5.750   3.415  0.2456 -1.0118  3.1682
 4244TIP3   OH234146   1.407   1.597   1.137  0.0829 -0.0089  0.0110
 4244TIP3    H134147   1.430   1.676   1.186  0.8416 -1.2609  1.7096
 4244TIP3    H234148   1.473   1.592   1.067  1.4091 -0.3689  1.2762
 4245TIP3   OH234149   6.595   5.117  12.703  0.2828  0.7825  0.1849
 4245TIP3    H134150   6.680   5.087  12.672 -0.0214 -0.1467  0.2111
 4245TIP3    H234151   6.596   5.097  12.797 -0.0225  0.6237  0.1552
 4246TIP3   OH234152   1.123   4.132  15.621  0.0794 -0.0131 -0.3032
 4246TIP3    H134153   1.149   4.092  15.704 -0.1646 -1.1419 -0.7634
 4246TIP3    H234154   1.034   4.164  15.637  0.2223  0.2268  0.0254
 4247TIP3   OH234155   3.685   0.315   1.314 -0.2665 -0.0780 -0.0179
 4247TIP3    H134156   3.599   0.357   1.325 -0.5766 -0.7392  0.0802
 4247TIP3    H234157   3.666   0.232   1.270  0.0390 -1.4334  2.3139
 4248TIP3   OH234158   3.298   2.089  10.598 -0.0902 -0.5517 -0.3368
 4248TIP3    H134159   3.277   2.171  10.641  0.9175  0.1704 -1.2037
 4248TIP3    H234160   3.214   2.055  10.567 -0.6885 -0.5811  1.2866
 4249TIP3   OH234161   6.073   4.798  15.922  0.3733  0.2957 -0.2169
 4249TIP3    H134162   6.081   4.703  15.920  2.0171  0.4335 -1.0795
 4249TIP3    H234163   5.983   4.814  15.950  0.7256 -1.4808  2.0170
 4250TIP3   OH234164   3.813   2.930  14.262  0.1292 -0.4271 -0.0110
 4250TIP3    H134165   3.881   2.965  14.205 -1.0681  1.0174 -0.6119
 4250TIP3    H234166   3.829   2.972  14.346 -1.9745  2.5704 -1.0209
 4251TIP3   OH234167   5.750   5.477   0.639 -1.1483  0.3087 -0.2335
 4251TIP3    H134168   5.674   5.476   0.696 -0.7585 -0.3868  0.2862
 4251TIP3    H234169   5.729   5.541   0.571 -1.6336  1.1219  0.6699
 4252TIP3   OH234170   1.227   0.452   4.043  0.5717  0.1880  0.6528
 4252TIP3    H134171   1.159   0.516   4.020  2.5907  1.8329 -0.8420
 4252TIP3    H234172   1.204   0.375   3.991 -0.5035  0.5205  0.6103
 4253TIP3   OH234173   5.966   4.423   2.898 -0.1130  0.4550 -0.3326
 4253TIP3    H134174   5.875   4.413   2.869 -0.8152  2.5334  1.0600
 4253TIP3    H234175   5.971   4.370   2.977 -0.3545  1.0821  0.0983
 4254TIP3   OH234176   3.639   5.971   4.780 -0.3145  0.0151  0.1013
 4254TIP3    H134177   3.587   5.986   4.859 -1.4600  2.0545 -1.0061
 4254TIP3    H234178   3.726   6.007   4.801 -0.2201 -0.6524  0.8791
 4255TIP3   OH234179   2.668   3.311   6.457 -0.5558 -0.2883 -0.1301
 4255TIP3    H134180   2.663   3.378   6.525 -1.2785  1.2198 -1.6313
 4255TIP3    H234181   2.645   3.357   6.376  0.4147 -2.0156 -1.4278
 4256TIP3   OH234182   0.506   6.073  11.949  0.1400 -0.2212  0.5652
 4256TIP3    H134183   0.478   6.164  11.960 -1.6926 -0.9349  2.2377
 4256TIP3    H234184   0.574   6.076  11.882 -1.1836  2.1544 -0.7337
 4257TIP3   OH234185   3.528   5.082  16.527  0.2933 -0.1513  0.1031
 4257TIP3    H134186   3.508   5.152  16.466  1.3038  0.2346  0.2163
 4257TIP3    H234187   3.481   5.106  16.607  0.0993  0.0443 -0.0679
 4258TIP3   OH234188   0.292   3.507  12.979  0.0840  0.0467  0.1435
 4258TIP3    H134189   0.283   3.455  13.059 -0.0853  0.9434  0.7193
 4258TIP3    H234190   0.280   3.444  12.908 -0.4800 -0.6315  0.8309
 4259TIP3   OH234191   5.462   2.914  16.071  0.0418  0.5440 -0.3067
 4259TIP3    H134192   5.488   2.852  16.138  0.9004 -1.8100 -2.7225
 4259TIP3    H234193   5.538   2.971  16.061 -0.2935  1.2538  1.0552
 4260TIP3   OH234194   1.551   5.994  17.131  0.3366 -0.0235 -0.3240
 4260TIP3    H134195   1.641   6.009  17.159  0.3117  1.3743 -0.9381
 4260TIP3    H234196   1.558   5.931  17.060  1.0167  1.4786 -1.6119
 4261TIP3   OH234197   5.896   4.802   5.581  0.4825  0.3040  0.0804
 4261TIP3    H134198   5.916   4.811   5.487  3.5840  0.2816  0.6603
 4261TIP3    H234199   5.835   4.873   5.600  0.4886  0.8466 -1.7727
 4262TIP3   OH234200   0.937   4.885   5.634  0.7353  0.4431 -0.3778
 4262TIP3    H134201   0.916   4.976   5.613 -1.9899 -0.3079 -1.1258
 4262TIP3    H234202   0.858   4.837   5.611  2.2102 -2.1488 -0.1424
 4263TIP3   OH234203   5.836   5.516  13.533  0.3561  0.2225  0.0481
 4263TIP3    H134204   5.791   5.438  13.565  0.2576 -0.9879 -2.9408
 4263TIP3    H234205   5.929   5.496  13.545  0.3032  0.0553  0.1843
 4264TIP3   OH234206   1.915   1.040   2.749 -0.2445  0.2515 -0.1245
 4264TIP3    H134207   1.953   0.952   2.758  1.5347  1.0198  0.0717
 4264TIP3    H234208   1.949   1.088   2.824 -1.4316  1.0337 -0.0898
 4265TIP3   OH234209   3.247   0.283  14.283 -0.2213 -0.0980  0.2206
 4265TIP3    H134210   3.334   0.259  14.249  0.8400  1.4455  1.7388
 4265TIP3    H234211   3.264   0.306  14.375 -2.4027 -0.6353  0.7763
 4266TIP3   OH234212   6.497   6.673  12.826 -0.2613 -0.3241  0.3125
 4266TIP3    H134213   6.494   6.585  12.788  1.9902  0.0165 -0.7083
 4266TIP3    H234214   6.531   6.661  12.914  1.0166 -0.3810 -0.1823
 4267TIP3   OH234215   3.621   4.828  11.945  0.2133 -0.4448  0.2096
 4267TIP3    H134216   3.694   4.878  11.909 -0.6093  1.1583  0.7023
 4267TIP3    H234217   3.571   4.892  11.997 -0.2313 -2.0324  1.8118
 4268TIP3   OH234218   6.262   6.736  10.495  0.1262 -0.1692  0.1532
 4268TIP3    H134219   6.234   6.649  10.525 -0.8903  0.8891  2.3543
 4268TIP3    H234220   6.229   6.796  10.561  4.9114  1.5077  1.2719
 4269TIP3   OH234221   5.105   3.892  12.827 -0.1757 -0.5609 -0.0175
 4269TIP3    H134222   5.017   3.926  12.843 -0.1528  0.4283 -1.8772
 4269TIP3    H234223   5.093   3.821  12.764  0.2699 -1.0187  0.4031
 4270TIP3   OH234224   2.481   4.770   6.643  0.1098  0.1046 -0.2859
 4270TIP3    H134225   2.482   4.709   6.569  0.1447  0.4624 -0.5830
 4270TIP3    H234226   2.413   4.834   6.621 -0.0671  0.0603  0.1184
 4271TIP3   OH234227   5.791   3.169  13.824  0.7792  0.0399 -0.0001
 4271TIP3    H134228   5.847   3.244  13.840 -1.8502  2.1569 -0.4265
 4271TIP3    H234229   5.731   3.167  13.899 -0.6066 -0.2750 -1.0877
 4272TIP3   OH234230   3.695   4.015   5.115  0.2601 -0.5990 -0.4738
 4272TIP3    H134231   3.760   4.053   5.056 -1.3599  1.3577 -1.0491
 4272TIP3    H234232   3.740   4.005   5.199  1.0627  1.5302 -0.6383
 4273TIP3   OH234233   0.120   2.633  13.994 -0.1037  0.4057 -0.6506
 4273TIP3    H134234   0.142   2.660  13.905 -0.3103 -0.1627 -0.8775
 4273TIP3    H234235   0.179   2.560  14.012  0.0984  0.6675 -0.2333
 4274TIP3   OH234236   5.035   2.694  12.976  0.2773 -0.8762 -0.4614
 4274TIP3    H134237   5.083   2.774  12.956 -0.4400 -0.8268 -1.9728
 4274TIP3    H234238   5.104   2.629  12.996  0.8865 -0.1986 -0.3442
 4275TIP3   OH234239   0.959   2.179  16.379  0.3514 -0.1441 -0.1891
 4275TIP3    H134240   0.866   2.163  16.369  0.4007  0.1216 -1.1075
 4275TIP3    H234241   0.995   2.095  16.411  0.2350 -1.1569 -2.5907
 4276TIP3   OH234242   1.754   5.332  12.250  0.1088 -0.0677 -0.5341
 4276TIP3    H134243   1.828   5.385  12.276  0.5558 -1.4818  1.2008
 4276TIP3    H234244   1.792   5.250  12.219 -0.6878 -0.4012 -0.6661
 4277TIP3   OH234245   1.358   3.515   1.824 -0.4660  0.4277  0.7499
 4277TIP3    H134246   1.323   3.579   1.886 -4.2178  0.8648 -1.6776
 4277TIP3    H234247   1.298   3.440   1.829 -0.0240 -0.1109 -1.3076
 4278TIP3   OH234248   3.312   5.052  13.685 -0.1730 -0.1814 -0.2756
 4278TIP3    H134249   3.277   5.132  13.645  0.6322 -0.0253 -0.6609
 4278TIP3    H234250   3.382   5.083  13.742 -0.4751 -0.5298  0.2883
 4279TIP3   OH234251   4.945   1.007   3.076 -0.1712  0.3604  0.0555
 4279TIP3    H134252   4.966   1.099   3.092  0.5482  0.5077 -1.5690
 4279TIP3    H234253   4.889   1.009   2.998 -0.6521 -0.5263  0.3812
 4280TIP3   OH234254   1.927   0.708  13.692 -0.4299  0.0155  0.0654
 4280TIP3    H134255   1.951   0.766  13.620  1.4069 -0.2121  0.4604
 4280TIP3    H234256   1.831   0.702  13.687 -0.6016  2.5493 -0.3475
 4281TIP3   OH234257   2.612   2.930   5.071  0.2059 -0.4534 -0.5772
 4281TIP3    H134258   2.649   2.980   4.997 -0.2088 -0.5165 -0.8275
 4281TIP3    H234259   2.568   2.996   5.124  1.1065 -0.2994 -0.0048
 4282TIP3   OH234260   6.749   5.778   2.253 -0.3227  0.3205 -0.4728
 4282TIP3    H134261   6.711   5.703   2.299  1.2693 -0.6096 -0.6405
 4282TIP3    H234262   6.705   5.854   2.292 -0.8907 -0.5997  0.7354
 4283TIP3   OH234263   5.872   0.547  11.763 -0.7685 -0.3924 -0.1124
 4283TIP3    H134264   5.853   0.454  11.756 -2.6409 -0.0822  0.5041
 4283TIP3    H234265   5.837   0.572  11.849  0.8471  0.6291  0.2858
 4284TIP3   OH234266   6.755   2.905   3.506  0.2436  0.0308  0.0070
 4284TIP3    H134267   6.729   2.835   3.446 -0.7539  0.8052 -0.4809
 4284TIP3    H234268   6.719   2.879   3.590  1.1917 -0.7941  0.1789
 4285TIP3   OH234269   0.903   0.669  13.919 -0.1045 -0.5981 -0.2173
 4285TIP3    H134270   0.851   0.623  13.853  0.2868  3.0038 -3.1555
 4285TIP3    H234271   0.974   0.608  13.939 -0.4334 -1.9514 -2.8831
 4286TIP3   OH234272   2.012   6.383   0.845  0.5532 -0.0151 -0.1060
 4286TIP3    H134273   2.000   6.391   0.940  2.9441 -1.4771  0.3827
 4286TIP3    H234274   1.945   6.439   0.807 -1.1514 -0.2515  2.4337
 4287TIP3   OH234275   1.607   6.283  13.753  0.4693  0.1042  0.8164
 4287TIP3    H134276   1.636   6.204  13.798 -0.4098 -1.2685 -0.9798
 4287TIP3    H234277   1.515   6.269  13.735  0.4276  1.3073  0.0119
 4288TIP3   OH234278   0.202   6.729   0.195 -0.0401  0.1076  0.1516
 4288TIP3    H134279   0.208   6.694   0.284 -0.1392  0.0780  0.1467
 4288TIP3    H234280   0.230   6.821   0.204 -1.3328  0.4831  0.4463
 4289TIP3   OH234281   2.000   2.158   3.502 -0.2051 -0.0837 -0.2422
 4289TIP3    H134282   1.924   2.100   3.495 -2.2270  2.7531 -2.8961
 4289TIP3    H234283   1.977   2.221   3.569  0.2931  0.1007 -0.2370
 4290TIP3   OH234284   2.935   2.233  11.064 -0.2262 -0.1291  0.7824
 4290TIP3    H134285   2.956   2.153  11.015 -0.4913  1.9129 -2.8152
 4290TIP3    H234286   2.840   2.231  11.072 -0.4262  0.7095 -1.0230
 4291TIP3   OH234287   6.314   5.789   2.707  0.3672  0.2310  0.0685
 4291TIP3    H134288   6.229   5.809   2.666  0.6172 -0.9576 -1.0763
 4291TIP3    H234289   6.315   5.842   2.786 -2.0598 -0.8101  0.8491
 4292TIP3   OH234290   1.337   6.513   0.357  0.0671  0.1486 -0.1114
 4292TIP3    H134291   1.243   6.528   0.364 -0.1421 -0.9326 -0.4863
 4292TIP3    H234292   1.344   6.425   0.319  1.2019  1.0675 -2.1025
 4293TIP3   OH234293   0.961   0.400  11.340 -0.1912 -0.0829  0.2310
 4293TIP3    H134294   1.021   0.394  11.266  0.9309  0.0775  1.1032
 4293TIP3    H234295   1.018   0.395  11.417 -1.3705 -0.5948  1.0850
 4294TIP3   OH234296   0.598   3.898   3.790  0.2822 -0.1124 -0.2847
 4294TIP3    H134297   0.614   3.925   3.700  1.1810  1.9917  0.4828
 4294TIP3    H234298   0.592   3.979   3.840 -1.1493 -1.2200  1.4164
 4295TIP3   OH234299   2.437   0.245  12.387  0.0035 -0.0068  0.1197
 4295TIP3    H134300   2.351   0.210  12.365  0.1278  0.4168 -1.0840
 4295TIP3    H234301   2.496   0.170  12.383 -0.0580 -0.0239 -0.5385
 4296TIP3   OH234302   4.064   1.225   5.356 -0.1658 -0.7242  0.2372
 4296TIP3    H134303   4.041   1.307   5.400  0.4379 -0.0065 -0.7640
 4296TIP3    H234304   4.041   1.240   5.264 -1.0780 -2.0725  0.2267
 4297TIP3   OH234305   5.497   6.457   4.976 -0.2096 -0.6482  0.4441
 4297TIP3    H134306   5.424   6.417   4.929  0.0669 -0.0563 -0.5109
 4297TIP3    H234307   5.470   6.457   5.067 -2.1464  1.0948 -0.0879
 4298TIP3   OH234308   1.663   6.075   4.000 -0.5869  0.3889  0.0695
 4298TIP3    H134309   1.730   6.113   3.942  0.3253 -4.1023 -2.0848
 4298TIP3    H234310   1.711   6.045   4.077  0.0677 -2.9126 -1.5136
 4299TIP3   OH234311   0.581   5.936  14.332 -0.7746 -0.0779 -0.1218
 4299TIP3    H134312   0.610   5.947  14.422  0.7896  2.7611 -0.9278
 4299TIP3    H234313   0.490   5.966  14.332 -0.4063  1.0489  0.2796
 4300TIP3   OH234314   3.421   6.762   0.155  0.0759  0.1612 -1.1519
 4300TIP3    H134315   3.336   6.783   0.115  0.4888  1.7683 -1.1903
 4300TIP3    H234316   3.445   6.841   0.203 -0.1849 -1.5584  1.9492
 4301TIP3   OH234317   3.790   0.373   4.994 -0.3376  0.6002 -0.1120
 4301TIP3    H134318   3.733   0.442   5.029  0.6925  0.7503  1.3341
 4301TIP3    H234319   3.764   0.364   4.902 -0.7270  2.6775 -0.2320
 4302TIP3   OH234320   1.306   0.706   4.832  0.2901  1.1114 -0.5074
 4302TIP3    H134321   1.363   0.756   4.774  0.5883  1.6436  0.2304
 4302TIP3    H234322   1.305   0.756   4.914 -0.9402  0.9176 -0.3839
 4303TIP3   OH234323   1.359   3.323  13.157 -0.5210 -0.4096 -0.2153
 4303TIP3    H134324   1.372   3.234  13.189  1.4241 -0.5029 -1.1786
 4303TIP3    H234325   1.438   3.342  13.106 -1.1960  1.6296 -0.5583
 4304TIP3   OH234326   2.227   1.509   5.064 -0.0324 -0.5542  0.0991
 4304TIP3    H134327   2.300   1.487   5.123  0.5659  0.4797 -0.2531
 4304TIP3    H234328   2.158   1.447   5.089  0.6202 -0.9131  1.0897
 4305TIP3   OH234329   0.581   0.905  11.379  0.0717 -0.3346 -0.8195
 4305TIP3    H134330   0.544   0.913  11.291 -0.4560 -0.8237 -0.6482
 4305TIP3    H234331   0.623   0.989  11.396 -0.3534 -0.0234 -1.2988
 4306TIP3   OH234332   2.788   5.671  14.141  0.1343 -0.0057 -0.5776
 4306TIP3    H134333   2.756   5.651  14.229  1.1705  1.2799  0.1169
 4306TIP3    H234334   2.769   5.764  14.129  0.8082  0.0384 -1.3616
 4307TIP3   OH234335   5.591   4.462  14.253 -0.3172  0.2840  0.8992
 4307TIP3    H134336   5.575   4.449  14.347 -0.6536 -2.1500  0.5419
 4307TIP3    H234337   5.514   4.511  14.223 -1.1375 -0.5585  1.5575
 4308TIP3   OH234338   2.952   0.521   2.064 -0.6866  0.4207 -0.3567
 4308TIP3    H134339   3.024   0.576   2.094  1.0445 -1.8261 -0.2870
 4308TIP3    H234340   2.874   0.559   2.106  0.7224  1.6528  1.2165
 4309TIP3   OH234341   1.181   0.434  10.693 -0.2866 -0.2527  0.3480
 4309TIP3    H134342   1.214   0.445  10.782  1.2957  0.0883 -0.2753
 4309TIP3    H234343   1.223   0.354  10.662  0.1090  0.2838 -0.5175
 4310TIP3   OH234344   3.964   1.796  11.383  0.2266  0.8133  0.1125
 4310TIP3    H134345   3.926   1.777  11.469 -2.4866  1.8668 -0.8179
 4310TIP3    H234346   3.891   1.828  11.331  1.2886 -2.0711 -3.3509
 4311TIP3   OH234347   5.194   5.620   4.354  0.4940 -0.0386 -0.1860
 4311TIP3    H134348   5.233   5.536   4.330 -0.1194 -0.2155 -0.5563
 4311TIP3    H234349   5.248   5.685   4.308  0.1576 -0.2999 -0.9623
 4312TIP3   OH234350   1.085   6.515   5.270 -0.2033  0.5224  0.0677
 4312TIP3    H134351   1.157   6.567   5.306  0.8046 -0.5174 -0.4191
 4312TIP3    H234352   1.109   6.425   5.290 -1.2725  0.1481 -0.3040
 4313TIP3   OH234353   4.232   1.975  11.572  0.1530 -0.4328  0.5460
 4313TIP3    H134354   4.197   1.977  11.483 -1.6826 -1.4415  1.2156
 4313TIP3    H234355   4.312   2.027  11.568  0.9870 -1.8115 -2.0767
 4314TIP3   OH234356   3.220   0.058   6.211  0.5801  0.6971  0.3882
 4314TIP3    H134357   3.151   0.048   6.277  0.0676  0.2507 -0.2059
 4314TIP3    H234358   3.237   0.153   6.209 -1.6197  1.0968 -1.0549
 4315TIP3   OH234359   1.493   4.716   3.034  0.1715  0.1471  0.0486
 4315TIP3    H134360   1.428   4.746   2.971 -1.3500 -1.7357  0.6721
 4315TIP3    H234361   1.460   4.745   3.119  0.3982 -0.3642  0.3185
 4316TIP3   OH234362   4.004   1.860  14.702 -0.2687 -0.4306  0.2386
 4316TIP3    H134363   3.973   1.948  14.723  0.7018 -0.4185  1.7630
 4316TIP3    H234364   4.045   1.869  14.616  0.9411  0.9123  0.9174
 4317TIP3   OH234365   2.106   2.720   2.710  0.6312 -0.0530  0.5285
 4317TIP3    H134366   2.049   2.775   2.764  0.7534 -0.0828  0.6867
 4317TIP3    H234367   2.190   2.721   2.755  0.8222  0.1789  0.1692
 4318TIP3   OH234368   0.210   3.445   3.109  0.4370  0.1038 -0.3523
 4318TIP3    H134369   0.151   3.452   3.034 -0.3908  0.9501  0.3674
 4318TIP3    H234370   0.192   3.359   3.147  1.2685 -0.5691 -1.4539
 4319TIP3   OH234371   0.720   1.144  11.282 -0.3600  0.6131  0.4182
 4319TIP3    H134372   0.652   1.202  11.315 -1.6477 -0.0274 -1.0345
 4319TIP3    H234373   0.675   1.087  11.219  1.2522 -0.6997  0.4088
 4320TIP3   OH234374   4.073   1.241  12.884 -0.4920 -0.3254 -0.3509
 4320TIP3    H134375   4.155   1.194  12.902  0.3069  0.1612 -2.5518
 4320TIP3    H234376   4.079   1.320  12.937  1.0511  0.3107 -1.4372
 4321TIP3   OH234377   6.281   6.428   4.553 -0.2521 -0.1606 -0.3556
 4321TIP3    H134378   6.354   6.462   4.501 -0.0699 -0.1732 -0.1021
 4321TIP3    H234379   6.321   6.394   4.633 -0.3233 -1.8268 -1.0051
 4322TIP3   OH234380   2.502   3.210  15.306  0.6253 -0.0434 -0.2904
 4322TIP3    H134381   2.490   3.195  15.212 -1.1758 -1.5820  0.1268
 4322TIP3    H234382   2.423   3.257  15.333  0.4496 -0.8781  0.6960
 4323TIP3   OH234383   3.242   2.536   2.014 -0.3905 -0.1223 -0.0854
 4323TIP3    H134384   3.282   2.617   1.982 -0.4279 -0.0943 -0.0616
 4323TIP3    H234385   3.285   2.467   1.964  0.4215 -0.1622  0.6622
 4324TIP3   OH234386   0.582   4.451   5.094 -0.2093  0.3929 -0.1201
 4324TIP3    H134387   0.616   4.371   5.054 -0.4170  0.7038 -0.9364
 4324TIP3    H234388   0.516   4.482   5.032 -1.8146 -0.0651  1.3229
 4325TIP3   OH234389   4.811   6.468   1.201  0.2565  0.5683 -0.0756
 4325TIP3    H134390   4.835   6.405   1.269  3.0946  1.5013 -0.1604
 4325TIP3    H234391   4.721   6.492   1.221  0.1865 -1.1457  1.8087
 4326TIP3   OH234392   2.372   5.640  14.583 -0.0076  0.6904  0.1058
 4326TIP3    H134393   2.319   5.719  14.594  0.3429  0.6506  2.1575
 4326TIP3    H234394   2.309   5.568  14.590 -0.1230  0.7259 -0.4815
 4327TIP3   OH234395   4.195   1.837   3.286 -0.4779 -0.5631  0.1245
 4327TIP3    H134396   4.141   1.908   3.320 -1.1491 -0.6633 -0.7084
 4327TIP3    H234397   4.270   1.880   3.246 -1.4204 -0.2416 -1.3474
 4328TIP3   OH234398   4.673   0.415  12.207 -0.4666 -0.0676 -0.8502
 4328TIP3    H134399   4.683   0.510  12.199 -1.5590  0.0676 -0.6558
 4328TIP3    H234400   4.743   0.379  12.152 -1.3591  0.8488 -2.6372
 4329TIP3   OH234401   1.403   1.798  17.132 -0.3109 -0.2997  0.3521
 4329TIP3    H134402   1.497   1.780  17.136 -0.3997 -0.5070  1.6679
 4329TIP3    H234403   1.368   1.757  17.211 -1.4627  0.0460  0.0151
 4330TIP3   OH234404   5.729   1.385   5.195  0.2520  0.0720 -0.3954
 4330TIP3    H134405   5.792   1.375   5.266 -1.8685 -1.3631  1.3746
 4330TIP3    H234406   5.767   1.339   5.121  1.1898 -0.9342  0.6971
 4331TIP3   OH234407   3.166   1.974  11.838 -0.4017  0.2572 -0.2228
 4331TIP3    H134408   3.098   1.916  11.802 -0.8189  1.0009 -0.6714
 4331TIP3    H234409   3.246   1.947  11.794 -0.7680  0.6400 -1.1533
 4332TIP3   OH234410   2.019   1.563  11.150 -0.0635 -0.2413  0.2958
 4332TIP3    H134411   2.065   1.578  11.068 -0.3383  2.9071  0.6629
 4332TIP3    H234412   2.088   1.541  11.213  0.4431  0.0648 -0.1523
 4333TIP3   OH234413   1.561   2.397  14.630  0.1054 -0.3365 -0.1882
 4333TIP3    H134414   1.577   2.487  14.604  0.7975 -0.0022  1.2956
 4333TIP3    H234415   1.643   2.351  14.609  0.0833 -0.4118 -0.1128
 4334TIP3   OH234416   4.857   5.060  15.165 -0.2400 -0.4618  0.1971
 4334TIP3    H134417   4.823   5.145  15.138 -0.5717 -1.0105 -1.1039
 4334TIP3    H234418   4.951   5.076  15.180  0.0451 -0.2807 -1.7530
 4335TIP3   OH234419   3.527   1.984  15.396  0.9127 -0.3991 -0.2114
 4335TIP3    H134420   3.489   1.904  15.360  0.2086 -0.4401  0.5942
 4335TIP3    H234421   3.521   2.048  15.324  2.0301 -1.2312 -1.0440
 4336TIP3   OH234422   2.051   6.072  11.770 -0.5595  0.4888 -0.6595
 4336TIP3    H134423   2.104   6.152  11.770  0.2690 -0.0589  0.1601
 4336TIP3    H234424   1.962   6.102  11.789 -0.0354  1.0773  0.8722
 4337TIP3   OH234425   1.272   1.848  10.512  0.0630  0.9281  0.3392
 4337TIP3    H134426   1.223   1.837  10.431  0.0041  0.4015  0.4483
 4337TIP3    H234427   1.309   1.936  10.506  0.0047  0.9132 -0.2317
 4338TIP3   OH234428   2.710   0.843   3.005  0.5293  0.2413 -0.3214
 4338TIP3    H134429   2.795   0.807   3.029  0.3687  0.4065  0.5038
 4338TIP3    H234430   2.717   0.936   3.022  1.2363  0.7806 -3.2898
 4339TIP3   OH234431   1.920   1.886  14.192 -0.0492 -0.0524 -0.1033
 4339TIP3    H134432   1.904   1.860  14.101 -2.2084  0.5941  0.0658
 4339TIP3    H234433   1.901   1.979  14.194 -1.3336 -0.3345  1.3079
 4340TIP3   OH234434   3.572   1.748   3.453  0.6025  0.7247  0.1639
 4340TIP3    H134435   3.614   1.666   3.479  0.9878  1.4039  1.7276
 4340TIP3    H234436   3.645   1.802   3.420  0.2707  0.2492 -1.3645
 4341TIP3   OH234437   1.443   3.975  11.567  0.4512 -0.3426 -0.3870
 4341TIP3    H134438   1.503   3.907  11.536 -0.6461 -1.2542 -0.5664
 4341TIP3    H234439   1.358   3.948  11.533 -0.2431  0.3201  0.8045
 4342TIP3   OH234440   5.046   3.294   4.024 -0.2199  0.6864  0.0519
 4342TIP3    H134441   4.996   3.228   4.073 -0.2227  0.5628 -0.1193
 4342TIP3    H234442   4.981   3.359   3.999 -0.5814 -0.2899 -1.5773
 4343TIP3   OH234443   0.797   0.755   5.158 -0.2472 -0.2180  0.7296
 4343TIP3    H134444   0.722   0.706   5.124 -0.0464  0.4587 -0.7302
 4343TIP3    H234445   0.832   0.700   5.228 -1.5943 -0.9297  0.8679
 4344TIP3   OH234446   5.635   2.337   4.011  0.7105 -0.0150  0.0466
 4344TIP3    H134447   5.694   2.270   4.045  1.2980  0.9497  0.9621
 4344TIP3    H234448   5.644   2.410   4.072  0.1773  0.9499 -1.0137
 4345TIP3   OH234449   6.741   5.365  15.514 -0.3466 -0.6929 -0.3529
 4345TIP3    H134450   6.728   5.298  15.580 -0.3029  1.7659  2.2371
 4345TIP3    H234451   6.655   5.405  15.502  0.5891  2.1423  1.9174
 4346TIP3   OH234452   0.406   0.116  13.251 -0.5506  0.1464  0.1879
 4346TIP3    H134453   0.385   0.137  13.160 -0.2259 -0.3645 -0.0037
 4346TIP3    H234454   0.472   0.048  13.246  0.2611  0.8794  0.8030
 4347TIP3   OH234455   5.828   4.798  11.157 -0.0239 -0.0139  0.1490
 4347TIP3    H134456   5.864   4.717  11.119 -0.2071  0.4369 -1.0122
 4347TIP3    H234457   5.736   4.777  11.173 -0.1347  0.0382 -0.3955
 4348TIP3   OH234458   3.149   6.393  11.149  0.0081  0.3254 -0.1746
 4348TIP3    H134459   3.091   6.355  11.083  1.3129 -0.4125 -0.9252
 4348TIP3    H234460   3.176   6.476  11.112  1.1518 -0.3227 -0.8251
 4349TIP3   OH234461   3.579   2.994  10.738 -0.2341 -0.4965 -0.3371
 4349TIP3    H134462   3.577   2.954  10.651 -0.0826 -2.3822  0.5143
 4349TIP3    H234463   3.670   3.020  10.750  0.6168 -3.8086  0.8231
 4350TIP3   OH234464   1.304   4.797  12.372  0.1457  0.4977  0.1152
 4350TIP3    H134465   1.210   4.778  12.368 -0.1615  1.7469  0.8137
 4350TIP3    H234466   1.325   4.793  12.465  0.8526 -0.0985 -0.0697
 4351TIP3   OH234467   2.433   2.360  15.971  0.4659 -0.0438  0.3657
 4351TIP3    H134468   2.376   2.347  15.896 -1.2005  0.4874  1.5193
 4351TIP3    H234469   2.446   2.455  15.974  0.7552 -0.0925  0.5869
 4352TIP3   OH234470   5.550   2.066   1.135 -0.4171 -0.4131  0.4463
 4352TIP3    H134471   5.548   1.981   1.179  0.8321  0.0298  1.4135
 4352TIP3    H234472   5.510   2.051   1.050  0.1262 -2.0588  0.4740
 4353TIP3   OH234473   2.463   3.225  15.005 -0.6976 -0.0229 -0.5668
 4353TIP3    H134474   2.423   3.303  14.968 -1.9507 -0.0803  0.6422
 4353TIP3    H234475   2.557   3.236  14.988 -0.9937  1.1213 -1.5348
 4354TIP3   OH234476   3.178   2.435  13.045 -0.3877 -0.0633  0.3161
 4354TIP3    H134477   3.270   2.450  13.068 -0.0850 -1.1272 -0.1491
 4354TIP3    H234478   3.181   2.401  12.956 -1.1252 -1.3536  0.7616
 4355TIP3   OH234479   5.593   3.585   1.972  0.1154  0.2964  0.4368
 4355TIP3    H134480   5.523   3.638   1.935 -0.0620 -0.6867 -0.6528
 4355TIP3    H234481   5.654   3.649   2.008 -0.3378  1.2314 -0.4211
 4356TIP3   OH234482   3.856   0.191  12.849 -0.5710 -0.2875  0.3404
 4356TIP3    H134483   3.826   0.124  12.787 -0.5100  0.0310 -0.0339
 4356TIP3    H234484   3.851   0.148  12.935 -1.9236 -0.2976  0.2597
 4357TIP3   OH234485   6.270   1.486   0.854  0.1809 -0.0003 -0.3439
 4357TIP3    H134486   6.233   1.569   0.822  0.0098 -0.2092 -0.6848
 4357TIP3    H234487   6.363   1.506   0.868  0.0488  0.3771  0.0047
 4358TIP3   OH234488   0.546   2.430   1.290 -0.2299  0.4845  0.3140
 4358TIP3    H134489   0.530   2.474   1.206  0.6752 -1.2884 -0.8094
 4358TIP3    H234490   0.627   2.381   1.277 -0.5616 -0.5435  1.9403
 4359TIP3   OH234491   3.781   4.227  15.979  1.1151  0.5234  0.0893
 4359TIP3    H134492   3.834   4.282  16.036  1.8456 -0.6825  0.5853
 4359TIP3    H234493   3.817   4.139  15.989 -0.6367 -0.2285  0.0234
 4360TIP3   OH234494   5.741   4.661  13.594  0.1936  0.1556 -0.5588
 4360TIP3    H134495   5.798   4.738  13.595  0.4129 -0.0121  0.3490
 4360TIP3    H234496   5.661   4.690  13.551  0.5684  0.6828 -0.8987
 4361TIP3   OH234497   6.188   0.574  14.057 -0.2141 -0.3198 -0.9464
 4361TIP3    H134498   6.252   0.644  14.067 -1.0645  0.0536  2.2767
 4361TIP3    H234499   6.240   0.496  14.035  0.9137  0.8474 -2.4783
 4362TIP3   OH234500   2.945   4.047  13.750  0.1332 -0.5791  0.0969
 4362TIP3    H134501   3.007   3.987  13.707 -0.3006  0.1959 -1.6513
 4362TIP3    H234502   2.866   4.042  13.696  0.5012  2.4939 -0.8188
 4363TIP3   OH234503   5.001   3.897  10.728  0.1085  0.3251  0.4097
 4363TIP3    H134504   5.060   3.971  10.741 -0.3198  0.6624  0.4177
 4363TIP3    H234505   5.058   3.827  10.697  0.3471  0.9906 -0.7020
 4364TIP3   OH234506   6.710   3.809  14.156 -0.9298 -0.0127 -0.4805
 4364TIP3    H134507   6.784   3.751  14.174 -0.1401  0.6390 -1.5877
 4364TIP3    H234508   6.744   3.872  14.093 -2.3894  0.3706 -0.8950
 4365TIP3   OH234509   4.366   6.337  12.440  0.3423 -0.1831 -0.6002
 4365TIP3    H134510   4.458   6.361  12.425  0.3149  1.9422  2.0914
 4365TIP3    H234511   4.370   6.267  12.505  0.0569  0.8101  0.5106
 4366TIP3   OH234512   2.020   2.265  13.040 -0.1122  0.3355 -0.2603
 4366TIP3    H134513   2.014   2.208  13.116  0.5907 -0.6298 -0.9273
 4366TIP3    H234514   2.114   2.281  13.029 -0.2497  0.9545 -0.5658
 4367TIP3   OH234515   0.326   0.229   5.642  0.0014 -0.0934 -0.1055
 4367TIP3    H134516   0.333   0.276   5.725  0.0980 -1.8483  0.9110
 4367TIP3    H234517   0.245   0.262   5.602  0.4927  1.5034  0.2034
 4368TIP3   OH234518   5.295   3.776   5.346  0.3121  0.2837  0.6145
 4368TIP3    H134519   5.283   3.681   5.338 -2.2036  0.7110 -1.3480
 4368TIP3    H234520   5.390   3.789   5.340  0.4667 -1.8488 -2.9645
 4369TIP3   OH234521   0.263   2.935  11.311  0.0277 -0.0234  0.5966
 4369TIP3    H134522   0.242   2.877  11.238  1.2001 -0.0618  0.2753
 4369TIP3    H234523   0.286   2.875  11.383 -3.2071 -0.0399  1.6896
 4370TIP3   OH234524   6.607   4.583  14.208  0.7280  0.1250 -0.9044
 4370TIP3    H134525   6.667   4.516  14.239 -0.5799 -1.1474 -1.0420
 4370TIP3    H234526   6.592   4.561  14.116 -0.1057  0.2856 -0.8126
 4371TIP3   OH234527   4.259   1.650  11.478  0.1742  0.6587 -0.6551
 4371TIP3    H134528   4.207   1.716  11.523 -0.1778 -0.5977  0.8112
 4371TIP3    H234529   4.275   1.687  11.391 -0.5680  2.3737 -0.0739
 4372TIP3   OH234530   1.354   6.417   6.342 -0.1078  0.5575  0.1133
 4372TIP3    H134531   1.275   6.370   6.368  1.0093 -1.0493  0.6630
 4372TIP3    H234532   1.368   6.482   6.411 -0.3887  0.1813  0.5239
 4373TIP3   OH234533   1.153   3.037   6.657 -0.8586 -1.0039  0.1620
 4373TIP3    H134534   1.149   3.131   6.677  1.1116 -0.3599 -2.1871
 4373TIP3    H234535   1.212   3.001   6.724 -1.5342 -0.5553  1.0092
 4374TIP3   OH234536   2.403   1.703   2.132  0.3322 -0.4423 -0.7115
 4374TIP3    H134537   2.390   1.614   2.165  1.3821 -0.9852 -1.7422
 4374TIP3    H234538   2.315   1.732   2.109 -0.0227 -1.2153 -0.3591
 4375TIP3   OH234539   1.155   6.510  14.108 -0.5668  0.3999  0.0605
 4375TIP3    H134540   1.154   6.591  14.057 -0.0193  0.5026  0.2094
 4375TIP3    H234541   1.241   6.472  14.091 -1.2539 -0.7394 -0.9219
 4376TIP3   OH234542   2.638   1.412   1.650 -0.3457  0.2953 -0.2922
 4376TIP3    H134543   2.713   1.442   1.702 -0.2081 -0.0704 -0.2773
 4376TIP3    H234544   2.566   1.468   1.677 -0.5310 -0.5876  1.0608
 4377TIP3   OH234545   1.245   4.947  16.355 -0.0594 -0.3075 -0.5477
 4377TIP3    H134546   1.175   5.005  16.327  0.9344 -0.0072 -2.4921
 4377TIP3    H234547   1.315   5.006  16.383 -0.1168 -0.5952  0.2066
 4378TIP3   OH234548   0.839   5.397  13.655  0.8445  0.0685  0.3836
 4378TIP3    H134549   0.809   5.469  13.710  1.5385  1.8561 -1.4988
 4378TIP3    H234550   0.898   5.438  13.591 -0.1353 -1.8600 -1.8710
 4379TIP3   OH234551   5.111   4.203  14.272 -0.3912 -0.0759  0.5254
 4379TIP3    H134552   5.096   4.121  14.224 -0.7245  0.5505 -0.4678
 4379TIP3    H234553   5.028   4.220  14.316 -0.3773 -0.1891  0.5965
 4380TIP3   OH234554   2.450   1.487   4.094  0.0128 -0.3724 -0.4554
 4380TIP3    H134555   2.538   1.512   4.123  0.1034 -1.4245  0.2368
 4380TIP3    H234556   2.460   1.465   4.002  0.3445  0.1536 -0.5443
 4381TIP3   OH234557   0.339   1.609   4.244  0.2851 -0.2230 -0.2789
 4381TIP3    H134558   0.294   1.631   4.163  0.8095 -0.7346 -0.7094
 4381TIP3    H234559   0.269   1.585   4.304 -0.2160  1.5185 -0.1352
 4382TIP3   OH234560   5.366   1.953   0.097  0.4967  0.2547  0.3927
 4382TIP3    H134561   5.432   1.929   0.032  2.1425  3.8936  0.6236
 4382TIP3    H234562   5.282   1.942   0.051  1.3956 -1.4356 -0.9038
 4383TIP3   OH234563   6.731   1.428   6.328 -0.9049 -0.2524 -0.3202
 4383TIP3    H134564   6.692   1.499   6.278 -1.8046 -0.0212  0.6962
 4383TIP3    H234565   6.660   1.395   6.383  0.2982  0.1276  1.5124
 4384TIP3   OH234566   0.602   4.368   0.233 -0.2492  0.1202 -0.1774
 4384TIP3    H134567   0.536   4.305   0.204  0.8143 -0.4420 -1.4421
 4384TIP3    H234568   0.618   4.346   0.325 -0.0052 -1.3559 -0.5556
 4385TIP3   OH234569   0.304   4.186  14.055  0.5336  0.6960 -0.4375
 4385TIP3    H134570   0.263   4.149  14.134 -0.1964 -1.4711 -1.7754
 4385TIP3    H234571   0.385   4.135  14.044  0.1122  0.2655 -1.6488
 4386TIP3   OH234572   3.130   0.530  13.039 -0.1425  0.4947  0.2902
 4386TIP3    H134573   3.107   0.518  13.131  1.3080 -0.0957  0.5977
 4386TIP3    H234574   3.224   0.549  13.040 -0.3944  1.9932 -0.9623
 4387TIP3   OH234575   4.197   1.687   1.606 -0.2022 -0.2433 -0.0677
 4387TIP3    H134576   4.132   1.620   1.591 -1.1141  0.1611  1.8676
 4387TIP3    H234577   4.156   1.747   1.668  0.9630  1.5542 -0.9845
 4388TIP3   OH234578   1.713   5.832   0.247  0.1580  0.7605  0.2923
 4388TIP3    H134579   1.727   5.925   0.269  0.0294  0.6216  0.9870
 4388TIP3    H234580   1.798   5.803   0.214  0.5091  0.8504  1.0981
 4389TIP3   OH234581   3.871   6.601  16.759  0.3652  0.0092 -0.2823
 4389TIP3    H134582   3.859   6.660  16.684 -2.4099  0.2196  0.2746
 4389TIP3    H234583   3.783   6.569  16.778  1.0222 -0.0309  2.8989
 4390TIP3   OH234584   4.924   5.451   4.727 -0.2548  0.8429 -0.1468
 4390TIP3    H134585   5.012   5.415   4.737 -0.7073  0.1858  1.6240
 4390TIP3    H234586   4.937   5.537   4.688  1.2048  1.0037  0.6839
 4391TIP3   OH234587   3.040   1.562   5.556  0.7120 -0.4058  0.2259
 4391TIP3    H134588   2.972   1.515   5.510 -0.5087  1.6105 -0.1018
 4391TIP3    H234589   3.101   1.590   5.487  1.3532 -1.3289  0.4018
 4392TIP3   OH234590   1.252   3.283   0.105 -0.4942 -0.3436 -0.2538
 4392TIP3    H134591   1.217   3.349   0.164 -0.2981  1.1908 -1.7924
 4392TIP3    H234592   1.179   3.225   0.087 -1.1382  0.4455 -0.2102
 4393TIP3   OH234593   2.596   0.607   2.627 -0.3217  0.9225  0.6635
 4393TIP3    H134594   2.581   0.518   2.659 -0.1139  0.6940  0.1402
 4393TIP3    H234595   2.689   0.623   2.644 -0.6229  1.4617  1.7860
 4394TIP3   OH234596   5.397   1.197   4.919 -0.8616  0.4192  0.3733
 4394TIP3    H134597   5.422   1.240   4.838  0.8794 -1.8188 -0.3225
 4394TIP3    H234598   5.316   1.151   4.898 -0.6570  0.2146  0.0374
 4395TIP3   OH234599   3.257   1.841   5.118 -0.6371 -0.0636 -0.0194
 4395TIP3    H134600   3.276   1.761   5.166 -0.3174 -0.2527 -0.4587
 4395TIP3    H234601   3.269   1.911   5.182  1.9174 -0.1344 -0.3553
 4396TIP3   OH234602   0.985   5.258  12.474  0.5373  0.0680 -0.6360
 4396TIP3    H134603   0.970   5.250  12.380  2.6392  1.6412 -1.1350
 4396TIP3    H234604   1.059   5.318  12.482  1.6393 -1.5489  1.9508
 4397TIP3   OH234605   3.522   0.631   0.829 -0.2031  0.0925  0.0483
 4397TIP3    H134606   3.545   0.723   0.838  0.0831 -0.0204  0.4658
 4397TIP3    H234607   3.529   0.614   0.735  1.1156  0.1334  0.1335
 4398TIP3   OH234608   0.713   0.736  12.063  0.1483  0.4973  0.3552
 4398TIP3    H134609   0.648   0.758  11.996  1.0741 -1.4686 -1.2241
 4398TIP3    H234610   0.703   0.641  12.076  1.6411  0.4455  1.2366
 4399TIP3   OH234611   5.723   2.395  14.733  0.6556 -0.6863  0.2375
 4399TIP3    H134612   5.724   2.302  14.755  2.8934 -0.4833  1.0641
 4399TIP3    H234613   5.814   2.423  14.739  0.4700  0.8884 -2.9906
 4400TIP3   OH234614   0.267   1.377  14.097  0.0888  0.8161 -0.4972
 4400TIP3    H134615   0.206   1.450  14.107 -0.8071 -0.1269  1.1387
 4400TIP3    H234616   0.350   1.409  14.134 -0.0256  1.3357 -0.6894
 4401TIP3   OH234617   5.616   3.263  12.997 -0.4845 -0.1284  0.9849
 4401TIP3    H134618   5.645   3.185  12.949  0.6708 -0.7979  2.7218
 4401TIP3    H234619   5.587   3.324  12.928 -2.6939 -2.5681 -0.3324
 4402TIP3   OH234620   2.947   5.083   4.538  0.4920  0.2591 -0.3032
 4402TIP3    H134621   2.876   5.113   4.481  0.6735 -0.2166 -0.7801
 4402TIP3    H234622   2.993   5.164   4.563 -0.5860  0.6290  0.5081
 4403TIP3   OH234623   0.518   4.701   2.363 -0.2160 -0.4763  0.5166
 4403TIP3    H134624   0.460   4.664   2.430  0.6719 -0.4708  1.2988
 4403TIP3    H234625   0.497   4.794   2.361 -0.1710 -0.4605  0.8572
 4404TIP3   OH234626   1.487   1.828  13.645  0.0422  0.7771  0.1737
 4404TIP3    H134627   1.469   1.752  13.589  1.4288  0.9864 -0.5781
 4404TIP3    H234628   1.514   1.897  13.585  1.3550  1.0722  1.0726
 4405TIP3   OH234629   0.649   2.279  13.470  0.4736  0.0102 -0.3189
 4405TIP3    H134630   0.717   2.232  13.422  1.3440 -1.0643  1.8983
 4405TIP3    H234631   0.630   2.224  13.546 -1.5774  1.1831  0.0617
 4406TIP3   OH234632   4.141   2.441   2.084  0.0868 -0.1249  0.9680
 4406TIP3    H134633   4.065   2.426   2.029 -0.0409 -1.5408  1.4991
 4406TIP3    H234634   4.126   2.386   2.161  1.3228  0.0912  1.3749
 4407TIP3   OH234635   5.348   5.854  16.219 -0.1040 -0.0705 -0.3485
 4407TIP3    H134636   5.387   5.930  16.262  0.8417 -0.6749 -0.1206
 4407TIP3    H234637   5.391   5.779  16.260 -0.6256 -0.7087 -0.9660
 4408TIP3   OH234638   3.858   4.500   0.704 -0.3177 -0.4544 -0.3123
 4408TIP3    H134639   3.921   4.535   0.640 -1.0761 -0.4224 -1.0445
 4408TIP3    H234640   3.809   4.434   0.655 -0.5805 -0.7718  0.3790
 4409TIP3   OH234641   4.982   2.580  14.218 -0.2880  0.4134  0.8077
 4409TIP3    H134642   5.014   2.596  14.129 -0.7465 -0.6080  0.4491
 4409TIP3    H234643   4.916   2.647  14.233 -0.7656  0.1034  0.0886
 4410TIP3   OH234644   0.222   5.695  12.856 -0.0441  0.1084 -0.3609
 4410TIP3    H134645   0.185   5.673  12.941 -0.3158 -1.0547 -0.7724
 4410TIP3    H234646   0.183   5.779  12.834 -2.1989 -0.9354 -0.6308
 4411TIP3   OH234647   4.158   3.080  15.362  0.4538 -0.2449  0.2367
 4411TIP3    H134648   4.092   3.138  15.400 -2.0969 -0.6699 -3.2833
 4411TIP3    H234649   4.214   3.137  15.311 -0.5649 -0.5142 -1.2199
 4412TIP3   OH234650   3.341   3.620   2.682 -0.1883 -0.0200 -0.0014
 4412TIP3    H134651   3.279   3.548   2.670 -0.6674  0.0358  1.9288
 4412TIP3    H234652   3.286   3.699   2.683 -0.0138  0.1010  0.8578
 4413TIP3   OH234653   3.562   3.302  12.758 -0.8385 -0.0779  0.6744
 4413TIP3    H134654   3.549   3.397  12.756  0.3294  0.0662  0.2439
 4413TIP3    H234655   3.541   3.273  12.670  0.2935 -0.0313  0.3887
 4414TIP3   OH234656   0.778   0.401   2.272 -0.4436  1.0818  0.1641
 4414TIP3    H134657   0.843   0.398   2.202  0.0475  0.3005  0.6377
 4414TIP3    H234658   0.730   0.319   2.263 -0.7949  1.2682  0.3446
 4415TIP3   OH234659   5.212   6.281  16.092  0.0940 -0.1825  0.4725
 4415TIP3    H134660   5.137   6.262  16.148  0.3607  1.5648  1.4378
 4415TIP3    H234661   5.193   6.366  16.053  1.2105 -0.0957  0.0902
 4416TIP3   OH234662   5.216   2.711  11.877 -0.0249 -0.3848  0.2963
 4416TIP3    H134663   5.130   2.670  11.873 -0.1703  0.0100 -0.7752
 4416TIP3    H234664   5.277   2.639  11.890 -0.3155 -0.8998 -1.1236
 4417TIP3   OH234665   2.761   2.378  15.776  0.3184 -0.5493  0.7526
 4417TIP3    H134666   2.774   2.442  15.706  0.4709 -1.3407  0.0517
 4417TIP3    H234667   2.694   2.318  15.742  2.3939 -2.5770  0.1215
 4418TIP3   OH234668   0.369   1.711   0.628 -0.1366 -0.7444 -0.4200
 4418TIP3    H134669   0.388   1.695   0.721  0.8954 -1.8763 -0.8077
 4418TIP3    H234670   0.403   1.799   0.612 -0.0196 -0.6705  0.1991
 4419TIP3   OH234671   5.380   3.355   6.107  0.3028  1.1177  0.2269
 4419TIP3    H134672   5.329   3.274   6.105  0.6407  0.8809  1.2810
 4419TIP3    H234673   5.347   3.403   6.182  0.6669  1.5983  0.0824
 4420TIP3   OH234674   0.814   1.751   3.689  0.2414  0.4004  0.4623
 4420TIP3    H134675   0.886   1.765   3.627 -0.6369  1.4224 -0.3531
 4420TIP3    H234676   0.761   1.831   3.683 -2.8434 -1.6779 -1.5330
 4421TIP3   OH234677   6.662   2.199  17.082 -0.5307 -0.0349 -0.1865
 4421TIP3    H134678   6.712   2.225  17.005  1.5393 -0.1334  1.0960
 4421TIP3    H234679   6.603   2.272  17.099  0.9666  1.1916 -0.2146
 4422TIP3   OH234680   6.091   5.261  12.709  0.3575  0.5557  0.2808
 4422TIP3    H134681   6.133   5.240  12.792  0.8052 -2.4069 -0.6246
 4422TIP3    H234682   6.145   5.217  12.643 -0.2993  2.3935 -1.5373
 4423TIP3   OH234683   2.849   0.879  12.192 -0.4907 -0.0123  0.7305
 4423TIP3    H134684   2.783   0.817  12.223 -2.0963  1.8165  1.0333
 4423TIP3    H234685   2.854   0.863  12.098 -1.0329 -0.4442  0.7704
 4424TIP3   OH234686   5.771   5.595  12.682 -0.1325 -0.3284  0.7246
 4424TIP3    H134687   5.845   5.535  12.674  0.0552  0.0505 -0.4543
 4424TIP3    H234688   5.751   5.596  12.776  2.2736  0.6746  1.2663
 4425TIP3   OH234689   5.499   6.740   5.179 -0.4496 -0.0552  0.0320
 4425TIP3    H134690   5.454   6.818   5.211 -2.2190  0.0767 -2.6898
 4425TIP3    H234691   5.438   6.668   5.196  1.0160 -0.8743  2.1751
 4426TIP3   OH234692   4.039   0.202  13.775 -0.3201 -0.5207 -0.3623
 4426TIP3    H134693   4.020   0.169  13.687 -0.4367 -3.3788  0.6805
 4426TIP3    H234694   3.962   0.254  13.799 -0.8014 -0.7070 -1.4908
 4427TIP3   OH234695   1.841   2.955   5.691  0.4197  0.2509  0.1792
 4427TIP3    H134696   1.836   2.860   5.679  2.7193  0.1846 -0.6462
 4427TIP3    H234697   1.898   2.985   5.620 -0.7272  2.3413  0.0920
 4428TIP3   OH234698   3.026   0.782   4.454 -0.2199 -0.0958 -0.5372
 4428TIP3    H134699   3.048   0.730   4.532 -0.1081  0.2827 -0.3128
 4428TIP3    H234700   3.050   0.872   4.478 -3.7336  0.6569  0.4356
 4429TIP3   OH234701   5.677   3.147  13.243 -0.2219  0.0466 -0.2813
 4429TIP3    H134702   5.664   3.206  13.169 -0.9169  1.4614  0.9485
 4429TIP3    H234703   5.654   3.199  13.320 -0.5519 -1.7360  0.8599
 4430TIP3   OH234704   5.685   6.297   0.183 -0.0622 -0.0690 -0.3684
 4430TIP3    H134705   5.737   6.373   0.156 -0.4491 -0.5738 -2.6943
 4430TIP3    H234706   5.644   6.323   0.265  2.7389  0.8611  0.7853
 4431TIP3   OH234707   4.107   4.068   1.786 -0.8447 -0.5569  0.5945
 4431TIP3    H134708   4.065   4.090   1.869 -2.0002 -1.7016  0.3168
 4431TIP3    H234709   4.081   4.139   1.727 -1.9492 -0.9710  0.5744
 4432TIP3   OH234710   6.210   6.234   1.369 -0.2220  0.7351 -0.1238
 4432TIP3    H134711   6.133   6.183   1.342 -0.7813  0.1009  2.5157
 4432TIP3    H234712   6.207   6.233   1.465  3.5206  0.0156  0.0739
 4433TIP3   OH234713   2.624   1.752   2.879  0.4686  0.1179  0.2260
 4433TIP3    H134714   2.533   1.734   2.901  1.2344 -0.6319  2.9422
 4433TIP3    H234715   2.619   1.823   2.814 -1.9701  2.8903  3.2333
 4434TIP3   OH234716   0.363   3.615   4.123 -0.0169  0.3266 -0.9449
 4434TIP3    H134717   0.346   3.692   4.068 -0.1832  0.8296 -0.2001
 4434TIP3    H234718   0.277   3.580   4.143 -0.0576  1.1407  0.3840
 4435TIP3   OH234719   0.524   4.412   4.756  0.2712  0.4893 -0.2635
 4435TIP3    H134720   0.492   4.339   4.808  0.9179  0.7341  0.4801
 4435TIP3    H234721   0.585   4.372   4.693  0.0405  0.2915 -0.3596
 4436TIP3   OH234722   2.182   4.883   1.826 -0.4109  0.1352 -0.0364
 4436TIP3    H134723   2.178   4.790   1.845  0.9046  0.3523  1.3484
 4436TIP3    H234724   2.221   4.889   1.739 -1.7327 -0.6421 -0.6981
 4437TIP3   OH234725   6.707   4.551  15.500 -0.3114  0.3014 -0.1883
 4437TIP3    H134726   6.680   4.461  15.516  0.9565  0.2686  1.9582
 4437TIP3    H234727   6.802   4.550  15.516 -0.6566  2.5003  2.2582
 4438TIP3   OH234728   0.764   1.144   4.070  0.4803  0.0394  0.3975
 4438TIP3    H134729   0.722   1.116   4.152  0.9401 -0.0097  0.6146
 4438TIP3    H234730   0.822   1.215   4.097  0.2873  0.3301  0.0411
 4439TIP3   OH234731   2.231   6.234  15.646 -0.4906 -0.2536 -0.0119
 4439TIP3    H134732   2.213   6.290  15.570 -1.1717  0.4414  0.6569
 4439TIP3    H234733   2.149   6.188  15.662  0.0909 -1.5425 -0.6150
 4440TIP3   OH234734   5.964   4.489   3.714  0.0944  0.1987  0.1567
 4440TIP3    H134735   5.884   4.480   3.661  0.2880 -3.7355  0.4409
 4440TIP3    H234736   5.936   4.543   3.789 -1.2962  2.0613 -1.6210
 4441TIP3   OH234737   5.361   0.985   5.846 -0.0426  0.3361 -1.0073
 4441TIP3    H134738   5.277   0.945   5.868  0.3221 -0.4283 -0.9748
 4441TIP3    H234739   5.411   0.914   5.805  1.1958  0.3076  0.5104
 4442TIP3   OH234740   4.769   5.391  15.696 -0.6458 -0.4858  0.4497
 4442TIP3    H134741   4.764   5.486  15.693  1.7555 -0.3556 -0.7115
 4442TIP3    H234742   4.791   5.365  15.607 -1.3791 -2.1393  0.7246
 4443TIP3   OH234743   2.055   2.443   5.614 -0.3217 -0.5929  0.5642
 4443TIP3    H134744   2.007   2.360   5.619 -1.6063 -0.0281 -1.7274
 4443TIP3    H234745   2.134   2.422   5.565 -0.7867 -0.4051 -0.2680
 4444TIP3   OH234746   0.214   3.268   5.955  0.4579  0.2778 -0.2320
 4444TIP3    H134747   0.181   3.201   6.015  1.8426  0.3343  0.6178
 4444TIP3    H234748   0.305   3.282   5.982  0.6765  1.3251 -1.4488
 4445TIP3   OH234749   4.168   0.243  16.509  0.6308 -1.0665  0.1503
 4445TIP3    H134750   4.136   0.293  16.585 -0.4614 -0.1979 -0.8649
 4445TIP3    H234751   4.155   0.152  16.534 -0.5796 -0.7665  0.6611
 4446TIP3   OH234752   6.173   0.207   0.416 -0.1076 -0.1118 -0.2706
 4446TIP3    H134753   6.112   0.244   0.351  1.1797  1.2348 -0.7423
 4446TIP3    H234754   6.251   0.186   0.365  1.3238  1.9620  0.9910
 4447TIP3   OH234755   0.099   5.065  12.050  1.0430  0.5092 -0.1723
 4447TIP3    H134756   0.094   4.980  12.093 -1.4502  1.7455  2.1284
 4447TIP3    H234757   0.059   5.052  11.965 -0.7290 -0.3132  0.7609
 4448TIP3   OH234758   6.084   0.926   3.484 -0.0459 -0.1955 -0.1064
 4448TIP3    H134759   6.043   1.000   3.439  1.7665  0.6634 -0.3718
 4448TIP3    H234760   6.145   0.890   3.419  1.1243 -0.1950  1.0006
 4449TIP3   OH234761   0.777   4.217   4.722  0.5707 -0.1159  0.0581
 4449TIP3    H134762   0.861   4.253   4.695  0.4387  0.2927  0.1912
 4449TIP3    H234763   0.720   4.231   4.647  0.1043  1.3481  0.6587
 4450TIP3   OH234764   2.655   5.945   2.123 -0.0076  0.3151  0.0659
 4450TIP3    H134765   2.634   5.938   2.216 -0.3221 -0.2837 -0.0488
 4450TIP3    H234766   2.709   5.869   2.104 -2.2026 -1.0577 -0.8398
 4451TIP3   OH234767   2.579   1.058   3.135 -0.2221 -0.2618 -0.2892
 4451TIP3    H134768   2.519   1.065   3.209  0.3541  1.4234  0.0513
 4451TIP3    H234769   2.523   1.036   3.061 -1.5818  3.0919 -0.3420
 4452TIP3   OH234770   0.712   3.605   5.379  0.5258 -0.0663  0.1151
 4452TIP3    H134771   0.626   3.584   5.416  0.1203  0.5256 -0.4612
 4452TIP3    H234772   0.714   3.560   5.295  0.9538 -0.4269  0.3187
 4453TIP3   OH234773   3.666   1.086   2.102 -0.6526 -1.0908  0.0183
 4453TIP3    H134774   3.645   1.004   2.057  0.7392 -0.7120 -1.3689
 4453TIP3    H234775   3.689   1.147   2.032  0.3703 -0.1314  1.1537
 4454TIP3   OH234776   3.701   2.590  15.953  0.0847 -0.2158 -0.0452
 4454TIP3    H134777   3.796   2.584  15.968  0.2684 -0.9490 -1.4372
 4454TIP3    H234778   3.683   2.524  15.886 -0.8862  2.0280 -2.0726
 4455TIP3   OH234779   2.802   2.574  13.258 -0.0271  0.3128  0.2590
 4455TIP3    H134780   2.883   2.623  13.273 -0.7153  1.2725  0.8856
 4455TIP3    H234781   2.738   2.615  13.316 -1.0982 -0.1064 -0.6213
 4456TIP3   OH234782   1.829   3.613   4.551  0.3789  0.1770  0.1609
 4456TIP3    H134783   1.786   3.585   4.471  3.4257 -0.3435 -1.3405
 4456TIP3    H234784   1.792   3.556   4.619 -1.2002 -0.3065 -1.0643
 4457TIP3   OH234785   0.938   2.188  11.702 -0.3017 -0.1652  0.7505
 4457TIP3    H134786   0.886   2.264  11.728  2.3010  1.9753 -0.0742
 4457TIP3    H234787   0.942   2.133  11.781 -1.4593  0.9672  1.6214
 4458TIP3   OH234788   2.828   5.321   3.973  0.4457  0.3911 -0.3604
 4458TIP3    H134789   2.866   5.236   3.995  0.1338  0.7445  1.6610
 4458TIP3    H234790   2.837   5.328   3.878  0.3136 -1.9608 -0.5615
 4459TIP3   OH234791   4.470   3.218  14.606  0.2954  0.2095  0.1677
 4459TIP3    H134792   4.565   3.205  14.607  0.3805  0.6098  4.4279
 4459TIP3    H234793   4.434   3.142  14.652 -1.5296 -0.1104 -1.7058
 4460TIP3   OH234794   5.321   4.490   3.117 -0.0229 -0.0722 -0.0070
 4460TIP3    H134795   5.308   4.420   3.053  1.3228 -0.2232 -0.1246
 4460TIP3    H234796   5.413   4.516   3.107 -0.1348  0.7633  0.9923
 4461TIP3   OH234797   5.350   6.483   3.278 -0.1998 -0.3837 -0.0502
 4461TIP3    H134798   5.445   6.471   3.284 -0.3072 -0.8739  0.7273
 4461TIP3    H234799   5.321   6.491   3.369 -1.0686 -1.5833 -0.2151
 4462TIP3   OH234800   1.212   1.001   4.497 -0.3980 -0.3659  0.3400
 4462TIP3    H134801   1.250   1.083   4.463 -0.8447  0.5616  1.9883
 4462TIP3    H234802   1.119   1.007   4.475 -0.0821 -1.3782 -1.3099
 4463TIP3   OH234803   3.299   2.005  17.203  0.0766 -0.1334 -0.6940
 4463TIP3    H134804   3.306   1.956  17.120 -0.6665  0.3192 -1.0301
 4463TIP3    H234805   3.346   2.086  17.186  0.3452 -0.2511 -0.5070
 4464TIP3   OH234806   4.488   1.297   3.732 -0.4250  0.2497  0.4410
 4464TIP3    H134807   4.482   1.353   3.810  1.3116  0.0027  0.7788
 4464TIP3    H234808   4.401   1.257   3.724 -1.0488  1.3837  1.4145
 4465TIP3   OH234809   1.892   0.770   3.351 -0.0835  0.4530  0.7208
 4465TIP3    H134810   1.902   0.795   3.443 -0.2105 -0.3268  0.9553
 4465TIP3    H234811   1.798   0.777   3.334  0.1307  2.1264  0.1942
 4466TIP3   OH234812   0.342   6.247   4.184  0.2379  0.6090 -0.1547
 4466TIP3    H134813   0.266   6.251   4.125  1.2109  2.9854 -1.3401
 4466TIP3    H234814   0.316   6.300   4.260 -0.6954 -1.7549  1.2265
 4467TIP3   OH234815   2.511   1.572  16.741  0.5044  0.1350  0.0305
 4467TIP3    H134816   2.599   1.608  16.750  0.7002  0.1123 -1.7584
 4467TIP3    H234817   2.521   1.494  16.688 -0.7464  0.8001 -1.2286
 4468TIP3   OH234818   3.721   1.482   0.510  0.7124  0.2313  0.1291
 4468TIP3    H134819   3.739   1.398   0.469  0.1854  0.1423  0.0753
 4468TIP3    H234820   3.726   1.464   0.604 -0.2740 -0.0626  0.1327
 4469TIP3   OH234821   1.039   1.705  11.558 -0.1618  0.2354 -0.0252
 4469TIP3    H134822   1.074   1.794  11.549 -0.1508  0.1625 -0.8017
 4469TIP3    H234823   1.074   1.658  11.482 -2.6590  0.4114 -1.3651
 4470TIP3   OH234824   3.708   1.382   2.529  0.5704 -0.2720  0.5801
 4470TIP3    H134825   3.745   1.351   2.447  2.9478 -0.3973  1.6366
 4470TIP3    H234826   3.682   1.303   2.576  0.5624 -0.2822  0.5585
 4471TIP3   OH234827   4.747   3.976  15.933 -0.2526  0.0356  0.0202
 4471TIP3    H134828   4.659   3.964  15.899 -0.4192  0.9488  0.1171
 4471TIP3    H234829   4.781   4.052  15.885  0.0556  0.4042  0.8061
 4472TIP3   OH234830   1.382   5.998  16.135  0.0603  0.8182  0.7033
 4472TIP3    H134831   1.360   6.004  16.228 -1.7456 -0.4980  0.3944
 4472TIP3    H234832   1.409   6.086  16.111  3.1684  0.6191  3.0816
 4473TIP3   OH234833   1.491   5.641   4.135 -0.0081 -0.2090 -0.0411
 4473TIP3    H134834   1.513   5.723   4.180 -1.1240 -1.4652  2.9868
 4473TIP3    H234835   1.557   5.579   4.165  0.5280 -0.5645 -1.9164
 4474TIP3   OH234836   2.079   0.399  11.083  0.0377  0.2057 -0.3358
 4474TIP3    H134837   2.116   0.438  11.163 -0.9969 -0.3422  0.4212
 4474TIP3    H234838   2.145   0.336  11.055  0.1269 -0.0676  0.4633
 4475TIP3   OH234839   3.885   3.597   5.585  0.6039 -0.1519 -0.4556
 4475TIP3    H134840   3.853   3.557   5.504 -1.6775  0.2716  0.1931
 4475TIP3    H234841   3.888   3.691   5.565 -0.8561  0.0543  0.2031
 4476TIP3   OH234842   0.698   3.569   2.772  0.3923 -0.0361  0.0710
 4476TIP3    H134843   0.701   3.664   2.767  1.4181 -0.0510  0.1966
 4476TIP3    H234844   0.717   3.540   2.683 -2.7092 -0.1142 -0.6147
 4477TIP3   OH234845   0.988   5.077  15.087  0.1088  0.2644  0.6848
 4477TIP3    H134846   0.951   5.149  15.036  1.5897  1.1225  0.7562
 4477TIP3    H234847   0.967   4.998  15.038  1.6461  1.0858 -1.3777
 4478TIP3   OH234848   4.290   2.411  14.775 -0.0123 -0.0210  0.2208
 4478TIP3    H134849   4.205   2.373  14.795 -0.4925 -0.1113 -1.8607
 4478TIP3    H234850   4.272   2.484  14.717  1.3345 -0.2947 -0.5897
 4479TIP3   OH234851   0.442   6.696   3.601 -0.1892 -0.0965 -0.3939
 4479TIP3    H134852   0.503   6.736   3.538 -0.5679 -0.8195 -1.2277
 4479TIP3    H234853   0.491   6.622   3.637  0.6165  1.2575  1.3587
 4480TIP3   OH234854   1.842   4.387  12.683 -0.3859 -0.2296 -0.8774
 4480TIP3    H134855   1.886   4.409  12.601  0.5185 -0.1369 -0.3770
 4480TIP3    H234856   1.818   4.295  12.673 -1.7838  0.2265 -1.9071
 4481TIP3   OH234857   6.652   4.923   4.899  0.8925 -0.0776 -0.2801
 4481TIP3    H134858   6.584   4.893   4.839  0.7346 -1.0312  0.3412
 4481TIP3    H234859   6.705   4.844   4.915  1.6371  0.4567 -0.1085
 4482TIP3   OH234860   6.636   3.704   0.283 -0.2157 -0.5183  0.1910
 4482TIP3    H134861   6.663   3.627   0.333  0.0227  0.0321  0.9287
 4482TIP3    H234862   6.602   3.669   0.201  1.6874 -1.2947 -0.2840
 4483TIP3   OH234863   1.534   2.823   2.333  0.0044 -0.5550  0.4435
 4483TIP3    H134864   1.525   2.861   2.245 -0.3533 -1.1010  0.2458
 4483TIP3    H234865   1.447   2.790   2.354 -0.2593  0.8155  1.5833
 4484TIP3   OH234866   0.041   2.851   5.755  0.2399 -0.2357  0.3913
 4484TIP3    H134867   0.099   2.928   5.752 -0.0594 -0.0045  0.5862
 4484TIP3    H234868   0.100   2.777   5.741  0.7426 -0.0710  1.5736
 4485TIP3   OH234869   1.803   2.315   4.036  0.0151  0.4562 -0.4810
 4485TIP3    H134870   1.805   2.276   3.949  1.0912 -1.2160  0.2692
 4485TIP3    H234871   1.879   2.372   4.039 -0.4608  1.1129 -0.9071
 4486TIP3   OH234872   6.358   2.685   1.341 -0.0777 -0.5494  0.0856
 4486TIP3    H134873   6.321   2.657   1.425 -2.1233 -0.0218 -0.5969
 4486TIP3    H234874   6.404   2.766   1.361 -2.0506  0.5215  0.4219
 4487TIP3   OH234875   2.918   4.214  11.611 -0.5261 -0.2032 -0.9052
 4487TIP3    H134876   2.920   4.213  11.707 -2.5523 -0.3478 -0.8477
 4487TIP3    H234877   3.002   4.252  11.586  0.1022 -0.3345  0.9201
 4488TIP3   OH234878   1.469   1.274  12.848 -0.5765  0.2962  0.0251
 4488TIP3    H134879   1.530   1.200  12.849 -0.0441  0.7408  0.2657
 4488TIP3    H234880   1.524   1.351  12.830 -0.9951  0.7583  0.7152
 4489TIP3   OH234881   4.860   0.897  12.696 -0.3923 -0.7298 -0.2651
 4489TIP3    H134882   4.844   0.803  12.700 -1.1007 -0.5933  0.2956
 4489TIP3    H234883   4.777   0.935  12.669  0.0664 -0.3074 -1.1162
 4490TIP3   OH234884   1.976   0.962   1.129  0.9486  0.0517  0.0897
 4490TIP3    H134885   2.066   0.958   1.163  0.3494 -1.7885  1.5432
 4490TIP3    H234886   1.971   0.890   1.066  0.5657  0.2918 -0.1531
 4491TIP3   OH234887   5.810   6.485   3.528  0.0316  0.2964 -0.2572
 4491TIP3    H134888   5.760   6.428   3.587 -0.5818 -0.5091 -1.5328
 4491TIP3    H234889   5.753   6.496   3.452  0.2265  2.4739 -0.1081
 4492TIP3   OH234890   5.592   2.274   3.573  0.3649 -0.4886  0.1292
 4492TIP3    H134891   5.567   2.355   3.528  0.5886 -0.8882 -0.7216
 4492TIP3    H234892   5.510   2.239   3.606 -0.1125 -1.3659 -1.9401
 4493TIP3   OH234893   6.426   4.127   5.093 -0.4877 -0.2610 -0.6651
 4493TIP3    H134894   6.427   4.184   5.170 -0.8543 -1.1904  0.0280
 4493TIP3    H234895   6.340   4.140   5.054 -0.8077 -0.8282 -0.1452
 4494TIP3   OH234896   3.372   1.039   4.080  0.0959  0.1254  0.1547
 4494TIP3    H134897   3.375   0.964   4.140 -0.0664  0.5553  0.7018
 4494TIP3    H234898   3.416   1.109   4.128  1.9896 -0.1565 -1.1297
 4495TIP3   OH234899   2.256   6.622  15.408 -0.4501 -0.5386  0.5462
 4495TIP3    H134900   2.288   6.698  15.361 -0.3855  0.6022  2.3680
 4495TIP3    H234901   2.318   6.611  15.480  0.1413 -2.9779 -0.2919
 4496TIP3   OH234902   1.861   1.948   4.454  0.4299 -0.5549 -0.3737
 4496TIP3    H134903   1.815   1.972   4.534  1.6987 -0.5306  0.3632
 4496TIP3    H234904   1.886   2.032   4.415 -1.7435 -0.5090 -1.7462
 4497TIP3   OH234905   4.337   0.811  11.826 -0.2364  0.2232  0.1724
 4497TIP3    H134906   4.276   0.845  11.892 -0.0375 -1.0703  1.0399
 4497TIP3    H234907   4.339   0.716  11.841  2.1942  0.2647  0.3251
 4498TIP3   OH234908   2.143   4.199  16.232 -0.2485  0.2422 -0.3338
 4498TIP3    H134909   2.219   4.167  16.281 -1.2357 -1.5968  0.0552
 4498TIP3    H234910   2.132   4.136  16.161 -2.2290 -0.2904  0.4191
 4499TIP3   OH234911   5.885   3.374  12.076  0.1860  0.5725  0.3193
 4499TIP3    H134912   5.901   3.397  11.984 -1.9083  1.5623  0.1750
 4499TIP3    H234913   5.921   3.286  12.085  1.0008  0.7256 -1.2856
 4500TIP3   OH234914   0.527   2.245  15.836  0.1336  0.2847  0.4941
 4500TIP3    H134915   0.499   2.336  15.836 -0.9745 -0.0307  2.0028
 4500TIP3    H234916   0.561   2.230  15.748 -1.5888  1.5676 -0.4172
 4501TIP3   OH234917   1.577   1.780   0.805 -0.4110  0.1612  0.4119
 4501TIP3    H134918   1.545   1.831   0.880 -0.5255  1.2745 -0.3865
 4501TIP3    H234919   1.575   1.689   0.835 -0.1967  0.6199  1.8611
 4502TIP3   OH234920   5.897   0.531  14.947  0.0022  0.1382 -0.9006
 4502TIP3    H134921   5.818   0.482  14.924 -0.0080  0.0836 -0.7508
 4502TIP3    H234922   5.885   0.554  15.039 -0.3549  1.1126 -1.1909
 4503TIP3   OH234923   5.828   5.510  15.463 -0.0204 -0.3376  0.5155
 4503TIP3    H134924   5.852   5.525  15.371 -1.2923  1.3137  0.4229
 4503TIP3    H234925   5.736   5.486  15.459 -0.3812  0.8876  1.4560
 4504TIP3   OH234926   3.599   2.646  13.115 -0.1991  0.8572 -0.2282
 4504TIP3    H134927   3.529   2.676  13.172 -1.5042 -1.7582 -0.4172
 4504TIP3    H234928   3.678   2.652  13.170 -1.2111 -0.2507  1.3921
 4505TIP3   OH234929   0.320   3.816  15.847  0.3505  0.3107  0.3397
 4505TIP3    H134930   0.285   3.898  15.882  1.5090  1.0034 -0.1107
 4505TIP3    H234931   0.252   3.752  15.865 -0.0988  1.1529  1.6736
 4506TIP3   OH234932   3.831   2.857   5.492  0.0750  0.5659  0.0979
 4506TIP3    H134933   3.765   2.845   5.560  0.7850 -3.2664  0.2607
 4506TIP3    H234934   3.781   2.871   5.412 -0.8285  1.8113  0.8673
 4507TIP3   OH234935   0.116   6.306   4.016  0.1301 -0.6577 -0.5322
 4507TIP3    H134936   0.094   6.242   3.949 -2.7071 -0.0457 -0.2601
 4507TIP3    H234937   0.148   6.382   3.968 -2.0393 -0.1627 -1.2752
 4508TIP3   OH234938   2.144   1.636  14.017  0.2770  0.4483 -0.4096
 4508TIP3    H134939   2.068   1.689  13.995 -0.2477  0.0268  0.3662
 4508TIP3    H234940   2.129   1.552  13.973 -0.2362 -0.0098  0.6254
 4509TIP3   OH234941   3.933   5.788  13.969  0.1373  0.0297  0.2693
 4509TIP3    H134942   3.965   5.792  14.059  0.6439 -1.1981  0.1420
 4509TIP3    H234943   3.884   5.706  13.964  0.1936  0.0474 -0.6009
 4510TIP3   OH234944   5.158   4.206   1.572 -0.0707 -0.0844  0.4105
 4510TIP3    H134945   5.103   4.188   1.495  1.5038 -0.0757 -0.7576
 4510TIP3    H234946   5.156   4.301   1.581  0.9647  0.0632 -0.6086
 4511TIP3   OH234947   2.580   4.310   4.694  0.0574 -0.3392  0.0966
 4511TIP3    H134948   2.627   4.254   4.632 -3.3477 -1.0511 -1.9686
 4511TIP3    H234949   2.513   4.254   4.731 -1.4924  1.5686  0.2395
 4512TIP3   OH234950   0.200   5.145   4.478  0.3897 -0.2102  0.1680
 4512TIP3    H134951   0.136   5.203   4.518  1.1460  0.6630  0.1114
 4512TIP3    H234952   0.243   5.103   4.553  1.2295  0.8017  0.2557
 4513TIP3   OH234953   5.360   5.341  15.519 -0.8886  0.2731 -1.1897
 4513TIP3    H134954   5.378   5.314  15.610 -1.9414  1.6043 -0.5789
 4513TIP3    H234955   5.318   5.427  15.527 -1.2765  0.2601 -2.9330
 4514TIP3   OH234956   6.163   2.236  12.263 -0.1430  0.2606 -0.2365
 4514TIP3    H134957   6.167   2.274  12.351 -1.0406 -2.2239  0.9174
 4514TIP3    H234958   6.070   2.234  12.243 -0.1851 -2.0351  0.0694
 4515TIP3   OH234959   2.374   2.480   5.592 -0.6290 -0.0152  0.5345
 4515TIP3    H134960   2.392   2.559   5.540  0.5228  0.3278  1.4274
 4515TIP3    H234961   2.419   2.410   5.545 -1.5022 -0.1243 -0.1615
 4516TIP3   OH234962   1.619   6.356  16.256 -0.5269  0.0789  0.1976
 4516TIP3    H134963   1.531   6.349  16.220 -1.1277  1.1278  1.4072
 4516TIP3    H234964   1.615   6.310  16.340  0.2557 -0.4294 -0.0395
 4517TIP3   OH234965   1.816   2.749  14.810  0.4353  0.2943  0.2644
 4517TIP3    H134966   1.723   2.739  14.831  0.5939 -3.5843 -0.5392
 4517TIP3    H234967   1.850   2.659  14.807  4.0363  1.5851 -0.3129
 4518TIP3   OH234968   0.093   0.545   3.804 -0.0340  0.0918  0.4468
 4518TIP3    H134969   0.061   0.565   3.891  0.1105 -0.3838  0.6053
 4518TIP3    H234970   0.071   0.453   3.789  0.9160 -0.1361  0.4155
 4519TIP3   OH234971   5.660   5.091  17.129  0.0102  0.2653 -0.2314
 4519TIP3    H134972   5.713   5.158  17.173  0.3976  0.1320 -0.4922
 4519TIP3    H234973   5.636   5.030  17.199  1.1992 -0.3196 -0.3182
 4520TIP3   OH234974   3.835   2.343  12.755  0.0935 -0.5838 -0.5133
 4520TIP3    H134975   3.852   2.267  12.700 -2.0952 -0.3452 -1.5652
 4520TIP3    H234976   3.831   2.307  12.844 -0.7395 -1.6813 -0.9790
 4521TIP3   OH234977   5.526   2.100  13.095 -0.7348 -0.4648  0.4876
 4521TIP3    H134978   5.597   2.118  13.033 -0.5273 -2.2380  0.2032
 4521TIP3    H234979   5.571   2.077  13.176 -0.9922 -0.2974  0.6763
 4522TIP3   OH234980   4.962   3.920   2.551 -0.0725 -0.7847  0.0520
 4522TIP3    H134981   5.050   3.895   2.522  1.3391  1.9901  1.7197
 4522TIP3    H234982   4.920   3.837   2.573  2.4189 -2.1177  0.0254
 4523TIP3   OH234983   1.894   2.107  13.366 -0.0413 -0.2305  0.1946
 4523TIP3    H134984   1.853   2.192  13.382  0.3343  0.0284 -0.1993
 4523TIP3    H234985   1.828   2.058  13.316  0.9977  1.0230 -2.5234
 4524TIP3   OH234986   3.156   6.621  15.640 -0.4534  0.2119  0.5550
 4524TIP3    H134987   3.096   6.555  15.676 -0.3580  0.3036  0.8873
 4524TIP3    H234988   3.127   6.704  15.679 -0.7533  0.4057 -0.0907
 4525TIP3   OH234989   0.744   4.515   4.591 -0.0262  0.3829 -0.6453
 4525TIP3    H134990   0.709   4.528   4.503  0.6006 -2.0602 -1.3058
 4525TIP3    H234991   0.667   4.505   4.646 -0.4215  0.0765 -1.2413
 4526TIP3   OH234992   6.507   0.320  11.833  0.7654  0.6023 -0.1077
 4526TIP3    H134993   6.528   0.231  11.861  0.9052  0.5774 -0.2962
 4526TIP3    H234994   6.415   0.317  11.807  1.5679 -0.1682 -2.9380
 4527TIP3   OH234995   5.034   6.183  15.483  0.0736 -0.0714  0.5782
 4527TIP3    H134996   4.973   6.166  15.555 -1.2291  1.3022 -0.1837
 4527TIP3    H234997   4.978   6.193  15.406  1.2512  1.3538 -0.1114
 4528TIP3   OH234998   5.119   5.684   4.859  0.4856  0.8375  0.6808
 4528TIP3    H134999   5.126   5.667   4.765  0.1912  2.0346  0.4319
 4528TIP3    H235000   5.031   5.722   4.869  0.6626  1.0580  1.3893
 4529TIP3   OH235001   2.638   6.616   0.897  0.3269  0.0923  0.6107
 4529TIP3    H135002   2.615   6.700   0.936 -0.0388 -0.0174  0.6328
 4529TIP3    H235003   2.731   6.606   0.914  0.2097  0.1364  1.2795
 4530TIP3   OH235004   1.689   1.906  13.858 -0.2004  0.3855 -0.4319
 4530TIP3    H135005   1.628   1.862  13.799 -0.9640 -0.8424  1.2462
 4530TIP3    H235006   1.634   1.963  13.912  0.1298 -0.6075  0.9794
 4531TIP3   OH235007   5.268   5.362   6.557  0.0253 -0.4242  0.3534
 4531TIP3    H135008   5.262   5.286   6.499 -0.1319 -0.0078 -0.1785
 4531TIP3    H235009   5.254   5.326   6.645  0.8201 -1.1442  0.1958
 4532TIP3   OH235010   3.914   4.443   5.482  0.2853 -0.1621 -0.6132
 4532TIP3    H135011   3.872   4.518   5.525 -1.0768 -0.0294 -2.1227
 4532TIP3    H235012   4.006   4.467   5.478 -0.1099  1.3763 -0.9363
 4533TIP3   OH235013   6.008   4.476   0.330  0.2911 -0.5537  0.0090
 4533TIP3    H135014   6.090   4.485   0.282  0.9042 -1.2326  0.9145
 4533TIP3    H235015   5.956   4.552   0.304  2.3969  1.5785  1.7820
 4534TIP3   OH235016   4.741   2.176   5.507 -0.7957 -0.4819 -0.1612
 4534TIP3    H135017   4.746   2.207   5.597 -0.2993 -1.4129  0.1417
 4534TIP3    H235018   4.819   2.211   5.465 -1.0961  0.0626 -0.2589
 4535TIP3   OH235019   1.737   3.940   0.429 -0.4394  0.2451  0.4384
 4535TIP3    H135020   1.827   3.973   0.431 -0.0433 -0.8081  0.5316
 4535TIP3    H235021   1.682   4.019   0.423  0.5258  0.8311 -0.8862
 4536TIP3   OH235022   2.977   1.742   1.170  0.4856 -0.7243 -0.2494
 4536TIP3    H135023   2.905   1.734   1.232  0.4605 -1.7712 -0.3982
 4536TIP3    H235024   3.056   1.731   1.223  0.5972  1.3331  0.0649
 4537TIP3   OH235025   2.670   2.874   1.920  0.2140 -0.6327  0.5715
 4537TIP3    H135026   2.640   2.841   2.004  3.1713 -0.7031  1.6356
 4537TIP3    H235027   2.634   2.963   1.915 -0.0113 -0.6432  1.8676
 4538TIP3   OH235028   4.020   4.597   0.520  0.4107  0.5593  0.2505
 4538TIP3    H135029   4.064   4.679   0.544  2.3508 -0.1456 -0.8235
 4538TIP3    H235030   3.944   4.626   0.469  0.7716  1.7237  0.3449
 4539TIP3   OH235031   3.711   3.829  11.628  0.5083  0.3650 -0.1635
 4539TIP3    H135032   3.740   3.901  11.571  0.0556  0.2361 -0.5656
 4539TIP3    H235033   3.616   3.842  11.636  0.0683 -1.4793 -2.0925
 4540TIP3   OH235034   4.980   0.417   4.994  0.2612 -0.2246 -0.1312
 4540TIP3    H135035   5.026   0.345   4.952  0.0056  1.0707 -2.7569
 4540TIP3    H235036   4.956   0.384   5.081  1.3157 -2.7931 -0.7908
 4541TIP3   OH235037   3.189   4.361   0.322 -0.0988 -0.1479 -0.3327
 4541TIP3    H135038   3.185   4.441   0.269 -0.1643  2.6469  3.6950
 4541TIP3    H235039   3.099   4.329   0.325 -0.7963  1.8540  1.1820
 4542TIP3   OH235040   0.099   1.268  15.471  0.3124 -0.3862 -0.7049
 4542TIP3    H135041   0.157   1.224  15.534 -0.0467  0.1647  0.0238
 4542TIP3    H235042   0.110   1.218  15.390  2.5991  0.3355 -0.8894
 4543TIP3   OH235043   0.366   4.971   2.916 -0.6962  0.6120  0.0526
 4543TIP3    H135044   0.296   5.031   2.942  1.1448  1.8967  2.2004
 4543TIP3    H235045   0.428   5.026   2.867  0.2470  0.1370  0.7025
 4544TIP3   OH235046   2.882   5.341  16.712  0.0011  0.2899 -0.1946
 4544TIP3    H135047   2.798   5.311  16.677 -0.4614  0.3595  0.8247
 4544TIP3    H235048   2.872   5.435  16.721 -0.3663  0.1306  1.3175
 4545TIP3   OH235049   5.377   0.588   2.938 -0.1386  0.5132  0.2348
 4545TIP3    H135050   5.429   0.630   3.007  0.1593  2.0104 -0.8586
 4545TIP3    H235051   5.344   0.661   2.885 -0.8051 -0.5740 -0.8815
 4546TIP3   OH235052   1.729   1.803  17.040 -0.3662  0.1415 -0.2542
 4546TIP3    H135053   1.684   1.791  17.123  0.7679  0.9223  0.4942
 4546TIP3    H235054   1.732   1.898  17.028  1.9419  0.1596  0.2236
 4547TIP3   OH235055   2.547   5.684  15.441 -0.7058 -0.1454 -0.1383
 4547TIP3    H135056   2.475   5.630  15.473 -1.3981  0.4193 -0.7209
 4547TIP3    H235057   2.537   5.684  15.346  0.2982 -0.3844 -0.2498
 4548TIP3   OH235058   2.632   2.911  12.270 -0.0807  0.0658 -0.3371
 4548TIP3    H135059   2.719   2.880  12.296 -0.6224 -0.1064  1.2748
 4548TIP3    H235060   2.597   2.953  12.348 -1.2125  0.6710 -1.1640
 4549TIP3   OH235061   3.679   4.982   6.059 -0.1696  0.4947  0.8619
 4549TIP3    H135062   3.729   5.060   6.080  0.0886  1.3255 -2.5396
 4549TIP3    H235063   3.745   4.917   6.036 -0.4997  0.3863  0.2014
 4550TIP3   OH235064   5.864   5.392   2.508  0.1945 -0.1387 -0.0865
 4550TIP3    H135065   5.885   5.333   2.580  2.6492 -0.3486 -0.9426
 4550TIP3    H235066   5.846   5.333   2.434 -0.8789  0.1202 -0.0481
 4551TIP3   OH235067   0.891   6.591  14.164 -0.0964  0.5522 -0.0483
 4551TIP3    H135068   0.847   6.532  14.226  0.5725  1.3388  1.2021
 4551TIP3    H235069   0.975   6.549  14.147  0.3227  1.0665  0.7331
 4552TIP3   OH235070   2.269   0.632  14.147 -0.1638 -0.2787 -0.7294
 4552TIP3    H135071   2.270   0.543  14.182  0.4744  0.0476  0.1108
 4552TIP3    H235072   2.362   0.655  14.138 -0.2542  1.8219  3.0118
 4553TIP3   OH235073   2.213   6.336  17.204 -0.2634  0.5276 -0.3958
 4553TIP3    H135074   2.271   6.328  17.128 -0.4136  0.1183 -0.4658
 4553TIP3    H235075   2.129   6.362  17.166 -0.7484 -1.1705 -0.5308
 4554TIP3   OH235076   5.644   3.779   0.304  0.0861 -0.6431 -0.2769
 4554TIP3    H135077   5.694   3.701   0.276  0.0078 -0.2212 -1.6376
 4554TIP3    H235078   5.602   3.752   0.385  3.0372 -0.8214  1.2841
 4555TIP3   OH235079   2.267   1.902  13.864  0.1778  0.3480 -0.1028
 4555TIP3    H135080   2.323   1.910  13.787  0.9011  1.7253  0.5574
 4555TIP3    H235081   2.294   1.819  13.904  1.7872  1.0301  0.2443
 4556TIP3   OH235082   3.066   3.580  11.328 -0.0972 -0.0028  0.1543
 4556TIP3    H135083   3.159   3.582  11.351 -0.2436  0.6616  0.7179
 4556TIP3    H235084   3.046   3.488  11.314  0.8711 -0.0648 -0.8875
 4557TIP3   OH235085   4.187   1.760  12.224  0.3100  0.0460  0.2588
 4557TIP3    H135086   4.098   1.771  12.257 -0.1702  1.3672 -1.3934
 4557TIP3    H235087   4.243   1.793  12.294 -0.5488  0.3837  0.7967
 4558TIP3   OH235088   3.445   1.802  15.897  0.0724 -0.0070 -0.1219
 4558TIP3    H135089   3.437   1.709  15.918 -0.5079  0.2989  1.0813
 4558TIP3    H235090   3.492   1.804  15.814 -1.4556 -1.4204 -1.0336
 4559TIP3   OH235091   3.553   5.468   1.958 -0.2414 -0.2001 -0.0088
 4559TIP3    H135092   3.594   5.545   1.917 -0.3289  0.5290  1.2522
 4559TIP3    H235093   3.464   5.467   1.925 -0.1318  0.0359 -0.3092
 4560TIP3   OH235094   1.380   5.381   4.920 -0.1372 -0.5574  0.2331
 4560TIP3    H135095   1.321   5.312   4.951 -0.4178 -1.0596 -1.3948
 4560TIP3    H235096   1.412   5.422   5.000 -2.4202 -0.4984  1.1564
 4561TIP3   OH235097   1.328   4.876  17.147  0.4439  0.0697 -0.2748
 4561TIP3    H135098   1.293   4.809  17.089  0.2160  0.4529 -0.5915
 4561TIP3    H235099   1.284   4.861  17.231 -0.7201  0.7347 -0.7541
 4562TIP3   OH235100   3.594   5.098   3.015  0.0521  0.2965 -0.1617
 4562TIP3    H135101   3.602   5.010   3.051 -1.1274 -0.0034 -0.6170
 4562TIP3    H235102   3.569   5.153   3.089  0.0014  0.1106 -0.0422
 4563TIP3   OH235103   4.303   3.738   4.088  0.1210  0.1525 -0.0734
 4563TIP3    H135104   4.238   3.702   4.028 -0.9864  1.3854  0.3654
 4563TIP3    H235105   4.387   3.719   4.047 -0.5469 -0.8842 -0.9652
 4564TIP3   OH235106   1.318   5.058  10.426  0.9335 -0.4002  0.4103
 4564TIP3    H135107   1.283   4.972  10.450  1.5393 -0.1751  2.2625
 4564TIP3    H235108   1.385   5.040  10.360 -1.8292 -0.9273 -2.3248
 4565TIP3   OH235109   2.801   1.888  11.598 -0.0159 -0.1790 -0.3965
 4565TIP3    H135110   2.756   1.803  11.599  2.0457 -1.3075  1.8364
 4565TIP3    H235111   2.859   1.885  11.674  0.7336  2.9135 -0.7889
 4566TIP3   OH235112   3.146   4.879  13.384 -0.4256  0.4003 -0.1111
 4566TIP3    H135113   3.091   4.956  13.372  1.5364  2.0923  1.4212
 4566TIP3    H235114   3.182   4.861  13.297 -1.3198  0.8634 -0.5837
 4567TIP3   OH235115   2.435   3.111  14.503 -0.2811 -0.1658  0.1523
 4567TIP3    H135116   2.511   3.140  14.553  0.9243  1.0664 -2.3238
 4567TIP3    H235117   2.400   3.190  14.462 -0.5817 -1.2961 -1.8281
 4568TIP3   OH235118   0.663   5.638   3.668  0.2702  0.2879  0.0980
 4568TIP3    H135119   0.645   5.555   3.624 -1.7854  0.1217  1.1967
 4568TIP3    H235120   0.655   5.618   3.761  1.8157  1.2757  0.4708
 4569TIP3   OH235121   0.903   2.811  14.824  0.3086 -0.0421  0.1179
 4569TIP3    H135122   0.868   2.741  14.768  0.3405 -0.4530  0.6174
 4569TIP3    H235123   0.992   2.824  14.792 -0.2803  1.0209 -1.1776
 4570TIP3   OH235124   0.691   1.759  14.285 -0.1520  0.2270  0.8332
 4570TIP3    H135125   0.696   1.817  14.209 -0.6840 -1.9782 -0.9325
 4570TIP3    H235126   0.782   1.731  14.301 -0.1891 -0.2066  0.2891
 4571TIP3   OH235127   4.412   0.642   1.326 -0.6931 -0.1527 -0.2250
 4571TIP3    H135128   4.320   0.626   1.347 -1.7611  1.5359 -3.3182
 4571TIP3    H235129   4.433   0.580   1.257  0.6546 -0.8472  0.7810
 4572TIP3   OH235130   6.570   1.236  15.263  0.6950 -0.4232 -0.0458
 4572TIP3    H135131   6.656   1.258  15.227  1.1523 -1.2679  0.5125
 4572TIP3    H235132   6.508   1.273  15.200  1.4267  1.8529  0.5262
 4573TIP3   OH235133   5.965   2.323  16.183 -0.4847 -0.1833  0.2748
 4573TIP3    H135134   6.012   2.249  16.220 -1.4027 -0.4627  0.8962
 4573TIP3    H235135   5.983   2.318  16.089  0.9971 -0.0788  0.5363
 4574TIP3   OH235136   5.421   0.162  10.297  0.6613 -0.3241 -0.3674
 4574TIP3    H135137   5.330   0.180  10.321  0.7033  2.0850 -1.9317
 4574TIP3    H235138   5.420   0.073  10.262 -1.2831  0.0676 -1.3297
 4575TIP3   OH235139   3.466   0.554   0.581  0.1775  0.0732  0.3443
 4575TIP3    H135140   3.480   0.459   0.574  0.7024  0.2848 -2.1740
 4575TIP3    H235141   3.503   0.589   0.499 -2.3708  2.1634  0.0272
 4576TIP3   OH235142   6.700   0.776  15.084  0.6465  0.2214  0.0090
 4576TIP3    H135143   6.755   0.721  15.028  2.3098 -0.1794  2.0048
 4576TIP3    H235144   6.758   0.805  15.154 -1.0637  1.8458  0.7974
 4577TIP3   OH235145   1.007   3.452  15.880 -0.2852 -0.4080  0.1338
 4577TIP3    H135146   1.005   3.366  15.839 -2.0257 -1.8867  3.1959
 4577TIP3    H235147   1.040   3.437  15.968  1.3289  2.3826  0.0632
 4578TIP3   OH235148   3.331   2.631   3.479 -0.7534 -0.2336 -0.6492
 4578TIP3    H135149   3.389   2.696   3.521  0.3509  0.3169 -2.9478
 4578TIP3    H235150   3.291   2.678   3.406 -2.9981 -1.0532  0.0124
 4579TIP3   OH235151   5.641   0.677   0.411 -0.2899 -0.3441 -0.0185
 4579TIP3    H135152   5.625   0.583   0.407  3.1950 -1.0778  1.4862
 4579TIP3    H235153   5.729   0.688   0.375 -0.2909  2.2261  0.6627
 4580TIP3   OH235154   4.054   4.511  14.482  0.5625  0.1137  0.3905
 4580TIP3    H135155   4.090   4.587  14.528 -0.0046  0.0782  0.9035
 4580TIP3    H235156   3.978   4.486  14.535 -0.0492  0.0229 -0.5328
 4581TIP3   OH235157   6.432   4.335   2.599  0.2271  0.3735  0.1618
 4581TIP3    H135158   6.375   4.398   2.554 -0.2531  0.8240  1.3909
 4581TIP3    H235159   6.471   4.385   2.670  1.2730 -0.2488  0.0356
 4582TIP3   OH235160   4.386   6.681   5.523 -0.0624 -0.5083 -0.0433
 4582TIP3    H135161   4.357   6.609   5.468 -1.2887 -0.3955  0.4466
 4582TIP3    H235162   4.407   6.752   5.461 -0.7988 -0.6040 -0.3998
 4583TIP3   OH235163   0.880   1.398   5.443 -0.0720  0.3439  0.4554
 4583TIP3    H135164   0.785   1.410   5.435 -0.0702  1.0555  1.4088
 4583TIP3    H235165   0.913   1.485   5.465  0.8659  0.2074 -0.3403
 4584TIP3   OH235166   5.373   3.507   5.226 -0.5949  0.5338 -0.2343
 4584TIP3    H135167   5.284   3.474   5.212 -0.9096 -0.1687  3.0419
 4584TIP3    H235168   5.424   3.428   5.244  0.8250  0.9015 -2.4186
 4585TIP3   OH235169   3.923   6.633   4.847  0.1077  0.1982  0.0397
 4585TIP3    H135170   3.842   6.640   4.796 -0.8420  0.7102  1.5993
 4585TIP3    H235171   3.977   6.706   4.815  0.3536 -0.7277 -1.6860
 4586TIP3   OH235172   4.120   6.559  15.947  0.0398  0.4492 -0.1288
 4586TIP3    H135173   4.093   6.468  15.933 -1.8025  1.1904 -1.6970
 4586TIP3    H235174   4.180   6.579  15.876  0.2779  0.5307  0.0920
 4587TIP3   OH235175   4.569   5.314  15.364 -0.1062 -0.2718 -0.0826
 4587TIP3    H135176   4.558   5.407  15.380 -0.5206  0.1858 -2.7760
 4587TIP3    H235177   4.661   5.297  15.385 -0.7231  0.0854  3.1867
 4588TIP3   OH235178   1.385   3.245   3.211  0.2118 -0.5928 -0.3187
 4588TIP3    H135179   1.434   3.233   3.293  0.3925  1.1153 -0.1690
 4588TIP3    H235180   1.420   3.178   3.153 -0.1778 -2.0887  1.1084
 4589TIP3   OH235181   2.763   4.079  11.186 -0.3183  0.4597  0.1139
 4589TIP3    H135182   2.826   4.142  11.221  1.4107 -1.7489  1.1697
 4589TIP3    H235183   2.788   4.069  11.094  0.5429  0.0336  0.3823
 4590TIP3   OH235184   3.403   2.334   3.064  0.1776  0.5124 -0.3923
 4590TIP3    H135185   3.477   2.385   3.031  0.0152  0.9225 -0.1261
 4590TIP3    H235186   3.416   2.331   3.159  0.5326 -0.4907 -0.4642
 4591TIP3   OH235187   5.742   6.785  14.808  0.3847 -0.3759  0.5951
 4591TIP3    H135188   5.769   6.769  14.717 -0.0519 -0.8125  0.5364
 4591TIP3    H235189   5.814   6.751  14.861  1.1675  0.9519  0.3918
 4592TIP3   OH235190   5.242   3.435  14.325 -0.4242  0.2550  0.2006
 4592TIP3    H135191   5.264   3.529  14.325 -0.0204  0.1823  2.1568
 4592TIP3    H235192   5.162   3.429  14.272 -1.8037  2.0552  1.9983
 4593TIP3   OH235193   4.625   3.981   2.845  0.6402  0.0777  0.1296
 4593TIP3    H135194   4.572   3.997   2.766  0.7107  0.5546  0.1766
 4593TIP3    H235195   4.607   3.890   2.868 -1.3649  0.6799  1.0297
 4594TIP3   OH235196   4.051   2.879  15.900  0.0259 -0.0145 -0.0502
 4594TIP3    H135197   4.098   2.927  15.968 -0.9559  1.0827 -0.1262
 4594TIP3    H235198   4.027   2.796  15.940 -0.5638  0.6332  0.9569
 4595TIP3   OH235199   5.285   0.245   1.131 -0.2120 -0.7390 -0.4125
 4595TIP3    H135200   5.265   0.293   1.051 -2.6772 -1.4899 -0.3052
 4595TIP3    H235201   5.277   0.309   1.201 -0.2332 -0.5785 -0.5621
 4596TIP3   OH235202   0.206   1.052   2.668  0.3671  0.0777 -0.2996
 4596TIP3    H135203   0.148   1.015   2.603 -1.4465 -0.9473  1.8336
 4596TIP3    H235204   0.281   0.993   2.670 -0.4973 -1.0255 -0.0371
 4597TIP3   OH235205   4.823   4.354  11.618  0.0259  0.4678 -0.2443
 4597TIP3    H135206   4.898   4.410  11.639 -0.2351  0.2278  1.3447
 4597TIP3    H235207   4.748   4.400  11.654 -0.3673 -0.2040 -0.2076
 4598TIP3   OH235208   5.536   0.797   1.963  0.6178 -0.4431  0.1225
 4598TIP3    H135209   5.567   0.797   1.873 -1.3637 -0.8948 -0.5614
 4598TIP3    H235210   5.604   0.845   2.011  0.3378  2.2769 -2.0602
 4599TIP3   OH235211   1.293   0.283   1.038  0.1632 -0.3404  0.1408
 4599TIP3    H135212   1.320   0.361   0.989 -0.3168 -0.6638 -0.6470
 4599TIP3    H235213   1.315   0.210   0.981 -0.0530 -0.7498  0.5770
 4600TIP3   OH235214   0.698   0.875   5.660 -0.2453 -0.2042 -0.2402
 4600TIP3    H135215   0.755   0.850   5.733 -0.4626 -0.5896 -0.2026
 4600TIP3    H235216   0.735   0.957   5.628  1.1060 -1.1065 -1.0617
 4601TIP3   OH235217   3.924   0.131   1.913 -0.9354 -0.0391  0.1927
 4601TIP3    H135218   3.965   0.066   1.857  0.6311 -0.7839  2.1379
 4601TIP3    H235219   3.833   0.102   1.921 -1.0553 -0.1734 -1.5464
 4602TIP3   OH235220   5.560   3.724  14.428 -0.2062  0.4577  0.3001
 4602TIP3    H135221   5.505   3.713  14.506 -0.8014 -1.7008 -0.3803
 4602TIP3    H235222   5.581   3.634  14.402  1.2479  1.2050 -1.1489
 4603TIP3   OH235223   3.961   3.990  15.980 -0.0060  0.3197 -0.0333
 4603TIP3    H135224   4.018   4.043  15.924  1.6502 -1.5335 -0.1572
 4603TIP3    H235225   4.021   3.951  16.044 -1.1184 -1.8644 -0.3073
 4604TIP3   OH235226   5.433   1.096   4.249 -0.0889 -0.6583  0.2080
 4604TIP3    H135227   5.451   1.110   4.156  0.4139  0.3483  0.4579
 4604TIP3    H235228   5.382   1.015   4.251  0.9874 -1.3745 -0.8375
 4605TIP3   OH235229   0.299   0.467   1.521 -0.2741 -0.4144  0.0437
 4605TIP3    H135230   0.334   0.402   1.460 -0.1934 -0.0840 -0.2634
 4605TIP3    H235231   0.344   0.448   1.603 -0.7700 -1.1948  0.1391
 4606TIP3   OH235232   0.849   2.480   1.402 -0.5159  1.2263 -0.0670
 4606TIP3    H135233   0.897   2.457   1.482  0.3503  1.1631 -0.5972
 4606TIP3    H235234   0.842   2.398   1.353 -2.7629  0.8496  0.8249
 4607TIP3   OH235235   3.343   3.710  15.356 -0.1327 -0.0271  0.5043
 4607TIP3    H135236   3.328   3.622  15.321 -0.5442  0.2676 -0.0760
 4607TIP3    H235237   3.432   3.733  15.328  1.2591 -1.5498  3.4549
 4608TIP3   OH235238   0.093   6.463  15.725  0.5078 -0.2099  0.0886
 4608TIP3    H135239   0.184   6.439  15.742  1.0502  0.9107 -1.1397
 4608TIP3    H235240   0.044   6.381  15.730  1.3654 -0.6092  2.1711
 4609TIP3   OH235241   2.270   2.613   0.187  0.2172  0.5173 -0.0634
 4609TIP3    H135242   2.255   2.676   0.257  1.0895  0.5099  0.1459
 4609TIP3    H235243   2.201   2.548   0.197 -0.3014  1.0967  0.1181
 4610TIP3   OH235244   2.808   4.056   5.604 -0.7547  0.0993 -0.2804
 4610TIP3    H135245   2.728   4.011   5.629 -0.7804  0.3778  0.1406
 4610TIP3    H235246   2.805   4.139   5.651 -0.8879  0.6990 -1.3358
 4611TIP3   OH235247   3.644   0.067  10.831 -0.8167 -0.7591 -0.1996
 4611TIP3    H135248   3.714   0.003  10.844  0.0955  0.4525  1.0631
 4611TIP3    H235249   3.567   0.028  10.873 -0.4036 -1.2477  0.1061
 4612TIP3   OH235250   1.231   4.974   4.899  0.4889  0.0040 -0.6005
 4612TIP3    H135251   1.163   4.911   4.923  1.5447 -0.8105  0.2800
 4612TIP3    H235252   1.201   5.057   4.938  1.2407 -0.8963  1.9559
 4613TIP3   OH235253   2.896   1.523  14.851  0.2955 -1.0090 -0.0475
 4613TIP3    H135254   2.966   1.495  14.791 -0.1470  0.0175 -1.0767
 4613TIP3    H235255   2.878   1.614  14.825 -0.9141 -1.0269  0.6906
 4614TIP3   OH235256   4.654   6.260  16.917 -0.2216 -0.4888 -0.3656
 4614TIP3    H135257   4.628   6.194  16.853 -0.8701  0.3638 -0.9855
 4614TIP3    H235258   4.705   6.323  16.867  0.3082 -0.4555  0.2077
 4615TIP3   OH235259   2.334   3.293   2.495 -0.3368 -0.0606  0.2206
 4615TIP3    H135260   2.388   3.306   2.417 -0.6689  0.7058  0.1116
 4615TIP3    H235261   2.310   3.201   2.493  1.7529 -0.6385  0.7804
 4616TIP3   OH235262   3.968   0.314  16.321  0.1984  0.0997 -0.4451
 4616TIP3    H135263   4.048   0.306  16.373 -0.5797 -0.4777  0.6787
 4616TIP3    H235264   3.936   0.225  16.311 -0.0028  0.2695 -1.3893
 4617TIP3   OH235265   5.820   4.430  14.463 -0.2947 -0.6234 -0.4829
 4617TIP3    H135266   5.843   4.342  14.433 -0.1451 -1.3268  1.5685
 4617TIP3    H235267   5.855   4.488  14.396  1.5708 -2.0128 -0.7672
 4618TIP3   OH235268   5.986   0.369  16.842  0.0659 -0.4759  0.2537
 4618TIP3    H135269   5.982   0.383  16.936 -0.8510 -1.5741  0.3872
 4618TIP3    H235270   6.010   0.277  16.832  0.3812 -0.3089 -0.5821
 4619TIP3   OH235271   5.526   1.667  16.366 -0.0828 -1.0598  0.5379
 4619TIP3    H135272   5.523   1.715  16.283 -0.0718 -0.0108  1.1330
 4619TIP3    H235273   5.435   1.657  16.391 -0.0387 -0.2767  1.0189
 4620TIP3   OH235274   4.267   1.441   1.266  0.1453  0.8435  0.0586
 4620TIP3    H135275   4.178   1.454   1.233 -0.1703 -1.1128  0.1004
 4620TIP3    H235276   4.257   1.435   1.361  0.1918 -0.3542 -0.0076
 4621TIP3   OH235277   0.144   1.132  13.308 -0.8279  0.0483  0.1340
 4621TIP3    H135278   0.076   1.157  13.246 -1.3702 -1.5989  0.0587
 4621TIP3    H235279   0.144   1.203  13.373 -0.6176  1.5136 -1.4105
 4622TIP3   OH235280   3.875   2.880   1.399 -0.2838 -0.1043 -0.3515
 4622TIP3    H135281   3.939   2.942   1.435 -0.0035 -0.0733 -0.8919
 4622TIP3    H235282   3.911   2.856   1.314 -1.2622  0.3370 -0.9022
 4623TIP3   OH235283   6.174   4.310  11.916 -0.4281 -0.6649 -0.1949
 4623TIP3    H135284   6.155   4.363  11.839 -0.6151 -0.9126 -0.3199
 4623TIP3    H235285   6.254   4.263  11.894 -0.1293 -0.2438  0.0133
 4624TIP3   OH235286   5.775   6.180   5.457 -0.6082  0.4454 -0.1971
 4624TIP3    H135287   5.822   6.205   5.536  0.1325  1.5848 -0.9733
 4624TIP3    H235288   5.798   6.247   5.393 -2.1728  0.2250 -1.0227
 4625TIP3   OH235289   2.994   2.634   2.063  0.0412 -0.0303  0.1091
 4625TIP3    H135290   2.975   2.633   2.157  0.5928 -0.0354  0.2225
 4625TIP3    H235291   3.084   2.602   2.057  0.0341  0.0531 -0.4166
 4626TIP3   OH235292   2.046   5.148  15.541 -0.0154 -0.0115 -0.5300
 4626TIP3    H135293   2.069   5.064  15.582  2.0542  0.5892 -0.4074
 4626TIP3    H235294   2.128   5.197  15.540 -0.5740  0.9375 -3.2122
 4627TIP3   OH235295   3.539   2.905  13.003 -0.0621  0.5571 -0.2311
 4627TIP3    H135296   3.546   2.810  12.994  1.3068  0.6347 -0.1089
 4627TIP3    H235297   3.527   2.920  13.097  6.2589  0.7804  0.7930
 4628TIP3   OH235298   0.421   0.766   4.195  0.5080 -0.1040 -0.5656
 4628TIP3    H135299   0.375   0.844   4.226  2.0773  0.8304 -0.5610
 4628TIP3    H235300   0.405   0.765   4.101  1.0998  0.6331 -0.6747
 4629TIP3   OH235301   0.153   6.317   1.224  0.2161 -0.1446  0.0274
 4629TIP3    H135302   0.167   6.312   1.319 -2.1348 -1.4507  0.3401
 4629TIP3    H235303   0.182   6.233   1.190  1.7657  0.5927 -0.5582
 4630TIP3   OH235304   2.704   3.798   2.444 -0.1875  0.3731  0.3798
 4630TIP3    H135305   2.627   3.853   2.427 -0.6423 -0.7536 -1.3854
 4630TIP3    H235306   2.673   3.709   2.426  1.5738 -0.0780 -0.5380
 4631TIP3   OH235307   6.086   2.085  12.999  0.1484  0.2026  0.2879
 4631TIP3    H135308   6.176   2.071  13.029  0.8876  1.0969 -1.4269
 4631TIP3    H235309   6.078   2.030  12.921 -0.5312  0.7853 -0.0583
 4632TIP3   OH235310   5.682   4.436  12.720  0.2847  0.2627 -0.3970
 4632TIP3    H135311   5.687   4.495  12.795  1.5741  0.9429 -0.9983
 4632TIP3    H235312   5.687   4.494  12.644  0.3454 -0.5280 -1.0003
 4633TIP3   OH235313   2.446   0.749  15.992 -0.3863  0.2350  0.4347
 4633TIP3    H135314   2.374   0.799  15.953 -1.0490 -0.7617  0.3860
 4633TIP3    H235315   2.514   0.750  15.924 -1.2021 -0.7330 -0.4028
 4634TIP3   OH235316   3.382   0.807  14.495  0.1317  0.1652  0.0521
 4634TIP3    H135317   3.466   0.802  14.451 -0.2744  0.9177 -0.8451
 4634TIP3    H235318   3.357   0.900  14.488 -0.5343  0.0431  0.7334
 4635TIP3   OH235319   5.953   2.967  12.859  0.0842  0.3288  0.4937
 4635TIP3    H135320   5.946   3.008  12.945  2.4281 -0.6528  1.1782
 4635TIP3    H235321   6.046   2.947  12.849 -0.0141  1.2191 -2.6577
 4636TIP3   OH235322   5.352   5.207  11.729  0.0423  0.4418  0.4721
 4636TIP3    H135323   5.269   5.254  11.731 -1.1983 -1.6402 -0.3020
 4636TIP3    H235324   5.415   5.267  11.769 -1.9365  1.8142  1.5937
 4637TIP3   OH235325   1.342   0.533   5.522  0.1111 -0.1954 -0.3200
 4637TIP3    H135326   1.433   0.561   5.534  0.4025 -0.9923 -0.6605
 4637TIP3    H235327   1.341   0.491   5.437 -0.5479 -0.3313 -0.2455
 4638TIP3   OH235328   4.673   2.701  16.136  0.0408  0.7856 -0.5623
 4638TIP3    H135329   4.641   2.611  16.141 -1.3148  1.3266  1.0024
 4638TIP3    H235330   4.610   2.746  16.079 -0.2424  1.1217  0.0069
 4639TIP3   OH235331   4.575   2.043  13.592 -0.3780  0.4222 -0.5920
 4639TIP3    H135332   4.652   2.099  13.602  0.9824 -1.6367  0.5779
 4639TIP3    H235333   4.559   2.008  13.679 -0.1582 -2.3796 -1.6338
 4640TIP3   OH235334   3.765   0.091  16.871  1.0153 -0.1144  0.5952
 4640TIP3    H135335   3.784   0.054  16.957  1.1448 -2.5341 -0.4183
 4640TIP3    H235336   3.717   0.022  16.825  0.6055  1.2804 -1.1255
 4641TIP3   OH235337   5.938   0.289  16.330 -0.1526  0.6643  0.0051
 4641TIP3    H135338   5.906   0.206  16.294 -0.1239  0.7692 -0.2546
 4641TIP3    H235339   6.007   0.262  16.391 -0.2588  0.4843  0.0485
 4642TIP3   OH235340   0.096   3.685   4.458  0.6086 -0.5843  0.2068
 4642TIP3    H135341   0.008   3.658   4.483  0.6812 -0.2701  0.7884
 4642TIP3    H235342   0.151   3.659   4.531  0.6578  1.3340  0.8679
 4643TIP3   OH235343   1.130   6.679  11.460  0.8531 -0.2374  0.5566
 4643TIP3    H135344   1.049   6.717  11.425  1.9398  0.4884 -1.2830
 4643TIP3    H235345   1.180   6.754  11.492  1.8775 -0.3854 -0.6591
 4644TIP3   OH235346   5.904   6.600   5.311 -0.8663 -0.1165  0.3512
 4644TIP3    H135347   5.836   6.639   5.367 -0.3928  2.1071 -0.5719
 4644TIP3    H235348   5.867   6.604   5.223  0.3948  1.0100 -0.1450
 4645TIP3   OH235349   1.932   5.239  13.676 -0.3906 -0.0068 -0.0520
 4645TIP3    H135350   1.846   5.280  13.668 -1.0904 -1.5762 -0.7603
 4645TIP3    H235351   1.924   5.156  13.629  0.5476 -1.6533  2.5852
 4646TIP3   OH235352   0.848   5.640   6.228 -0.6946 -0.5117  0.7819
 4646TIP3    H135353   0.942   5.628   6.222 -0.7114 -0.4270  0.3287
 4646TIP3    H235354   0.834   5.734   6.212 -1.0450 -0.9270 -1.4733
 4647TIP3   OH235355   1.974   3.028   1.916 -0.2512 -0.1069  0.1633
 4647TIP3    H135356   2.003   3.043   2.006 -1.3069  2.3749  0.1206
 4647TIP3    H235357   2.031   3.084   1.864 -2.7422  2.1409 -0.2441
 4648TIP3   OH235358   1.365   3.265  11.431 -0.3755 -0.5519 -0.4266
 4648TIP3    H135359   1.401   3.326  11.367  0.2362 -1.1677 -0.6780
 4648TIP3    H235360   1.441   3.220  11.467 -0.5615  0.9812  2.0016
 4649TIP3   OH235361   6.267   2.530  15.610  0.0184 -0.1714  0.5182
 4649TIP3    H135362   6.203   2.515  15.542  0.8946  1.2310 -0.6487
 4649TIP3    H235363   6.314   2.447  15.618 -0.5397 -0.5497 -0.0857
 4650TIP3   OH235364   0.879   6.081  14.298  0.5347 -0.6692 -0.6058
 4650TIP3    H135365   0.789   6.100  14.327  0.6635  1.4540 -1.5010
 4650TIP3    H235366   0.901   5.999  14.341 -1.4069 -0.5945  0.6030
 4651TIP3   OH235367   2.162   5.105  17.198 -0.7247  0.1812 -0.2988
 4651TIP3    H135368   2.135   5.165  17.129 -0.6340  0.6291  0.0587
 4651TIP3    H235369   2.083   5.091  17.250 -1.2926 -1.6211 -1.5621
 4652TIP3   OH235370   5.241   4.144  12.911 -0.1168  0.6281  0.5662
 4652TIP3    H135371   5.258   4.230  12.873 -0.4708  0.7916  0.7775
 4652TIP3    H235372   5.243   4.084  12.837 -1.1979  0.9994  0.2331
 4653TIP3   OH235373   1.611   2.286  16.964 -0.2728  0.2163  0.0911
 4653TIP3    H135374   1.627   2.349  16.893  1.3771 -0.2268  0.0519
 4653TIP3    H235375   1.516   2.284  16.973 -0.3864  1.9911 -0.5659
 4654TIP3   OH235376   5.168   5.259  11.302 -0.3118  0.2665  0.2399
 4654TIP3    H135377   5.099   5.202  11.269 -0.3892  0.5355 -0.0750
 4654TIP3    H235378   5.153   5.342  11.256 -0.4005  0.6373  0.9366
 4655TIP3   OH235379   3.676   0.180   5.169  0.5858  0.2470  0.3039
 4655TIP3    H135380   3.605   0.228   5.210  2.3665  0.5928  3.1223
 4655TIP3    H235381   3.720   0.245   5.113  0.3382  0.7456  0.6916
 4656TIP3   OH235382   1.390   3.851   3.777  0.0567  0.0648  0.6025
 4656TIP3    H135383   1.330   3.790   3.733  0.5227 -1.4800  2.0624
 4656TIP3    H235384   1.333   3.905   3.832 -0.0465 -1.3497  1.9288
 4657TIP3   OH235385   6.009   3.815   2.993 -0.1591 -0.0215 -0.0709
 4657TIP3    H135386   5.960   3.894   2.971 -1.8446 -0.9084  0.4788
 4657TIP3    H235387   5.945   3.744   2.987  1.3403 -1.3620 -0.5983
 4658TIP3   OH235388   3.074   6.360  14.995  0.1265  0.0868  0.5684
 4658TIP3    H135389   3.064   6.388  14.904  0.0447  0.0527  0.5678
 4658TIP3    H235390   3.135   6.424  15.033 -1.7572  1.6151  1.1505
 4659TIP3   OH235391   3.478   1.415  13.658 -0.2492  0.1951 -0.1747
 4659TIP3    H135392   3.560   1.381  13.694 -1.1542 -1.2447  0.5662
 4659TIP3    H235393   3.452   1.351  13.592  0.6701  2.1012 -2.4723
 4660TIP3   OH235394   0.009   3.708  10.380 -0.1737 -0.4935 -0.7660
 4660TIP3    H135395   0.043   3.633  10.428 -2.5059 -1.1222 -0.0035
 4660TIP3    H235396   0.065   3.781  10.407 -1.8006 -0.6878  3.5208
 4661TIP3   OH235397   2.070   3.347   3.999 -0.7022  0.2949  0.7751
 4661TIP3    H135398   1.989   3.299   4.018 -0.5001 -0.5458 -0.4062
 4661TIP3    H235399   2.040   3.426   3.955 -1.0887  1.6754  3.4519
 4662TIP3   OH235400   5.577   2.086   4.979  0.2291 -0.5005  0.4613
 4662TIP3    H135401   5.535   2.099   5.063 -1.1405 -1.1437 -0.1208
 4662TIP3    H235402   5.511   2.044   4.924  1.4410 -1.0461 -0.6230
 4663TIP3   OH235403   2.372   1.059   2.451 -0.5501  0.2336 -0.2512
 4663TIP3    H135404   2.380   1.116   2.528 -0.5222 -0.2230  0.0910
 4663TIP3    H235405   2.285   1.076   2.417 -1.0205 -0.4241  0.5873
 4664TIP3   OH235406   4.597   3.742   5.785 -0.4601 -0.0829 -0.5541
 4664TIP3    H135407   4.614   3.821   5.733 -0.7803  1.4670  1.6638
 4664TIP3    H235408   4.655   3.750   5.861  0.1674 -2.4450 -0.7389
 4665TIP3   OH235409   2.373   4.329  11.977  0.2058  0.5493 -0.6663
 4665TIP3    H135410   2.360   4.350  11.884  1.6187  1.0306 -0.7750
 4665TIP3    H235411   2.414   4.243  11.976 -1.8039 -0.4299 -0.3869
 4666TIP3   OH235412   3.475   1.247   0.543  0.4078  0.4598 -0.5523
 4666TIP3    H135413   3.409   1.182   0.523  0.6890 -0.3590  1.0830
 4666TIP3    H235414   3.469   1.311   0.472 -0.6270 -0.7574 -1.5672
 4667TIP3   OH235415   3.068   5.862  11.371 -0.0185 -0.0468 -0.7075
 4667TIP3    H135416   3.098   5.924  11.306 -0.2142 -0.6960 -1.4248
 4667TIP3    H235417   3.130   5.870  11.443 -0.7577  1.8558 -0.2722
 4668TIP3   OH235418   2.563   2.464  16.285  0.1573 -0.1679  0.2866
 4668TIP3    H135419   2.473   2.492  16.269 -0.1141 -0.6487  0.9379
 4668TIP3    H235420   2.613   2.500  16.212 -0.2067  1.8228  0.9907
 4669TIP3   OH235421   4.064   5.583   2.805 -0.3718 -0.0971  0.5957
 4669TIP3    H135422   4.039   5.513   2.865  0.0139  1.5268  2.7227
 4669TIP3    H235423   4.151   5.610   2.835  1.0866 -1.1724 -2.5181
 4670TIP3   OH235424   2.121   2.397  11.684 -0.3641  0.5182 -0.1121
 4670TIP3    H135425   2.151   2.400  11.775 -1.4555  2.6091  0.2056
 4670TIP3    H235426   2.199   2.418  11.632 -0.5351  2.9748  0.5625
 4671TIP3   OH235427   4.163   3.891  15.577 -0.4871  0.4606  0.0313
 4671TIP3    H135428   4.081   3.855  15.543 -0.3155  0.5911 -0.5391
 4671TIP3    H235429   4.151   3.986  15.570 -0.2923  0.4792 -0.0427
 4672TIP3   OH235430   0.514   5.508  14.531 -0.0795 -0.0861 -0.2690
 4672TIP3    H135431   0.501   5.421  14.494 -1.8554  0.8537 -1.9435
 4672TIP3    H235432   0.569   5.553  14.467  1.3682 -0.1671  0.9036
 4673TIP3   OH235433   6.440   5.385   2.403 -0.1644 -0.2825  0.1052
 4673TIP3    H135434   6.358   5.409   2.360 -0.7128 -3.1861 -0.6116
 4673TIP3    H235435   6.506   5.395   2.335 -0.6273 -2.1960 -0.6734
 4674TIP3   OH235436   6.398   3.408   6.657 -0.3031  0.4810 -0.1767
 4674TIP3    H135437   6.493   3.398   6.666 -0.3401  0.2820  0.0038
 4674TIP3    H235438   6.361   3.348   6.722 -0.5580  0.0606 -0.7059
 4675TIP3   OH235439   5.096   5.512   2.921  0.2041 -0.0743 -0.0514
 4675TIP3    H135440   5.020   5.455   2.923  1.2661 -1.4908  0.7772
 4675TIP3    H235441   5.112   5.534   3.013  0.1364  1.1243 -0.3142
 4676TIP3   OH235442   1.150   2.302  15.341  0.1802  0.1468 -0.2489
 4676TIP3    H135443   1.190   2.302  15.254 -0.4118 -2.6739 -0.5620
 4676TIP3    H235444   1.224   2.308  15.401  0.8855 -1.5638 -0.8955
 4677TIP3   OH235445   2.856   2.453   4.283 -0.2108  0.0153  0.6143
 4677TIP3    H135446   2.844   2.403   4.202 -3.0828 -3.2938  2.9320
 4677TIP3    H235447   2.941   2.425   4.316 -0.0481 -0.3444 -0.1041
 4678TIP3   OH235448   1.072   3.179   2.289  0.2284 -0.2994  0.4418
 4678TIP3    H135449   1.133   3.118   2.246  0.3122 -0.6536  1.0545
 4678TIP3    H235450   0.992   3.128   2.299  0.1604 -0.1644  0.5753
 4679TIP3   OH235451   5.252   4.412   2.636 -0.2864 -0.0275  0.5420
 4679TIP3    H135452   5.168   4.444   2.602  0.1530  0.7934  0.2024
 4679TIP3    H235453   5.292   4.488   2.676  0.0179 -0.5739  1.2827
 4680TIP3   OH235454   6.402   2.111   2.652 -0.3618  0.1602  0.3596
 4680TIP3    H135455   6.476   2.062   2.615 -0.1780  0.0417  0.8886
 4680TIP3    H235456   6.371   2.057   2.725 -1.5136 -0.2199 -0.3835
 4681TIP3   OH235457   6.266   2.752  17.175 -0.3266 -0.1202  0.3814
 4681TIP3    H135458   6.203   2.695  17.220  0.4984 -0.9102  0.5637
 4681TIP3    H235459   6.299   2.698  17.103  2.2654 -0.7599  1.9973
 4682TIP3   OH235460   6.490   1.443  11.061  0.4431  0.2277  0.1781
 4682TIP3    H135461   6.535   1.369  11.022 -0.2900  1.3022 -2.8704
 4682TIP3    H235462   6.404   1.409  11.086  1.6252 -0.9585  2.7644
 4683TIP3   OH235463   4.046   4.924   2.690  0.2410  0.0584  0.4393
 4683TIP3    H135464   4.137   4.925   2.660  0.0385 -0.4765 -0.2054
 4683TIP3    H235465   4.052   4.948   2.783  1.1980 -1.4654  0.7984
 4684TIP3   OH235466   5.602   6.555  12.312 -0.0769 -0.7943 -0.7321
 4684TIP3    H135467   5.605   6.466  12.278  1.1348 -0.5376 -1.3491
 4684TIP3    H235468   5.686   6.565  12.358 -0.2289  0.0121 -0.6262
 4685TIP3   OH235469   3.797   6.524   0.490 -0.3585 -0.6431 -0.2544
 4685TIP3    H135470   3.886   6.491   0.477 -0.0053  0.8562 -1.9201
 4685TIP3    H235471   3.741   6.460   0.447 -0.0000 -0.9986 -0.1983
 4686TIP3   OH235472   4.887   5.153   1.020  0.6703  0.2827  0.2843
 4686TIP3    H135473   4.872   5.206   0.942 -4.9974 -0.9354  0.3067
 4686TIP3    H235474   4.891   5.063   0.988 -0.8466 -0.1471  1.2152
 4687TIP3   OH235475   5.000   0.178   6.222 -0.0007  0.0525 -0.2727
 4687TIP3    H135476   4.964   0.263   6.196  0.2601  0.0875 -0.5191
 4687TIP3    H235477   4.929   0.116   6.209 -0.6777  0.4701  1.3186
 4688TIP3   OH235478   6.448   4.285  12.970 -0.0337  0.1335  0.7674
 4688TIP3    H135479   6.405   4.369  12.985  0.1220  0.7091 -1.7042
 4688TIP3    H235480   6.376   4.227  12.943  0.3192  0.3743 -0.7325
 4689TIP3   OH235481   6.051   0.026   4.032 -0.4537 -0.1653  0.3713
 4689TIP3    H135482   6.043  -0.069   4.042  1.6480 -0.4818 -0.6542
 4689TIP3    H235483   6.097   0.038   3.949 -0.1591  1.7408  0.7806
 4690TIP3   OH235484   1.105   6.501  17.053  0.0939 -0.0153  0.1992
 4690TIP3    H135485   1.073   6.588  17.028 -0.2323 -0.2057 -0.0604
 4690TIP3    H235486   1.080   6.491  17.144 -0.5879 -0.1650 -0.0064
 4691TIP3   OH235487   2.009   5.897  16.680  0.0919 -0.7670  0.2439
 4691TIP3    H135488   1.934   5.957  16.680  0.6795  0.0171  2.0710
 4691TIP3    H235489   2.037   5.893  16.589 -1.3806 -0.0588 -0.2523
 4692TIP3   OH235490   5.849   6.258   4.427  0.3846  0.3185  0.1777
 4692TIP3    H135491   5.769   6.298   4.461 -0.2072  0.0597 -0.9155
 4692TIP3    H235492   5.911   6.331   4.420 -0.6687  1.0499 -1.7466
 4693TIP3   OH235493   1.852   4.173   1.263  0.4346  0.1053  0.3198
 4693TIP3    H135494   1.892   4.087   1.247  0.3276 -0.0183  0.7294
 4693TIP3    H235495   1.888   4.229   1.194 -1.1798 -0.8119 -1.3281
 4694TIP3   OH235496   0.927   5.140   1.807 -0.7593 -0.5050 -0.2571
 4694TIP3    H135497   0.859   5.169   1.868  1.4249 -0.3364  2.1839
 4694TIP3    H235498   1.009   5.157   1.853  0.8468 -4.0084 -1.6231
 4695TIP3   OH235499   5.174   1.046  12.215  0.1772 -0.2580 -0.4754
 4695TIP3    H135500   5.187   0.985  12.143  0.8830 -1.9653  1.0677
 4695TIP3    H235501   5.108   1.004  12.271  0.8223  0.2745  0.7092
 4696TIP3   OH235502   5.021   0.415   1.752  0.2257  0.2634 -0.3565
 4696TIP3    H135503   5.069   0.498   1.751 -1.7215  1.3964 -0.8446
 4696TIP3    H235504   5.052   0.369   1.673 -0.0041  1.2785 -1.0466
 4697TIP3   OH235505   1.312   0.433  13.252  0.1640  0.1815 -0.8576
 4697TIP3    H135506   1.320   0.415  13.159  1.0247 -0.0612 -0.7414
 4697TIP3    H235507   1.400   0.422  13.286 -0.1147  0.4356 -0.0429
 4698TIP3   OH235508   6.729   1.020  16.449 -0.4626 -0.0889 -0.7761
 4698TIP3    H135509   6.687   1.077  16.513 -1.0651 -0.9877 -0.3598
 4698TIP3    H235510   6.663   0.954  16.428 -0.2444  0.1387 -2.2700
 4699TIP3   OH235511   2.091   0.049   1.767 -0.4609 -0.1102  0.8552
 4699TIP3    H135512   2.161   0.020   1.827 -1.7074 -0.2358  2.2766
 4699TIP3    H235513   2.064   0.134   1.802  1.2942  1.5867 -1.6972
 4700TIP3   OH235514   2.595   6.625   2.765 -0.5384 -0.1731 -0.1401
 4700TIP3    H135515   2.563   6.566   2.697  0.6461 -1.9894  0.8653
 4700TIP3    H235516   2.666   6.578   2.808  0.1080  1.7771  1.0166
 4701TIP3   OH235517   6.158   6.136   4.860 -0.1654  0.6353  0.3729
 4701TIP3    H135518   6.213   6.098   4.929  0.6756  0.1475 -0.5592
 4701TIP3    H235519   6.068   6.122   4.891  0.1721 -0.6678  0.8142
 4702TIP3   OH235520   2.303   2.355   1.894 -1.0446 -0.1081  0.0218
 4702TIP3    H135521   2.273   2.408   1.821 -0.9076 -0.1806 -0.0867
 4702TIP3    H235522   2.324   2.418   1.963  0.4096  0.0739 -0.5623
 4703TIP3   OH235523   5.929   0.828   4.187  0.4357  0.0025 -0.2075
 4703TIP3    H135524   5.837   0.815   4.165  0.5190 -1.7208  0.3645
 4703TIP3    H235525   5.941   0.923   4.189 -1.5867  0.2578  0.7112
 4704TIP3   OH235526   4.187   4.780   0.634  0.3889 -0.1112  0.3047
 4704TIP3    H135527   4.266   4.748   0.590 -0.4951 -0.2921 -1.2007
 4704TIP3    H235528   4.217   4.811   0.719  1.9386 -1.0005  0.0975
 4705TIP3   OH235529   3.615   2.261  13.877  0.1435 -0.6263 -0.1504
 4705TIP3    H135530   3.622   2.355  13.861  0.3478 -0.7080 -0.5477
 4705TIP3    H235531   3.697   2.225  13.844  0.4647 -0.8333  0.8780
 4706TIP3   OH235532   3.713   6.631  12.514  0.4173  0.2302  0.7084
 4706TIP3    H135533   3.645   6.691  12.543  1.0439  1.4945 -0.3795
 4706TIP3    H235534   3.793   6.662  12.557  0.7034  0.0701  0.3013
 4707TIP3   OH235535   2.363   4.750  14.902  0.3602  0.1436 -0.5227
 4707TIP3    H135536   2.431   4.804  14.943 -0.0469  0.4552 -0.2515
 4707TIP3    H235537   2.329   4.806  14.831  0.2601  0.0579 -0.5417
 4708TIP3   OH235538   5.063   3.161  14.348  0.0677  0.1270  0.0520
 4708TIP3    H135539   5.044   3.070  14.369  1.8336  0.0743  1.5130
 4708TIP3    H235540   5.149   3.178  14.388  0.0560  2.2360 -0.7455
 4709TIP3   OH235541   1.085   1.176  12.037 -0.6632  0.3450  0.2556
 4709TIP3    H135542   1.080   1.249  11.976 -2.8742 -0.7284 -0.9190
 4709TIP3    H235543   1.023   1.199  12.107 -0.6770  0.0360  0.3491
 4710TIP3   OH235544   5.177   5.124   6.084 -0.0568  0.0309  0.3405
 4710TIP3    H135545   5.120   5.178   6.029  0.8713  0.2267 -0.4482
 4710TIP3    H235546   5.225   5.187   6.138 -0.3011 -0.1138  0.7326
 4711TIP3   OH235547   5.354   0.009   3.213  0.1588 -0.0747  0.1100
 4711TIP3    H135548   5.381  -0.083   3.222  1.8303  0.4912  1.0987
 4711TIP3    H235549   5.435   0.059   3.224 -0.8483  1.5486  0.2675
 4712TIP3   OH235550   3.591   0.590  16.428 -0.6762 -0.2467 -0.2918
 4712TIP3    H135551   3.567   0.545  16.347 -3.0905  2.0700 -0.9341
 4712TIP3    H235552   3.565   0.531  16.498 -2.2628 -0.5708 -1.1486
 4713TIP3   OH235553   0.816   3.391   5.019 -0.3369 -0.3197  0.5748
 4713TIP3    H135554   0.848   3.462   5.075 -1.2257 -1.3488  2.4669
 4713TIP3    H235555   0.895   3.341   4.996 -0.2405 -1.4599  3.2140
 4714TIP3   OH235556   0.805   2.774  12.935 -0.6246  0.1002 -0.7300
 4714TIP3    H135557   0.821   2.697  12.990 -0.3898 -0.2627 -1.3025
 4714TIP3    H235558   0.784   2.844  12.997  1.3402  0.1298 -0.0700
 4715TIP3   OH235559   4.344   1.810  15.920  0.4227 -0.2762 -0.5352
 4715TIP3    H135560   4.257   1.776  15.939  0.8238 -0.5308  0.9506
 4715TIP3    H235561   4.329   1.887  15.865 -0.7879  0.2661  0.5351
 4716TIP3   OH235562   4.047   3.776   3.866 -0.2410 -0.9485  0.0798
 4716TIP3    H135563   3.965   3.726   3.869 -0.8495  0.0222 -0.3577
 4716TIP3    H235564   4.042   3.835   3.941 -1.5422  1.5819 -1.9299
 4717TIP3   OH235565   1.128   2.706   5.018 -0.8815  0.3666 -0.2806
 4717TIP3    H135566   1.107   2.684   4.927 -0.2729  0.0462 -0.3425
 4717TIP3    H235567   1.223   2.707   5.022 -0.8583 -2.6025  1.0392
 4718TIP3   OH235568   4.549   5.568  15.106  0.1205  0.2096  0.1348
 4718TIP3    H135569   4.534   5.586  15.198  0.4728 -0.3425  0.3016
 4718TIP3    H235570   4.488   5.626  15.060  0.4375  0.9944  0.6894
 4719TIP3   OH235571   6.698   1.737  12.730  0.3116  0.1414 -0.3951
 4719TIP3    H135572   6.779   1.748  12.681  0.4490  1.8963  0.1799
 4719TIP3    H235573   6.628   1.759  12.668  0.4582  1.8491  0.0193
 4720TIP3   OH235574   0.907   1.855  13.255 -0.0558 -0.2079  0.0444
 4720TIP3    H135575   0.911   1.759  13.253 -0.9296 -0.2530  0.0442
 4720TIP3    H235576   0.935   1.882  13.167  1.9900 -0.3745  0.6305
 4721TIP3   OH235577   0.028   2.328   3.342  0.0427  0.1252  0.0242
 4721TIP3    H135578  -0.064   2.327   3.315  0.7240  2.0214 -2.4616
 4721TIP3    H235579   0.036   2.405   3.398  0.1542  0.0666  0.0895
 4722TIP3   OH235580   4.926   4.779  15.129  0.0762  0.0028  0.2918
 4722TIP3    H135581   5.007   4.803  15.174  1.2452  2.0789 -2.7346
 4722TIP3    H235582   4.867   4.853  15.142 -0.4779 -0.4721  0.5074
 4723TIP3   OH235583   4.411   1.156   0.585 -0.5336  0.0917 -0.0810
 4723TIP3    H135584   4.405   1.188   0.495 -0.3067 -0.4849 -0.3060
 4723TIP3    H235585   4.358   1.076   0.585  0.9424 -0.9028 -0.1692
 4724TIP3   OH235586   1.280   4.025   1.912  0.4833  0.4385  0.2243
 4724TIP3    H135587   1.234   4.089   1.966  0.1483 -0.3347  0.8737
 4724TIP3    H235588   1.213   3.994   1.851  1.0621  1.8839 -1.1692
 4725TIP3   OH235589   2.553   0.911  14.107  0.1456  0.1416 -0.2931
 4725TIP3    H135590   2.556   0.816  14.118  0.8068  0.2206  0.1891
 4725TIP3    H235591   2.584   0.926  14.017 -0.0444 -0.1013 -0.4014
 4726TIP3   OH235592   1.484   0.304   3.626 -0.0258  0.0256  0.2255
 4726TIP3    H135593   1.543   0.237   3.661 -0.5952  0.0004  1.1762
 4726TIP3    H235594   1.396   0.272   3.648 -0.2591  1.7792  2.0166
 4727TIP3   OH235595   1.529   2.807  15.497  0.5734 -0.8581  0.0135
 4727TIP3    H135596   1.568   2.866  15.432  0.1680 -0.7154 -0.1005
 4727TIP3    H235597   1.529   2.858  15.578 -1.0237 -0.1843 -0.3805
 4728TIP3   OH235598   2.091   3.418   0.258 -0.0849  0.1465 -0.6266
 4728TIP3    H135599   2.150   3.463   0.198  2.7392 -1.2628  0.9894
 4728TIP3    H235600   2.102   3.463   0.342 -0.0656 -1.1144  0.0733
 4729TIP3   OH235601   6.542   5.951   4.910 -0.3205 -0.3985 -0.9975
 4729TIP3    H135602   6.509   5.980   4.996  2.1571 -0.1209 -0.0918
 4729TIP3    H235603   6.536   5.856   4.913  1.0335 -0.4609  0.0353
 4730TIP3   OH235604   1.957   3.163  16.920  0.3203  0.2684  0.0381
 4730TIP3    H135605   1.875   3.195  16.957 -0.3263  1.7042 -2.4825
 4730TIP3    H235606   2.000   3.118  16.992 -2.6028 -0.3780  1.4847
 4731TIP3   OH235607   3.931   2.061  15.680 -0.9023 -0.1942  0.2060
 4731TIP3    H135608   3.906   2.125  15.614 -0.6970  2.0537  2.2694
 4731TIP3    H235609   3.876   2.080  15.756  0.4306 -1.2819  1.4856
 4732TIP3   OH235610   0.271   4.481  13.430 -0.1306 -0.6578  0.2055
 4732TIP3    H135611   0.323   4.562  13.421 -1.9376  0.4630 -0.4139
 4732TIP3    H235612   0.279   4.458  13.523  3.0197 -1.5982 -0.2372
 4733TIP3   OH235613   1.172   6.712  13.110 -0.1698  0.2175  0.1051
 4733TIP3    H135614   1.149   6.660  13.186 -1.2062 -0.2596 -0.5247
 4733TIP3    H235615   1.208   6.794  13.146 -0.9068  0.1079  1.0871
 4734TIP3   OH235616   1.063   0.494   0.620  0.0293 -0.7284  0.2203
 4734TIP3    H135617   1.028   0.467   0.705 -0.0932 -2.5110 -0.3602
 4734TIP3    H235618   1.141   0.545   0.640 -1.4018  1.0297  1.4659
 4735TIP3   OH235619   6.252   0.539  16.783 -0.1872  0.4761  0.0041
 4735TIP3    H135620   6.192   0.497  16.721 -1.5741  0.6116  1.2417
 4735TIP3    H235621   6.269   0.472  16.850  1.2123  0.3705 -0.4347
 4736TIP3   OH235622   1.995   2.510   4.040 -0.3563  0.4006  0.3510
 4736TIP3    H135623   2.053   2.446   3.999 -1.6453 -1.2051  0.9852
 4736TIP3    H235624   2.038   2.595   4.024  1.7750 -0.6745  0.1938
 4737TIP3   OH235625   0.827   1.783   6.045 -0.0444 -0.3365 -0.1433
 4737TIP3    H135626   0.733   1.797   6.040  0.1484  0.5451 -1.9290
 4737TIP3    H235627   0.847   1.726   5.971  1.0533  0.9286 -0.8377
 4738TIP3   OH235628   4.548   5.841   4.250  0.0838 -0.4503  0.2594
 4738TIP3    H135629   4.604   5.863   4.175 -0.3036 -0.3661 -0.0075
 4738TIP3    H235630   4.566   5.749   4.268 -0.2449 -0.6218 -0.2954
 4739TIP3   OH235631   4.671   2.417  11.624  0.6280  0.7124 -0.7758
 4739TIP3    H135632   4.623   2.335  11.637  0.7507  0.6925 -0.4597
 4739TIP3    H235633   4.610   2.486  11.651  0.0831  0.8032 -2.1681
 4740TIP3   OH235634   2.629   2.648  12.840  0.5902 -0.1664 -0.3182
 4740TIP3    H135635   2.593   2.686  12.759  0.9960 -0.6203 -0.7129
 4740TIP3    H235636   2.568   2.677  12.909  0.4636  0.5566 -0.7242
 4741TIP3   OH235637   3.645   1.351  15.246  0.0289  0.3801 -0.6377
 4741TIP3    H135638   3.674   1.296  15.319 -0.0513 -0.2133 -1.0503
 4741TIP3    H235639   3.665   1.440  15.274 -0.5380  0.2078  0.3697
 4742TIP3   OH235640   6.559   4.032  16.514  0.2359  0.0588  0.0640
 4742TIP3    H135641   6.502   3.972  16.562  0.5610 -0.1199  0.2328
 4742TIP3    H235642   6.526   4.029  16.424 -1.2710  1.5037  0.5555
 4743TIP3   OH235643   1.606   3.204  15.511  0.0556 -0.5709  0.3186
 4743TIP3    H135644   1.565   3.153  15.580  1.6641 -1.3173  0.7617
 4743TIP3    H235645   1.700   3.201  15.531  0.3659  0.8960 -0.7661
 4744TIP3   OH235646   5.477   5.348   1.963 -0.2661  0.0407 -0.5376
 4744TIP3    H135647   5.400   5.370   1.910 -2.0616  1.8634  2.6182
 4744TIP3    H235648   5.514   5.433   1.987  0.2354 -0.6907  1.4092
 4745TIP3   OH235649   1.553   6.726  13.631 -0.0926  0.6361  0.4548
 4745TIP3    H135650   1.463   6.737  13.663 -0.5396  1.4696 -1.0492
 4745TIP3    H235651   1.608   6.742  13.708 -1.1822  1.4854  1.0743
 4746TIP3   OH235652   3.595   4.152  14.475 -0.0353 -0.2082 -1.2445
 4746TIP3    H135653   3.666   4.209  14.444  0.2042  0.4482  0.4522
 4746TIP3    H235654   3.535   4.147  14.401  1.9263 -1.0364 -2.8220
 4747TIP3   OH235655   0.576   5.158  12.841 -0.2547  0.6756 -0.1843
 4747TIP3    H135656   0.652   5.174  12.897  1.1766  0.3549 -1.9926
 4747TIP3    H235657   0.551   5.245  12.810  0.2860  0.6373 -0.7400
 4748TIP3   OH235658   6.686   4.079  11.505  0.3052  0.1091 -0.2291
 4748TIP3    H135659   6.704   4.086  11.412  0.3812 -0.9499 -0.2958
 4748TIP3    H235660   6.769   4.101  11.548  0.0198  1.5168 -0.3814
 4749TIP3   OH235661   6.355   4.190  16.248  0.1935 -0.5337  0.0890
 4749TIP3    H135662   6.405   4.110  16.230  0.7890 -0.1934  0.2090
 4749TIP3    H235663   6.301   4.203  16.170 -0.0145 -1.1315  0.1302
 4750TIP3   OH235664   3.997   5.565  13.709  0.2366 -0.3759 -0.3801
 4750TIP3    H135665   4.092   5.573  13.712  0.2379 -0.6747  0.2915
 4750TIP3    H235666   3.979   5.513  13.630  0.4085  3.2355 -2.9558
 4751TIP3   OH235667   0.046   0.364   5.053  0.5355 -0.6261 -0.9723
 4751TIP3    H135668   0.003   0.437   5.098  0.7743  0.2694 -2.1969
 4751TIP3    H235669   0.130   0.354   5.098 -0.0670 -1.0377  0.0772
 4752TIP3   OH235670   5.648   6.782  11.007 -0.1956  0.6185 -0.4294
 4752TIP3    H135671   5.713   6.716  10.980 -2.1848 -1.0753 -1.2061
 4752TIP3    H235672   5.691   6.829  11.078  2.0991 -0.1045 -1.2816
 4753TIP3   OH235673   5.767   0.129   0.727  0.3484  0.3166 -0.1914
 4753TIP3    H135674   5.841   0.184   0.752 -0.5960  2.1237 -1.3403
 4753TIP3    H235675   5.762   0.063   0.797  2.1374  1.0285  0.6338
 4754TIP3   OH235676   6.742   1.378  10.710 -0.1127  0.6168 -0.9942
 4754TIP3    H135677   6.698   1.321  10.773 -0.9666 -1.3644 -3.2841
 4754TIP3    H235678   6.738   1.465  10.749 -0.6828 -0.5287  1.6214
 4755TIP3   OH235679   1.925   3.856   5.281 -0.9509 -0.0090  0.3740
 4755TIP3    H135680   1.973   3.933   5.312  0.5565 -1.2518  1.2149
 4755TIP3    H235681   1.949   3.787   5.343 -1.1091 -1.5262 -1.2226
 4756TIP3   OH235682   5.207   4.517  10.779 -0.3141 -0.2757  0.5339
 4756TIP3    H135683   5.133   4.489  10.833  0.4786 -0.2533  1.6569
 4756TIP3    H235684   5.181   4.603  10.745 -0.8385 -0.3008  0.8665
 4757TIP3   OH235685   0.561   4.395  12.958  0.3494 -0.1683  0.4231
 4757TIP3    H135686   0.470   4.391  12.930  0.2646 -0.5883  0.7587
 4757TIP3    H235687   0.563   4.349  13.042  1.2028 -1.7689 -0.4515
 4758TIP3   OH235688   5.628   1.420  16.633 -0.3784  0.0102  0.1487
 4758TIP3    H135689   5.542   1.387  16.606 -0.3127  0.4798 -0.6566
 4758TIP3    H235690   5.609   1.480  16.704 -0.7317  0.2150 -0.1134
 4759TIP3   OH235691   6.632   2.119  11.214  0.1607  0.1147 -0.1203
 4759TIP3    H135692   6.675   2.055  11.156 -0.8126 -1.0172  0.3830
 4759TIP3    H235693   6.552   2.142  11.168  0.2338  0.5431 -0.0301
 4760TIP3   OH235694   0.507   6.241  15.605 -0.0573 -0.3335  0.1478
 4760TIP3    H135695   0.459   6.253  15.523  0.9812  1.2347 -0.2471
 4760TIP3    H235696   0.559   6.321  15.614  1.8362 -1.6312  0.9895
 4761TIP3   OH235697   4.969   6.127   6.063  0.5420  0.4413 -0.1871
 4761TIP3    H135698   4.893   6.143   6.119  0.5748  1.0740 -0.3286
 4761TIP3    H235699   4.934   6.078   5.989 -0.0740  2.3685 -1.2001
 4762TIP3   OH235700   5.011   0.340   0.857 -0.1142 -0.0785  0.1977
 4762TIP3    H135701   5.051   0.282   0.793 -1.5321  0.9706 -1.6946
 4762TIP3    H235702   5.084   0.393   0.889  0.4561  0.0934 -1.3229
 4763TIP3   OH235703   3.776   5.796   2.068 -0.5185  0.3467  0.4961
 4763TIP3    H135704   3.681   5.802   2.078 -0.4106  0.0629  1.7257
 4763TIP3    H235705   3.811   5.814   2.155  0.5189 -0.3461  0.2353
 4764TIP3   OH235706   2.163   2.546   1.676  0.1658 -0.1001 -0.2534
 4764TIP3    H135707   2.136   2.572   1.588 -0.7993  0.6365  0.2437
 4764TIP3    H235708   2.092   2.490   1.707 -0.1514  0.7551  0.5686
 4765TIP3   OH235709   6.372   5.090   4.839  0.5897 -0.5211 -0.2648
 4765TIP3    H135710   6.391   5.031   4.912  0.3457  1.7009  1.6849
 4765TIP3    H235711   6.420   5.171   4.861 -1.1004  0.8767 -1.5658
 4766TIP3   OH235712   4.042   3.390  11.013  1.3181 -0.1409  0.2718
 4766TIP3    H135713   4.080   3.477  10.998  3.0607 -0.8826  0.2472
 4766TIP3    H235714   4.092   3.333  10.955 -0.8474 -0.9467 -0.8656
 4767TIP3   OH235715   1.761   4.228  14.278 -0.5059  0.2180  0.4095
 4767TIP3    H135716   1.693   4.291  14.254  0.6812  1.5817  0.5055
 4767TIP3    H235717   1.755   4.221  14.373  0.3692  1.4092  0.5696
 4768TIP3   OH235718   4.422   4.898  17.047  0.2913 -0.4783  0.0001
 4768TIP3    H135719   4.444   4.962  16.979 -1.1729 -1.9488 -1.8952
 4768TIP3    H235720   4.417   4.815  17.001 -0.5799 -1.5314  1.9552
 4769TIP3   OH235721   4.386   5.021   3.759 -0.1700  0.7891 -0.2780
 4769TIP3    H135722   4.470   5.068   3.757  0.2070  0.1594  0.5042
 4769TIP3    H235723   4.358   5.019   3.667  1.0550  0.3149 -0.6475
 4770TIP3   OH235724   6.290   1.888  12.904  0.4699  0.0998  0.1105
 4770TIP3    H135725   6.254   1.844  12.827  1.3430 -0.3120 -0.0789
 4770TIP3    H235726   6.343   1.959  12.869  0.2751  0.3694  0.3601
 4771TIP3   OH235727   6.251   0.952   3.703 -0.8623  0.2401 -0.1598
 4771TIP3    H135728   6.197   0.992   3.635 -1.6776 -0.5268  0.0309
 4771TIP3    H235729   6.293   0.877   3.661 -0.7700  0.2099 -0.0175
 4772TIP3   OH235730   2.192   5.859   5.136  0.0350  0.6099 -0.1558
 4772TIP3    H135731   2.134   5.792   5.172  0.0705  0.1984 -0.8535
 4772TIP3    H235732   2.184   5.934   5.195  0.6396 -0.3146  1.1103
 4773TIP3   OH235733   5.269   1.181   1.532  0.0980  0.0393 -0.0725
 4773TIP3    H135734   5.346   1.130   1.503  1.1435 -0.2972  3.1580
 4773TIP3    H235735   5.204   1.115   1.555 -0.3135  0.2945 -0.4902
 4774TIP3   OH235736   2.803   5.670   4.335  0.2485 -0.2374  0.0168
 4774TIP3    H135737   2.899   5.673   4.333  0.1891  2.8270 -0.7952
 4774TIP3    H235738   2.779   5.618   4.258  1.2301 -0.4275 -0.1652
 4775TIP3   OH235739   1.983   2.423  16.744  0.3869 -0.4201 -0.8333
 4775TIP3    H135740   1.992   2.497  16.804 -3.1255  1.3730 -2.3920
 4775TIP3    H235741   1.916   2.368  16.783  0.9328 -1.3069 -1.1345
 4776TIP3   OH235742   3.531   3.594  16.573 -0.4531  0.1636  0.3980
 4776TIP3    H135743   3.567   3.667  16.624  0.2142  1.0323 -1.2876
 4776TIP3    H235744   3.551   3.516  16.626  1.5321  0.9016  0.7830
 4777TIP3   OH235745   3.050   2.018  10.411 -0.1219 -0.4180  0.1738
 4777TIP3    H135746   3.018   1.974  10.332  0.6581 -1.3985  0.3991
 4777TIP3    H235747   3.027   1.960  10.483 -1.8371  1.0091  0.8096
 4778TIP3   OH235748   2.551   4.448  12.762  0.4395  0.6828 -0.7171
 4778TIP3    H135749   2.632   4.426  12.809  0.5761 -0.4653 -1.4820
 4778TIP3    H235750   2.516   4.524  12.810  0.5820 -0.4413  1.2231
 4779TIP3   OH235751   4.418   4.070  17.043 -0.8758 -0.2252 -0.0360
 4779TIP3    H135752   4.373   4.154  17.030  0.2618  0.4269  0.1293
 4779TIP3    H235753   4.414   4.055  17.137 -1.2533 -0.4619 -0.0880
 4780TIP3   OH235754   3.848   2.526   4.970  0.5970  0.1301  0.0771
 4780TIP3    H135755   3.933   2.563   4.947 -0.2581  0.8026 -2.1012
 4780TIP3    H235756   3.785   2.573   4.914 -0.7609 -3.0252 -1.1629
 4781TIP3   OH235757   2.945   1.262   4.809  0.0398 -0.1902 -1.3716
 4781TIP3    H135758   2.952   1.182   4.862 -0.2682 -0.2306 -1.3920
 4781TIP3    H235759   3.031   1.302   4.816  0.0723 -0.3140 -1.0260
 4782TIP3   OH235760   2.810   6.643  11.729  0.2173  0.3109 -0.1463
 4782TIP3    H135761   2.866   6.721  11.724  0.2059  0.4742  1.8707
 4782TIP3    H235762   2.871   6.569  11.721  0.7130  0.4972  1.5429
 4783TIP3   OH235763   1.577   3.270   3.731  0.2489  0.5034  0.9126
 4783TIP3    H135764   1.487   3.300   3.723  0.8117  1.9520 -0.2143
 4783TIP3    H235765   1.616   3.288   3.645  1.3693 -0.9513  1.0904
 4784TIP3   OH235766   6.092   6.608  10.707 -0.3314 -0.2076 -0.0451
 4784TIP3    H135767   6.007   6.648  10.686 -0.6161 -0.8274 -0.0737
 4784TIP3    H235768   6.073   6.515  10.718  0.4715 -0.4715 -0.7872
 4785TIP3   OH235769   3.724   4.204   2.334  0.2106  0.5252  0.2800
 4785TIP3    H135770   3.744   4.118   2.294  2.2823  0.5022  1.2980
 4785TIP3    H235771   3.676   4.183   2.414  0.6683  0.3155  0.5003
 4786TIP3   OH235772   0.645   0.125   4.363  0.6585  0.1853  0.0692
 4786TIP3    H135773   0.738   0.134   4.385  0.3714  1.2609  0.9140
 4786TIP3    H235774   0.644   0.088   4.275  1.8702 -1.4583  0.7289
 4787TIP3   OH235775   0.671   6.145   0.236 -0.3901  0.3434  0.4363
 4787TIP3    H135776   0.581   6.153   0.204 -0.4546  1.8259  0.9414
 4787TIP3    H235777   0.662   6.145   0.332  0.3323  3.3789  0.5533
 4788TIP3   OH235778   5.271   4.603   6.511  0.3984  0.0476 -0.3364
 4788TIP3    H135779   5.203   4.652   6.465  0.6752  0.0620 -0.7257
 4788TIP3    H235780   5.327   4.568   6.442  0.4115 -0.5164 -0.0437
 4789TIP3   OH235781   5.239   1.223   4.034 -0.6939  0.3022 -0.4487
 4789TIP3    H135782   5.305   1.159   4.009  1.7473  1.8058  1.8546
 4789TIP3    H235783   5.191   1.181   4.106  0.5492  0.8092  0.6966
 4790TIP3   OH235784   4.172   1.791   2.458  0.3013 -0.4815 -0.1123
 4790TIP3    H135785   4.235   1.849   2.415  1.7169 -1.0835  1.1013
 4790TIP3    H235786   4.202   1.702   2.436 -1.5215 -0.7893 -1.4898
 4791TIP3   OH235787   1.482   4.197  17.174  0.3445 -0.5144  0.8974
 4791TIP3    H135788   1.571   4.170  17.200  0.6488  1.2978  1.8199
 4791TIP3    H235789   1.496   4.257  17.100 -0.2221 -1.4947 -0.0185
 4792TIP3   OH235790   0.657   2.599   2.757  0.2325  0.3286 -0.4530
 4792TIP3    H135791   0.685   2.538   2.826  2.5732  0.1371 -1.5373
 4792TIP3    H235792   0.569   2.570   2.734 -0.1234 -0.3337  1.6278
 4793TIP3   OH235793   2.541   6.389   4.590  0.4586  0.1812  0.1578
 4793TIP3    H135794   2.511   6.465   4.540  1.0338  0.0144 -0.4501
 4793TIP3    H235795   2.578   6.330   4.524  0.6149 -0.3356  0.7052
 4794TIP3   OH235796   1.553   3.913   1.227 -0.2796 -0.0114  0.3542
 4794TIP3    H135797   1.629   3.895   1.172 -0.1792 -0.3641  0.6061
 4794TIP3    H235798   1.584   3.897   1.317 -0.1368  1.5680  0.6047
 4795TIP3   OH235799   1.578   0.493  15.753 -0.1837  0.4141  0.3031
 4795TIP3    H135800   1.504   0.529  15.704  1.5203  2.8126 -0.5832
 4795TIP3    H235801   1.602   0.414  15.705 -0.3874  1.1689 -1.0729
 4796TIP3   OH235802   2.829   3.392   2.453 -0.9179  0.1582  0.2355
 4796TIP3    H135803   2.757   3.328   2.455 -1.4795  0.7356 -0.9346
 4796TIP3    H235804   2.883   3.364   2.379 -1.1863  1.0533 -0.3077
 4797TIP3   OH235805   0.277   4.334   2.053 -0.4081  0.2784 -0.4270
 4797TIP3    H135806   0.323   4.265   2.005  0.2934  0.4174  0.0526
 4797TIP3    H235807   0.339   4.407   2.057 -0.8224  0.6200 -0.1485
 4798TIP3   OH235808   1.728   0.794   2.952 -0.0510 -0.3414 -0.1218
 4798TIP3    H135809   1.819   0.767   2.943 -0.4058 -2.1103  1.2648
 4798TIP3    H235810   1.724   0.841   3.036 -0.3417  0.1082 -0.3804
 4799TIP3   OH235811   1.196   0.635   0.059  0.0080 -0.2130 -0.4375
 4799TIP3    H135812   1.186   0.581   0.138 -0.1602 -0.2545 -0.4877
 4799TIP3    H235813   1.289   0.626   0.036 -0.3742 -1.8898 -1.4454
 4800TIP3   OH235814   0.323   5.095  15.158  0.2892 -0.1141  0.3310
 4800TIP3    H135815   0.353   5.179  15.123 -2.2271  0.9368  0.5466
 4800TIP3    H235816   0.337   5.102  15.252  1.7351 -0.6614  0.1653
 4801TIP3   OH235817   6.149   1.295   4.801 -0.1595 -0.2957 -0.7503
 4801TIP3    H135818   6.060   1.329   4.801 -0.4217 -0.9249 -2.3162
 4801TIP3    H235819   6.143   1.209   4.844 -0.2768 -0.2431 -0.6646
 4802TIP3   OH235820   5.098   3.388  10.913 -0.2795  0.2602 -0.1944
 4802TIP3    H135821   5.110   3.424  11.001  0.9330 -0.0334 -0.2360
 4802TIP3    H235822   5.109   3.293  10.925  1.9542  0.3900 -0.9901
 4803TIP3   OH235823   0.814   0.327  16.279 -0.1353  0.4815 -0.4223
 4803TIP3    H135824   0.893   0.365  16.242 -0.6403  1.6843 -0.2919
 4803TIP3    H235825   0.834   0.234  16.289  0.7994  0.5419 -1.5972
 4804TIP3   OH235826   1.563   6.221  11.474 -0.2087 -0.2324  0.0575
 4804TIP3    H135827   1.555   6.156  11.405 -1.4089  0.9773 -0.9684
 4804TIP3    H235828   1.508   6.294  11.445  2.0195  1.7371  0.6285
 4805TIP3   OH235829   5.109   0.124   2.641 -0.7226  0.3111  0.1470
 4805TIP3    H135830   5.125   0.209   2.600  0.0553  0.7459  1.3206
 4805TIP3    H235831   5.030   0.137   2.694 -1.0290  0.0922 -0.2544
 4806TIP3   OH235832   5.212   1.263  14.386  0.3371  0.2342  0.1883
 4806TIP3    H135833   5.166   1.207  14.449  0.7529  0.6214  0.8298
 4806TIP3    H235834   5.284   1.209  14.353  0.7129  0.3787  0.7752
 4807TIP3   OH235835   2.294   2.768  11.685 -0.0148 -0.2279  0.1092
 4807TIP3    H135836   2.259   2.844  11.638 -1.1242 -1.0137 -0.3442
 4807TIP3    H235837   2.386   2.762  11.656 -0.7170 -0.7864 -2.0823
 4808TIP3   OH235838   1.785   0.741  11.284  0.3767 -0.4339 -0.4606
 4808TIP3    H135839   1.815   0.769  11.370  1.3778  1.3145 -1.3486
 4808TIP3    H235840   1.814   0.650  11.277  1.3847 -0.2012  0.5495
 4809TIP3   OH235841   2.370   2.615   0.718 -0.0168  0.1769 -0.1346
 4809TIP3    H135842   2.339   2.529   0.690 -1.2647  0.7203 -0.5029
 4809TIP3    H235843   2.358   2.615   0.813  0.0081 -0.0705 -0.1314
 4810TIP3   OH235844   1.302   0.159  11.108 -0.3091 -0.2993  0.0508
 4810TIP3    H135845   1.304   0.071  11.145  1.0583 -1.1160 -1.8841
 4810TIP3    H235846   1.393   0.188  11.109 -0.4271  0.1593 -1.4335
 4811TIP3   OH235847   1.254   2.028   1.306 -0.3545  0.4837  0.1029
 4811TIP3    H135848   1.160   2.014   1.293  0.0410 -1.0644 -1.2492
 4811TIP3    H235849   1.262   2.121   1.326 -2.0975  0.7798 -0.5218
 4812TIP3   OH235850   1.605   6.367  14.673  0.0083 -0.1571 -0.3150
 4812TIP3    H135851   1.603   6.300  14.741  0.4878  0.9640  0.8217
 4812TIP3    H235852   1.513   6.384  14.652 -0.1765  0.2483  0.8156
 4813TIP3   OH235853   1.791   4.182   1.873 -0.1944 -0.3359 -0.1734
 4813TIP3    H135854   1.784   4.100   1.825 -0.6035 -1.4080  1.6869
 4813TIP3    H235855   1.805   4.248   1.805 -0.6767 -1.8219 -1.7512
 4814TIP3   OH235856   1.227   4.174  13.081 -0.0312  0.0821  0.6683
 4814TIP3    H135857   1.255   4.148  12.993  0.6860 -0.5036  1.0707
 4814TIP3    H235858   1.131   4.177  13.076  0.0549  1.7206 -0.6150
 4815TIP3   OH235859   3.757   4.470  10.969  0.2868 -0.6605 -0.3351
 4815TIP3    H135860   3.837   4.508  10.934  0.4935 -1.9236 -1.2527
 4815TIP3    H235861   3.772   4.376  10.967 -1.6697 -0.9737 -1.6389
 4816TIP3   OH235862   4.702   3.968   5.651  0.5444 -0.0559 -0.1113
 4816TIP3    H135863   4.786   3.938   5.683  1.0212 -1.5950 -2.6349
 4816TIP3    H235864   4.721   4.049   5.604  0.8909 -1.2393 -2.0386
 4817TIP3   OH235865   4.023   5.872   7.024  0.6563 -0.5658 -1.0935
 4817TIP3    H135866   4.092   5.806   7.020  1.2316 -0.1056  0.7989
 4817TIP3    H235867   4.049   5.939   6.961  1.1994 -1.0883 -1.4215
 4818TIP3   OH235868   4.765   1.193  10.746  0.2011 -0.0670  0.0220
 4818TIP3    H135869   4.723   1.125  10.694 -0.6559  0.5758 -0.1352
 4818TIP3    H235870   4.855   1.161  10.758 -0.1048 -1.0859 -0.2879
 4819TIP3   OH235871   2.089   1.387  11.874  0.0695 -0.2183 -0.0144
 4819TIP3    H135872   2.122   1.364  11.787  0.9645  0.4887  0.1306
 4819TIP3    H235873   2.162   1.368  11.933 -0.5876 -0.8493  0.6116
 4820TIP3   OH235874   2.101   1.539   6.064 -0.5513  0.2034 -0.1042
 4820TIP3    H135875   2.076   1.556   5.973 -0.6519 -0.7437 -0.2559
 4820TIP3    H235876   2.021   1.506   6.105  0.3505 -2.6945 -0.5460
 4821TIP3   OH235877   6.602   1.358  11.626 -0.6157  0.4944  0.1608
 4821TIP3    H135878   6.659   1.404  11.688 -0.4971  1.8610 -0.9404
 4821TIP3    H235879   6.614   1.265  11.648 -0.7483  0.9493  2.3250
 4822TIP3   OH235880   6.651   3.142  13.945 -0.0945 -0.4177 -1.0183
 4822TIP3    H135881   6.667   3.053  13.975 -2.7224 -0.5911 -0.0180
 4822TIP3    H235882   6.692   3.197  14.011 -1.6582 -0.8709  0.3746
 4823TIP3   OH235883   5.602   2.487   2.086 -0.5719  0.0093  0.2349
 4823TIP3    H135884   5.572   2.478   1.995 -0.4940  0.9179  0.1155
 4823TIP3    H235885   5.685   2.441   2.089 -0.5995 -0.0668 -0.1457
 4824TIP3   OH235886   0.003   2.311  16.852 -0.2385 -0.1227 -0.1421
 4824TIP3    H135887   0.043   2.398  16.850 -0.4046 -0.0351  0.1681
 4824TIP3    H235888  -0.053   2.308  16.774  0.5678 -0.3455 -0.7116
 4825TIP3   OH235889   0.101   2.542   2.220  0.4777  0.3046  0.2008
 4825TIP3    H135890   0.015   2.539   2.261  0.2335 -2.8713 -0.3964
 4825TIP3    H235891   0.142   2.620   2.257 -1.5912  0.3149  2.6611
 4826TIP3   OH235892   3.840   1.500  11.569 -0.2737 -0.0888 -0.1943
 4826TIP3    H135893   3.799   1.420  11.602  0.0671 -0.5746 -0.9131
 4826TIP3    H235894   3.770   1.546  11.523 -0.5902  0.2751  0.6329
 4827TIP3   OH235895   2.608   0.625   6.323  0.0208 -0.0781 -0.5692
 4827TIP3    H135896   2.603   0.531   6.344  0.4731  0.1726  0.6794
 4827TIP3    H235897   2.531   0.640   6.268 -1.0157 -0.8297  0.6346
 4828TIP3   OH235898   2.583   1.901  11.902 -0.0591  0.1295  0.0226
 4828TIP3    H135899   2.646   1.966  11.932  0.1779 -0.3934  0.6788
 4828TIP3    H235900   2.546   1.865  11.982 -1.8626  1.0761 -0.3733
 4829TIP3   OH235901   2.648   4.340  14.191  0.2084 -0.3168 -0.6607
 4829TIP3    H135902   2.611   4.268  14.241  0.4647 -0.5593 -0.8148
 4829TIP3    H235903   2.733   4.307  14.159  0.5610  0.2271 -0.3033
 4830TIP3   OH235904   4.207   5.187  12.525  0.2597 -0.3498 -0.9421
 4830TIP3    H135905   4.179   5.166  12.614  0.7331  0.8112 -0.5074
 4830TIP3    H235906   4.287   5.137  12.512  1.3171  1.0726  0.0387
 4831TIP3   OH235907   3.109   4.400  15.022 -0.5538 -0.3636  0.3021
 4831TIP3    H135908   3.113   4.305  15.015  0.3171 -0.2239 -1.2132
 4831TIP3    H235909   3.027   4.425  14.980 -0.1004 -0.3430 -0.5900
 4832TIP3   OH235910   2.899   5.537  12.719 -0.5618 -0.2870  0.6203
 4832TIP3    H135911   2.981   5.578  12.746  1.6310 -3.3854 -1.0150
 4832TIP3    H235912   2.867   5.591  12.647  1.1762 -0.1959 -0.1117
 4833TIP3   OH235913   1.983   4.426  12.434  0.3514  0.3578 -0.4884
 4833TIP3    H135914   1.922   4.415  12.361 -3.0945 -0.8778  2.4502
 4833TIP3    H235915   2.020   4.339  12.448  0.3983  0.4109 -0.2721
 4834TIP3   OH235916   0.674   5.629   1.964 -0.5556  0.6214 -0.0928
 4834TIP3    H135917   0.597   5.636   2.020  0.0766  2.1197  0.6265
 4834TIP3    H235918   0.735   5.694   1.999  0.4514  0.5005 -1.5653
 4835TIP3   OH235919   2.608   4.119  12.822  0.1728  0.0633 -0.5796
 4835TIP3    H135920   2.617   4.208  12.855  1.7778 -0.7473  1.3161
 4835TIP3    H235921   2.669   4.115  12.749  2.2510 -0.2482  1.1103
 4836TIP3   OH235922   0.083   1.606  14.003  0.7046  0.1629 -0.1315
 4836TIP3    H135923   0.016   1.569  13.946  0.1754 -0.3349  0.8011
 4836TIP3    H235924   0.075   1.701  13.991 -0.1772  0.1076 -0.0160
 4837TIP3   OH235925   0.019   2.794  13.352 -0.0434 -0.5505 -0.5659
 4837TIP3    H135926   0.010   2.700  13.367 -1.4687 -0.4459 -0.6713
 4837TIP3    H235927  -0.036   2.834  13.420  0.5945  0.1987 -0.4909
 4838TIP3   OH235928   5.261   2.115   1.715  0.0927 -0.9072  0.4401
 4838TIP3    H135929   5.325   2.048   1.740  0.9334 -0.6093 -0.8369
 4838TIP3    H235930   5.177   2.083   1.748  0.5993 -2.2694  0.4076
 4839TIP3   OH235931   0.397   0.676  14.723 -0.0544  0.3587  0.1282
 4839TIP3    H135932   0.390   0.609  14.655  3.5314  0.2805 -0.2368
 4839TIP3    H235933   0.368   0.631  14.803 -0.8049 -0.6230 -0.6708
 4840TIP3   OH235934   2.674   1.380  12.245  0.3451  0.3448 -0.1513
 4840TIP3    H135935   2.756   1.332  12.251  0.6896  1.1228  1.7017
 4840TIP3    H235936   2.650   1.375  12.153  0.7410 -2.7228 -0.1299
 4841TIP3   OH235937   0.608   5.377  14.014  0.0836 -0.2821  0.4346
 4841TIP3    H135938   0.628   5.377  14.108 -0.1152 -1.2136  0.4728
 4841TIP3    H235939   0.636   5.291  13.983 -0.0452 -0.0556 -0.3253
 4842TIP3   OH235940   1.867   6.213  13.131  0.3234  0.3337 -0.1731
 4842TIP3    H135941   1.948   6.263  13.137  0.7576 -0.4318  0.3186
 4842TIP3    H235942   1.890   6.125  13.159 -0.5099 -0.0786 -0.7623
 4843TIP3   OH235943   3.953   2.322   0.908  0.8499  0.0194 -0.4371
 4843TIP3    H135944   3.978   2.231   0.926  0.7524  0.1710  0.4883
 4843TIP3    H235945   4.036   2.370   0.909  0.8034  0.0929  0.0232
 4844TIP3   OH235946   2.858   2.684   0.973 -0.4509  0.5800 -0.1103
 4844TIP3    H135947   2.896   2.634   0.901  2.1790  0.1530  1.5116
 4844TIP3    H235948   2.800   2.622   1.017  0.6019 -0.2156  0.1840
 4845TIP3   OH235949   0.167   2.673  12.700 -0.1174  0.0512 -0.3724
 4845TIP3    H135950   0.196   2.742  12.640 -0.9311  0.3613 -0.4153
 4845TIP3    H235951   0.077   2.655  12.674  0.1056 -1.0844 -0.4067
 4846TIP3   OH235952   3.065   6.189   0.634 -0.7464 -0.0945 -0.0627
 4846TIP3    H135953   3.157   6.164   0.642 -0.6230  1.0759  2.5887
 4846TIP3    H235954   3.053   6.206   0.540  1.8251  0.1293 -0.3815
 4847TIP3   OH235955   5.396   3.277   4.927  0.0410  0.2939 -0.3692
 4847TIP3    H135956   5.457   3.203   4.926  0.4383  0.6174 -0.1370
 4847TIP3    H235957   5.327   3.251   4.866  0.9112  0.3453 -1.3898
 4848TIP3   OH235958   6.142   1.592  13.695 -0.0117  0.6320  0.0172
 4848TIP3    H135959   6.081   1.665  13.683 -1.9573 -1.1818 -1.6718
 4848TIP3    H235960   6.091   1.524  13.738  1.8388  0.3068  1.7922
 4849TIP3   OH235961   3.740   5.779  16.351 -0.6095 -0.3108  0.0836
 4849TIP3    H135962   3.823   5.826  16.345 -1.4649  1.0776 -1.1243
 4849TIP3    H235963   3.732   5.732  16.268 -2.7772  2.5813 -1.4279
 4850TIP3   OH235964   4.678   5.381   2.432  0.1039  0.0919  0.2731
 4850TIP3    H135965   4.665   5.476   2.427  0.6642  0.1898  0.5977
 4850TIP3    H235966   4.760   5.371   2.481 -0.4703 -0.5829  1.1081
 4851TIP3   OH235967   2.341   5.824  15.254 -0.2336  0.1424 -0.6374
 4851TIP3    H135968   2.362   5.879  15.329 -1.0942  0.3569 -0.5494
 4851TIP3    H235969   2.361   5.880  15.178  3.8297 -1.1950 -0.6920
 4852TIP3   OH235970   1.465   3.892   2.979 -0.4115  0.2972 -0.0483
 4852TIP3    H135971   1.540   3.892   2.919 -1.0730 -0.9422 -0.9056
 4852TIP3    H235972   1.441   3.799   2.986  2.0233 -0.1507  5.1471
 4853TIP3   OH235973   6.394   1.738   3.460 -0.5234 -0.4005 -0.1248
 4853TIP3    H135974   6.384   1.807   3.395  0.4731  0.2414  0.4049
 4853TIP3    H235975   6.408   1.658   3.408  0.7198  0.1814 -0.6972
 4854TIP3   OH235976   0.142   1.535  15.602  0.4116  0.7111  0.1384
 4854TIP3    H135977   0.060   1.544  15.651 -0.1288 -1.0492 -0.3994
 4854TIP3    H235978   0.129   1.458  15.547  2.4591  0.3701  0.0877
 4855TIP3   OH235979   5.798   0.211  12.033 -0.1950  0.1219  0.2044
 4855TIP3    H135980   5.793   0.122  12.067  0.3019 -0.0797 -0.2518
 4855TIP3    H235981   5.717   0.222  11.983  0.3900 -0.5637 -0.9201
 4856TIP3   OH235982   0.294   3.960   3.644 -0.1708 -0.1596 -0.3168
 4856TIP3    H135983   0.355   3.964   3.570  1.5832  0.9300  1.1703
 4856TIP3    H235984   0.330   4.020   3.709 -2.4259 -0.0658  0.9079
 4857TIP3   OH235985   3.133   3.702  14.994 -0.3013 -0.2558  0.2300
 4857TIP3    H135986   3.058   3.658  14.953 -0.3938 -1.2312  1.4046
 4857TIP3    H235987   3.113   3.703  15.087  0.4218  0.9189  0.3867
 4858TIP3   OH235988   1.613   5.045   2.482  0.0667  0.1083 -0.2025
 4858TIP3    H135989   1.573   5.132   2.486  0.2955  0.2353 -0.6815
 4858TIP3    H235990   1.584   5.010   2.398  1.5282  0.4741 -0.8708
 4859TIP3   OH235991   5.166   6.735  13.313  0.1015 -0.0166  0.0365
 4859TIP3    H135992   5.211   6.726  13.397 -0.5997  1.0905  0.5379
 4859TIP3    H235993   5.214   6.806  13.268 -0.5924  0.5640  0.2112
 4860TIP3   OH235994   3.023   6.241   2.575 -0.0325 -0.3902 -0.0079
 4860TIP3    H135995   3.048   6.204   2.660 -1.2850  0.3346  0.6967
 4860TIP3    H235996   2.928   6.228   2.571  0.1202 -1.1124 -1.6417
 4861TIP3   OH235997   5.107   1.646  13.342 -0.7677  0.0656  0.0030
 4861TIP3    H135998   5.091   1.664  13.250 -1.2335  1.1051  0.2858
 4861TIP3    H235999   5.163   1.568  13.342 -2.0911 -0.9182 -1.1132
 4862TIP3   OH236000   2.185   0.123  12.372  0.4137 -0.2546 -0.1063
 4862TIP3    H136001   2.200   0.053  12.310 -2.2774 -1.3741  0.4416
 4862TIP3    H236002   2.154   0.079  12.451  0.8246  1.3827  1.0027
 4863TIP3   OH236003   4.215   0.356  14.937 -0.1190 -0.2622  0.3520
 4863TIP3    H136004   4.251   0.444  14.935 -2.3054  0.6264 -0.4628
 4863TIP3    H236005   4.276   0.307  14.993  1.1382  1.7256  0.7651
 4864TIP3   OH236006   3.331   3.915   1.058  0.2892  0.1991  0.0472
 4864TIP3    H136007   3.332   3.917   1.153  0.4887 -1.6492  0.1043
 4864TIP3    H236008   3.262   3.852   1.036 -0.1701  1.0652 -1.0396
 4865TIP3   OH236009   2.632   3.112  13.580 -0.0791 -0.3933 -0.1135
 4865TIP3    H136010   2.690   3.186  13.564  1.1395 -1.5268 -0.9866
 4865TIP3    H236011   2.681   3.055  13.638 -2.2304  0.9110  3.1640
 4866TIP3   OH236012   0.234   1.790  12.565 -0.4310  0.1629 -0.3736
 4866TIP3    H136013   0.260   1.748  12.647 -1.4128  1.9203  0.8672
 4866TIP3    H236014   0.300   1.762  12.502  0.3256 -1.2382  0.9984
 4867TIP3   OH236015   3.153   4.096  12.625 -0.0726  0.5810 -0.4615
 4867TIP3    H136016   3.246   4.092  12.645 -0.2322 -0.2003  0.1675
 4867TIP3    H236017   3.144   4.170  12.565  0.7962  1.3507  0.3461
 4868TIP3   OH236018   5.135   0.314  10.573 -0.4460  0.5635 -0.1986
 4868TIP3    H136019   5.075   0.261  10.521 -2.3183  1.4779  0.9708
 4868TIP3    H236020   5.085   0.337  10.651  1.9904 -0.0124  1.5961
 4869TIP3   OH236021   5.669   1.939  14.523 -0.4724  0.1094  0.3159
 4869TIP3    H136022   5.618   1.860  14.540  0.5554 -1.1416 -2.0962
 4869TIP3    H236023   5.617   1.988  14.460 -0.6568  0.8951  1.0779
 4870TIP3   OH236024   3.091   5.507   5.938  0.0911 -0.9926  0.3164
 4870TIP3    H136025   3.066   5.573   6.003  0.9842  1.0196 -1.3310
 4870TIP3    H236026   3.184   5.489   5.957  0.0994 -1.1073  0.1685
 4871TIP3   OH236027   0.364   2.468   3.321 -0.1441  0.1590  0.6495
 4871TIP3    H136028   0.303   2.432   3.256 -1.5661 -0.8148  2.4561
 4871TIP3    H236029   0.354   2.410   3.396  3.1920 -0.1329  0.9347
 4872TIP3   OH236030   3.120   5.487  16.526  0.3139  0.3708  0.1622
 4872TIP3    H136031   3.197   5.545  16.531 -0.4632  1.5480 -0.9957
 4872TIP3    H236032   3.059   5.522  16.591  0.8521 -0.7265  1.2695
 4873TIP3   OH236033   2.138   3.388   3.356  0.6390 -0.0850  0.1778
 4873TIP3    H136034   2.223   3.418   3.389 -0.4442  1.9540  1.1908
 4873TIP3    H236035   2.089   3.364   3.434 -0.2910  0.3147 -0.2741
 4874TIP3   OH236036   0.627   6.004  14.055  0.2634 -0.3017  0.5688
 4874TIP3    H136037   0.595   5.970  14.139  2.0480 -0.8771  1.0455
 4874TIP3    H236038   0.661   6.091  14.076  0.9086 -0.5341  0.4786
 4875TIP3   OH236039   5.280   2.254  14.105 -0.7760  0.1674  0.1599
 4875TIP3    H136040   5.275   2.228  14.197  0.0200 -0.3870  0.0415
 4875TIP3    H236041   5.304   2.174  14.058  1.2571  1.0010 -0.2459
 4876TIP3   OH236042   3.216   0.871   2.861  0.0831 -0.3653 -0.4501
 4876TIP3    H136043   3.145   0.900   2.803  0.2243 -0.6811 -0.7800
 4876TIP3    H236044   3.233   0.781   2.834  1.6223  0.1749 -1.3742
 4877TIP3   OH236045   2.358   1.128  15.854  0.5605 -0.1318 -0.3923
 4877TIP3    H136046   2.319   1.209  15.886 -0.1571  0.1458 -1.9332
 4877TIP3    H236047   2.451   1.148  15.846  0.6085  0.0798  0.5985
 4878TIP3   OH236048   1.496   3.470  16.803  0.2137  0.4546  0.8364
 4878TIP3    H136049   1.525   3.555  16.836  1.5968  0.2214  0.2643
 4878TIP3    H236050   1.407   3.460  16.837 -0.3997  2.6269 -0.0274
 4879TIP3   OH236051   3.995   2.973  11.600  0.2166 -0.2888  0.0355
 4879TIP3    H136052   4.071   2.970  11.657  0.4418 -1.2855 -0.3142
 4879TIP3    H236053   3.975   2.881  11.581  0.0232  0.0275 -1.3250
 4880TIP3   OH236054   3.473   4.719  16.138  0.7180 -0.0957 -0.4830
 4880TIP3    H136055   3.481   4.760  16.224  0.1157 -1.3149  0.1709
 4880TIP3    H236056   3.551   4.665  16.130 -0.0925 -1.3796  0.0808
 4881TIP3   OH236057   5.156   3.542   1.881 -0.6101  0.0666  0.1556
 4881TIP3    H136058   5.145   3.511   1.971 -1.2351  3.1246  1.1999
 4881TIP3    H236059   5.115   3.475   1.827  0.4099 -2.1925  2.0662
 4882TIP3   OH236060   5.718   2.004  12.110 -0.4057  0.4380  0.3624
 4882TIP3    H136061   5.721   1.930  12.049  1.1511  1.6200 -1.0498
 4882TIP3    H236062   5.672   1.970  12.187  2.2381 -2.7043  0.6810
 4883TIP3   OH236063   1.530   2.525   3.797 -0.5249  0.7853  0.4360
 4883TIP3    H136064   1.593   2.479   3.742  0.5160  1.0231  1.4148
 4883TIP3    H236065   1.474   2.457   3.833 -2.1350  0.7340 -2.0134
 4884TIP3   OH236066   5.765   0.852  15.383 -0.3275 -0.4519  0.3254
 4884TIP3    H136067   5.763   0.830  15.477  0.6437 -0.7980  0.2751
 4884TIP3    H236068   5.848   0.900  15.372  0.2330 -1.5957 -0.6025
 4885TIP3   OH236069   1.748   4.674  12.306  0.0808  0.3592 -0.4774
 4885TIP3    H136070   1.702   4.590  12.309  0.3221  0.2564  0.5833
 4885TIP3    H236071   1.723   4.718  12.387  1.5672  0.4397 -0.0425
 4886TIP3   OH236072   2.621   0.077  16.435 -0.3681 -0.3510 -0.0932
 4886TIP3    H136073   2.613   0.163  16.476 -2.1196 -0.5565  0.0457
 4886TIP3    H236074   2.654   0.021  16.504  1.5994  0.3702 -0.4167
 4887TIP3   OH236075   6.366   2.252  17.096 -0.6319  0.0806 -0.0002
 4887TIP3    H136076   6.371   2.157  17.106  1.2288  0.1772  0.1167
 4887TIP3    H236077   6.397   2.286  17.180 -4.7745  0.8113  1.3585
 4888TIP3   OH236078   2.744   2.449  12.393 -0.2430 -0.1493  0.1844
 4888TIP3    H136079   2.807   2.443  12.465 -0.6312 -0.4894  0.4982
 4888TIP3    H236080   2.658   2.438  12.435 -0.3596 -2.3945 -0.6010
 4889TIP3   OH236081   5.084   6.601   2.505 -0.2161  0.1337 -0.3822
 4889TIP3    H136082   5.080   6.693   2.531  2.0868 -0.5881  2.7537
 4889TIP3    H236083   5.129   6.602   2.420  0.6962  1.7987  0.0942
 4890TIP3   OH236084   5.213   3.685  14.233  0.5098 -0.0408 -0.0848
 4890TIP3    H136085   5.297   3.703  14.191  0.4105  1.8035  0.4785
 4890TIP3    H236086   5.152   3.671  14.161  0.8771  0.5569 -0.5138
 4891TIP3   OH236087   4.344   5.117   4.067 -0.5838 -0.0626 -0.2029
 4891TIP3    H136088   4.249   5.124   4.071 -0.6329 -0.8634  0.1826
 4891TIP3    H236089   4.361   5.081   3.980 -0.4830  2.2938 -1.1794
 4892TIP3   OH236090   3.419   6.726  14.007 -0.3622  0.8131 -0.3273
 4892TIP3    H136091   3.468   6.702  14.086 -0.1153  2.5364  0.0651
 4892TIP3    H236092   3.331   6.690  14.022 -0.0513  0.3249  0.3308
 4893TIP3   OH236093   5.297   2.661  12.682 -0.7532  0.3584  0.1562
 4893TIP3    H136094   5.274   2.569  12.690 -1.3785  0.4003 -1.1576
 4893TIP3    H236095   5.278   2.698  12.769 -0.3191 -0.7729  0.7445
 4894TIP3   OH236096   3.220   6.763  11.338 -0.2682  0.2526  0.2842
 4894TIP3    H136097   3.225   6.704  11.263  1.7504  0.5798  0.1378
 4894TIP3    H236098   3.202   6.706  11.413  0.4651 -0.4114 -0.0437
 4895TIP3   OH236099   0.970   6.389  12.775 -0.3278 -0.5024  0.1855
 4895TIP3    H136100   0.902   6.322  12.770 -0.2177 -0.6288  0.3846
 4895TIP3    H236101   0.931   6.460  12.827 -0.5676 -0.2645 -0.3159
 4896TIP3   OH236102   1.973   1.696   0.111  0.2788 -0.2960 -0.2151
 4896TIP3    H136103   1.944   1.737   0.029  1.4122 -0.6409 -0.8007
 4896TIP3    H236104   2.050   1.644   0.086  0.4889 -0.5987  1.0261
 4897TIP3   OH236105   1.005   0.902   2.351  0.0171 -0.3527  0.5146
 4897TIP3    H136106   1.066   0.971   2.374 -0.5144  0.3152 -0.0523
 4897TIP3    H236107   0.942   0.944   2.292  0.2435 -1.5436 -0.6057
 4898TIP3   OH236108   2.629   2.386  14.342  0.2043 -0.1530 -0.0576
 4898TIP3    H136109   2.582   2.385  14.425  0.7864 -0.9091  0.2651
 4898TIP3    H236110   2.565   2.355  14.278 -0.4418  1.0326 -0.0058
 4899TIP3   OH236111   5.157   1.757  11.043 -0.5209  0.2455  0.2746
 4899TIP3    H136112   5.242   1.714  11.050 -0.1303  1.2082  1.6044
 4899TIP3    H236113   5.099   1.706  11.099 -0.3117  0.8231  1.0196
 4900TIP3   OH236114   5.379   6.283  13.641 -0.6947  0.0752  0.5356
 4900TIP3    H136115   5.341   6.370  13.624  0.9292  0.3083 -2.1303
 4900TIP3    H236116   5.377   6.239  13.556  2.6144 -0.8338  0.8855
 4901TIP3   OH236117   0.080   5.298  10.467 -0.0345 -0.1247  0.1802
 4901TIP3    H136118   0.112   5.269  10.382 -1.4101  1.4929 -0.9300
 4901TIP3    H236119  -0.013   5.317  10.452 -0.4854 -0.5716  2.2433
 4902TIP3   OH236120   3.626   5.098  13.690 -0.8821 -0.1555  0.0898
 4902TIP3    H136121   3.650   5.086  13.598 -0.6652  0.2358  0.0953
 4902TIP3    H236122   3.605   5.191  13.697 -1.3841 -0.2863  0.3231
 4903TIP3   OH236123   2.461   2.610   2.359  0.0339  0.4514  0.5230
 4903TIP3    H136124   2.454   2.610   2.454 -0.7107 -0.9327  0.4852
 4903TIP3    H236125   2.383   2.564   2.329  0.0592  1.2205 -0.7789
 4904TIP3   OH236126   4.636   1.721   0.145  0.5349 -0.4919  0.3069
 4904TIP3    H136127   4.650   1.626   0.144  0.7661 -0.4554 -0.2548
 4904TIP3    H236128   4.545   1.732   0.118  1.1597 -0.4572 -1.9027
 4905TIP3   OH236129   5.487   5.923   0.886 -0.1997 -0.6405  0.4547
 4905TIP3    H136130   5.414   5.977   0.857 -0.1066  0.4079  2.1461
 4905TIP3    H236131   5.563   5.959   0.842  0.1124  1.6362  2.7362
 4906TIP3   OH236132   3.048   1.679   0.907 -0.1453 -0.2304  0.0061
 4906TIP3    H136133   3.141   1.702   0.906 -0.0321 -0.7118 -0.6955
 4906TIP3    H236134   3.017   1.709   0.993  0.5829  0.2122  0.1182
 4907TIP3   OH236135   5.302   1.811  11.592 -0.5703 -0.1339  0.3091
 4907TIP3    H136136   5.293   1.848  11.504  2.1611  0.3632  0.2138
 4907TIP3    H236137   5.352   1.876  11.641 -0.7518 -1.0987  1.8096
 4908TIP3   OH236138   0.672   4.373   3.462  0.1638  0.3557 -0.1618
 4908TIP3    H136139   0.694   4.359   3.370  0.1872  2.3734 -0.4968
 4908TIP3    H236140   0.755   4.398   3.503  0.5250 -2.3656  0.8227
 4909TIP3   OH236141   2.808   4.531  16.420 -0.2722 -0.1227 -0.0296
 4909TIP3    H136142   2.781   4.602  16.361 -1.7463 -0.9074 -0.3162
 4909TIP3    H236143   2.904   4.535  16.420 -0.3479  3.1382  1.4938
 4910TIP3   OH236144   1.441   1.075   6.122  0.1694 -0.1673  0.0876
 4910TIP3    H136145   1.505   1.080   6.192  0.5263 -2.2085 -0.0463
 4910TIP3    H236146   1.357   1.067   6.166  0.1681  0.7543  0.2636
 4911TIP3   OH236147   0.243   4.197   3.483 -0.6159  0.3418 -0.1865
 4911TIP3    H136148   0.291   4.120   3.450  0.7947  0.8351  0.6561
 4911TIP3    H236149   0.164   4.201   3.429 -0.9727 -2.0086  0.0943
 4912TIP3   OH236150   2.177   2.251  16.031  0.7611 -0.3028  0.5554
 4912TIP3    H136151   2.160   2.307  15.955  0.1121 -1.2154  0.0137
 4912TIP3    H236152   2.272   2.242  16.034  0.9209  1.3446  1.0322
 4913TIP3   OH236153   0.296   2.272   3.500  0.5309 -0.3947  0.6149
 4913TIP3    H136154   0.288   2.187   3.456 -0.1933 -0.4533  0.8516
 4913TIP3    H236155   0.223   2.274   3.562 -0.1730  0.8738 -0.2098
 4914TIP3   OH236156   4.271   0.550  11.845 -0.1179 -0.1503  0.2060
 4914TIP3    H136157   4.273   0.517  11.755 -1.0980  2.6494 -0.9003
 4914TIP3    H236158   4.189   0.517  11.881 -2.0198  2.4814 -1.5050
 4915TIP3   OH236159   3.210   1.143  16.135 -0.2328 -0.6164  0.1704
 4915TIP3    H136160   3.206   1.103  16.049 -0.6398  1.6674 -0.9059
 4915TIP3    H236161   3.118   1.152  16.162 -0.1061 -1.3905  0.8829
 4916TIP3   OH236162   2.476   1.511   4.618 -0.1075 -0.1755 -0.2431
 4916TIP3    H136163   2.445   1.444   4.679  1.4412  0.0934  0.8576
 4916TIP3    H236164   2.433   1.489   4.535 -0.6703 -1.7276  0.4397
 4917TIP3   OH236165   3.009   4.923  13.061  0.0792 -0.2243 -0.0536
 4917TIP3    H136166   2.956   4.852  13.024 -0.0282  1.0434 -2.4436
 4917TIP3    H236167   3.099   4.897  13.042  0.0277  0.3851 -1.1654
 4918TIP3   OH236168   1.828   1.019   5.262  0.3736  0.1807  0.5155
 4918TIP3    H136169   1.856   1.057   5.178  2.3533  0.7211  1.4097
 4918TIP3    H236170   1.735   0.999   5.248  0.4447  1.0701 -1.5192
 4919TIP3   OH236171   5.377   0.667   0.644  0.6503 -0.2606  0.4035
 4919TIP3    H136172   5.462   0.686   0.682  0.7018 -0.6406  0.4819
 4919TIP3    H236173   5.382   0.575   0.618  1.0891  0.3383 -1.7463
 4920TIP3   OH236174   2.873   0.649   3.686 -0.2776  0.2182  0.6915
 4920TIP3    H136175   2.835   0.699   3.614  0.0202  0.2113  0.5262
 4920TIP3    H236176   2.851   0.699   3.764 -2.2258 -0.7443  0.7943
 4921TIP3   OH236177   6.115   4.828  14.224  0.6139 -0.1193 -0.2828
 4921TIP3    H136178   6.056   4.903  14.228  2.7379  1.5289  1.2617
 4921TIP3    H236179   6.059   4.752  14.237 -1.8708  1.0104 -3.6781
 4922TIP3   OH236180   5.808   0.540   4.767 -0.8220  0.5152 -0.3009
 4922TIP3    H136181   5.868   0.496   4.827 -2.6329 -1.1946  0.2864
 4922TIP3    H236182   5.809   0.631   4.795  0.2545  0.2121  0.7200
 4923TIP3   OH236183   6.010   0.409   4.314 -0.0373  0.5309 -0.3284
 4923TIP3    H136184   5.966   0.325   4.302 -0.9181  0.7434  1.2300
 4923TIP3    H236185   5.990   0.433   4.405  2.1088  1.3155 -0.0428
 4924TIP3   OH236186   2.475   3.895  15.405  0.1144  0.1530 -0.1975
 4924TIP3    H136187   2.383   3.924  15.407  0.2028  0.3888  0.5336
 4924TIP3    H236188   2.490   3.870  15.314  0.4930  3.9328 -1.2668
 4925TIP3   OH236189   5.215   1.935   5.608 -0.2217 -0.4252 -0.3203
 4925TIP3    H136190   5.243   1.899   5.524  2.1211  0.3742  0.0886
 4925TIP3    H236191   5.283   1.998   5.631 -0.9325 -0.5101  2.1140
 4926TIP3   OH236192   5.644   6.661   5.421 -0.0204 -0.1121  0.4836
 4926TIP3    H136193   5.650   6.672   5.326  0.4151  1.2385  0.6638
 4926TIP3    H236194   5.567   6.605   5.433 -0.7798  0.6659 -0.5975
 4927TIP3   OH236195   1.964   0.721  11.790  0.7857 -0.4394 -0.9288
 4927TIP3    H136196   2.059   0.723  11.796  0.6812  1.5236  1.4707
 4927TIP3    H236197   1.937   0.657  11.856  0.3542  2.4993  1.8681
 4928TIP3   OH236198   5.030   1.966  15.949 -1.0274 -0.4352 -0.4141
 4928TIP3    H136199   5.046   1.950  16.042  1.4523  2.1666 -0.3190
 4928TIP3    H236200   4.945   2.009  15.947 -1.4738 -1.2516  0.5767
 4929TIP3   OH236201   1.517   3.574   3.901  0.0060  0.3824 -0.2816
 4929TIP3    H136202   1.488   3.660   3.870 -0.1180  0.1744 -0.7465
 4929TIP3    H236203   1.524   3.584   3.996 -1.1625  0.5561 -0.2160
 4930TIP3   OH236204   5.035   4.518   5.082  0.1920 -0.2503 -0.1832
 4930TIP3    H136205   5.089   4.444   5.110  0.9091  0.5850  0.6435
 4930TIP3    H236206   5.097   4.585   5.054 -0.4137  0.6191  0.5284
 4931TIP3   OH236207   3.462   6.497   4.472 -0.0815 -0.0613  0.2095
 4931TIP3    H136208   3.379   6.453   4.492 -0.3019 -0.1549 -0.9030
 4931TIP3    H236209   3.529   6.438   4.506 -0.4225 -0.6254 -0.0883
 4932TIP3   OH236210   1.933   0.387   2.873  0.3433 -0.2802 -0.1163
 4932TIP3    H136211   1.972   0.422   2.953 -0.8135  0.7327  0.0245
 4932TIP3    H236212   1.935   0.460   2.811  1.7759 -1.2212 -1.2435
 4933TIP3   OH236213   1.736   0.965  14.654  0.4960  0.1980  0.1396
 4933TIP3    H136214   1.769   0.937  14.568 -1.3591  0.0697 -0.5500
 4933TIP3    H236215   1.735   1.060  14.649 -1.3428  0.1616 -0.6819
 4934TIP3   OH236216   1.872   0.660   1.750 -0.1178 -0.6312  0.6845
 4934TIP3    H136217   1.922   0.581   1.730 -1.0480 -1.5117  1.7222
 4934TIP3    H236218   1.916   0.730   1.702  1.9756 -1.4178  1.4009
 4935TIP3   OH236219   3.773   5.980   0.790 -0.0652 -0.0718  0.1961
 4935TIP3    H136220   3.765   6.047   0.858 -0.9312  1.5334 -1.4284
 4935TIP3    H236221   3.867   5.975   0.773  0.1389 -0.3709  1.4025
 4936TIP3   OH236222   0.188   2.258   4.506 -0.1368 -0.6024  0.1949
 4936TIP3    H136223   0.095   2.233   4.506 -0.3586  0.2043  0.1849
 4936TIP3    H236224   0.225   2.211   4.432 -0.4721 -1.1892  0.3994
 4937TIP3   OH236225   6.465   5.462   0.177 -0.3748  0.1978  0.6787
 4937TIP3    H136226   6.522   5.388   0.157  0.4233  0.9188  0.2034
 4937TIP3    H236227   6.386   5.447   0.125 -0.0776 -0.1469  0.3221
 4938TIP3   OH236228   1.525   3.834   0.917  0.2554  0.4020  0.7904
 4938TIP3    H136229   1.435   3.811   0.941  0.3449  0.5805  1.3048
 4938TIP3    H236230   1.578   3.803   0.991  0.6523  0.0228  0.3534
 4939TIP3   OH236231   5.673   1.068   4.014  0.3432 -0.1071 -0.1278
 4939TIP3    H136232   5.651   1.011   3.941 -0.3176 -0.1221  0.0793
 4939TIP3    H236233   5.705   1.009   4.082 -2.6742 -0.5456  1.0052
 4940TIP3   OH236234   1.367   0.362  17.078 -0.2012  0.5245 -0.0854
 4940TIP3    H136235   1.418   0.408  17.145 -0.0401  1.4017 -0.8037
 4940TIP3    H236236   1.420   0.370  16.998 -1.2045  0.9475 -0.7077
 4941TIP3   OH236237   6.142   3.745   1.233 -0.0787  0.0363 -0.7712
 4941TIP3    H136238   6.216   3.791   1.273 -0.0302 -1.9703  1.5693
 4941TIP3    H236239   6.068   3.806   1.242  0.0401 -0.1701  2.0565
 4942TIP3   OH236240   0.620   0.423  17.188 -0.4157  0.4702  0.1461
 4942TIP3    H136241   0.560   0.349  17.174 -0.3565  0.5059 -0.3138
 4942TIP3    H236242   0.639   0.421  17.282 -2.4990  1.4966  0.6322
 4943TIP3   OH236243   5.754   2.961  17.064 -0.1748  0.2102 -0.3951
 4943TIP3    H136244   5.823   3.023  17.042  0.6685 -0.5019  0.2021
 4943TIP3    H236245   5.790   2.910  17.137 -0.5540 -1.4690 -1.3437
 4944TIP3   OH236246   4.283   2.088   1.473  0.3537 -0.0705  0.8046
 4944TIP3    H136247   4.319   2.160   1.421  1.7455 -1.2052  0.1411
 4944TIP3    H236248   4.218   2.047   1.415 -0.5704  0.7376  1.2491
 4945TIP3   OH236249   5.280   5.132   2.813  0.2803 -0.8067  0.2169
 4945TIP3    H136250   5.316   5.105   2.728 -0.3082 -0.6577 -0.0836
 4945TIP3    H236251   5.340   5.200   2.844  1.9376 -2.6581  1.1207
 4946TIP3   OH236252   6.065   1.612   5.858  0.3976 -0.2135  0.5916
 4946TIP3    H136253   6.056   1.622   5.763  0.0461  0.1076  0.6594
 4946TIP3    H236254   5.977   1.626   5.892  0.7556  0.9324  1.0725
 4947TIP3   OH236255   5.998   3.180  14.149 -0.6384 -0.1113  0.2184
 4947TIP3    H136256   5.948   3.213  14.224 -0.6863 -0.7025  0.4548
 4947TIP3    H236257   6.080   3.229  14.151  0.2919 -1.6853  1.9944
 4948TIP3   OH236258   6.411   3.591   1.471  0.2916  0.0438 -0.0945
 4948TIP3    H136259   6.387   3.677   1.436 -1.2046 -0.1092  0.5515
 4948TIP3    H236260   6.378   3.591   1.561  1.7851 -0.5753  0.4833
 4949TIP3   OH236261   1.082   3.475   2.871  0.4350  0.0212  0.2280
 4949TIP3    H136262   1.134   3.488   2.792 -1.0580 -1.9544 -1.1263
 4949TIP3    H236263   1.040   3.560   2.887  0.6123  0.3835 -1.1996
 4950TIP3   OH236264   5.435   4.207  11.449 -0.2239  0.0634 -0.5021
 4950TIP3    H136265   5.357   4.263  11.458 -1.9436 -2.0238 -1.8826
 4950TIP3    H236266   5.460   4.216  11.357 -0.4136 -1.3061 -0.6929
 4951TIP3   OH236267   2.078   6.388  13.147  0.2837 -0.1444  0.1721
 4951TIP3    H136268   2.079   6.383  13.242  0.1073 -0.2642  0.1669
 4951TIP3    H236269   2.167   6.364  13.121 -0.4098 -2.8892  0.1779
 4952TIP3   OH236270   3.691   1.958  12.616 -0.3319  0.0708 -0.0651
 4952TIP3    H136271   3.737   1.880  12.647  0.5955  0.2822 -0.8816
 4952TIP3    H236272   3.610   1.925  12.577 -1.1600 -0.2621  1.8764
 4953TIP3   OH236273   4.040   1.965   2.642 -0.4585  0.4062  0.0224
 4953TIP3    H136274   4.081   1.896   2.589 -0.6766  0.9196 -0.8251
 4953TIP3    H236275   3.954   1.977   2.603  0.1730  2.2670 -0.8474
 4954TIP3   OH236276   1.539   5.075   3.121  0.3324 -0.0813 -0.4154
 4954TIP3    H136277   1.487   5.082   3.201 -1.3516  0.1393 -1.5028
 4954TIP3    H236278   1.613   5.018   3.145 -1.1283 -1.5140  0.7811
 4955TIP3   OH236279   6.642   3.311  11.132 -0.3473  0.0812 -0.1040
 4955TIP3    H136280   6.600   3.231  11.165 -0.4560 -0.5927 -1.8392
 4955TIP3    H236281   6.570   3.362  11.094  0.1519 -0.3371 -1.6324
 4956TIP3   OH236282   4.900   1.942   0.283 -0.3502 -0.0316  0.2099
 4956TIP3    H136283   4.942   2.022   0.253  0.2359  0.2557  1.7508
 4956TIP3    H236284   4.808   1.967   0.297 -0.5883 -0.1219 -1.0934
 4957TIP3   OH236285   2.089   2.828   1.227 -0.1518 -0.5587 -0.3052
 4957TIP3    H136286   2.158   2.781   1.274 -1.3319 -0.6819  1.3575
 4957TIP3    H236287   2.102   2.920   1.252 -0.5638 -0.5811  0.0047
 4958TIP3   OH236288   5.511   6.566  10.715  0.5053  0.0973 -0.1460
 4958TIP3    H136289   5.467   6.620  10.650  0.9812  1.7119  0.8463
 4958TIP3    H236290   5.595   6.543  10.674  1.4442  2.3489  0.4282
 4959TIP3   OH236291   2.334   4.229  14.160  0.0078 -0.1010  0.8392
 4959TIP3    H136292   2.298   4.300  14.106 -0.8503 -0.2086  1.2648
 4959TIP3    H236293   2.419   4.210  14.120 -0.7544 -0.3993 -0.6713
 4960TIP3   OH236294   4.769   6.259   3.843  0.1797  0.2096 -0.0410
 4960TIP3    H136295   4.725   6.337   3.807  2.1465  1.1417 -0.4611
 4960TIP3    H236296   4.805   6.288   3.926 -1.6492 -1.1038  1.2458
 4961TIP3   OH236297   3.293   6.131   5.733 -0.2649  0.1321  0.3600
 4961TIP3    H136298   3.241   6.062   5.692  0.8024 -0.4058 -0.1107
 4961TIP3    H236299   3.229   6.190   5.772 -1.2817  0.4259 -1.7287
 4962TIP3   OH236300   2.911   3.380   5.969  0.2445 -0.3655 -0.0545
 4962TIP3    H136301   2.865   3.298   5.951  0.2873 -0.2983 -0.4855
 4962TIP3    H236302   2.879   3.408   6.055 -0.9171 -0.0476 -0.5812
 4963TIP3   OH236303   2.955   3.280  12.700 -0.2860 -0.3026 -0.1915
 4963TIP3    H136304   2.879   3.332  12.728 -1.0140 -1.6347  0.3439
 4963TIP3    H236305   3.031   3.333  12.724 -1.0427  1.7447 -2.0665
 4964TIP3   OH236306   1.247   4.807   0.167  0.2860 -0.1966 -0.1719
 4964TIP3    H136307   1.208   4.832   0.250 -2.9993 -0.4593 -1.5766
 4964TIP3    H236308   1.255   4.712   0.172  1.3340 -0.0878  0.3451
 4965TIP3   OH236309   5.244   2.744   1.258  0.2439 -0.0747  0.0112
 4965TIP3    H136310   5.203   2.719   1.341  0.0507 -0.4241 -0.1878
 4965TIP3    H236311   5.326   2.695   1.257 -0.0800 -0.6186 -0.3251
 4966TIP3   OH236312   2.165   5.234  12.055 -0.0104  0.3099 -0.0388
 4966TIP3    H136313   2.217   5.154  12.057 -0.6190 -0.0706  1.1649
 4966TIP3    H236314   2.173   5.266  11.965 -0.6596 -1.6921 -0.8322
 4967TIP3   OH236315   5.613   3.162   2.131 -0.0799 -0.3378 -0.2898
 4967TIP3    H136316   5.518   3.161   2.140  0.0689  0.2790  1.5771
 4967TIP3    H236317   5.644   3.095   2.191  0.8197  1.6640  1.5505
 4968TIP3   OH236318   2.876   1.345  13.333 -0.0995 -0.7222 -0.3651
 4968TIP3    H136319   2.788   1.367  13.361  0.8876 -0.7139  2.9950
 4968TIP3    H236320   2.924   1.427  13.338  0.9471 -1.3996  1.5277
 4969TIP3   OH236321   5.710   4.305   3.939 -0.1137  0.0323 -0.0284
 4969TIP3    H136322   5.671   4.242   3.878  1.7193 -0.3040 -0.8827
 4969TIP3    H236323   5.687   4.271   4.025 -2.7263  0.5044 -0.4964
 4970TIP3   OH236324   3.167   3.908  16.132 -0.1429 -0.1893  0.0288
 4970TIP3    H136325   3.106   3.914  16.058  1.2327  1.0134 -1.0352
 4970TIP3    H236326   3.111   3.917  16.210 -1.8646 -3.5138 -0.7612
 4971TIP3   OH236327   5.903   2.011   4.003 -0.2669  0.1476  0.0012
 4971TIP3    H136328   5.820   2.007   3.955 -1.5004  0.1851  2.0316
 4971TIP3    H236329   5.935   2.100   3.989  1.1782 -0.8752 -3.5527
 4972TIP3   OH236330   3.941   5.832   0.254  0.9392  0.2586  0.4054
 4972TIP3    H136331   3.988   5.805   0.175  1.8587  0.8444  0.7547
 4972TIP3    H236332   3.996   5.803   0.326  1.3289  1.9722  0.8051
 4973TIP3   OH236333   1.298   4.095  10.765 -0.2900 -0.4313  0.1880
 4973TIP3    H136334   1.309   4.000  10.761  1.1501 -0.2714  0.1119
 4973TIP3    H236335   1.369   4.130  10.711 -1.1690  0.6733 -0.2727
 4974TIP3   OH236336   1.920   3.055   5.006  0.1304 -0.7066 -0.2020
 4974TIP3    H136337   1.874   3.103   5.074 -0.2519 -0.1920 -0.8250
 4974TIP3    H236338   1.875   2.971   5.001 -0.7205 -0.2214 -0.7777
 4975TIP3   OH236339   2.872   3.127  16.696  0.0690  0.4312 -0.2873
 4975TIP3    H136340   2.963   3.100  16.687  0.4699  1.4861  0.3714
 4975TIP3    H236341   2.823   3.069  16.639  1.4432  1.4062 -2.5269
 4976TIP3   OH236342   1.102   1.235  15.509  0.0468  0.1946  0.2269
 4976TIP3    H136343   1.193   1.205  15.509  0.0149  0.0880  1.1354
 4976TIP3    H236344   1.094   1.288  15.429  0.8687  0.0984  0.0808
 4977TIP3   OH236345   3.009   4.932  16.344 -0.2659 -0.1769  0.4528
 4977TIP3    H136346   3.011   4.946  16.250  0.3438  0.9038  0.6232
 4977TIP3    H236347   2.916   4.937  16.367 -0.4084 -0.3656 -0.0695
 4978TIP3   OH236348   6.577   3.361  14.523 -0.1130  0.2400  0.3359
 4978TIP3    H136349   6.653   3.346  14.579 -0.3911 -2.0213  0.1674
 4978TIP3    H236350   6.548   3.450  14.544  1.5010  0.4675  1.6881
 4979TIP3   OH236351   3.328   1.426  12.946  0.2670 -0.0836 -0.2142
 4979TIP3    H136352   3.416   1.390  12.948  0.1109 -0.4682 -0.2671
 4979TIP3    H236353   3.289   1.390  12.866  0.3318  0.7224 -0.6206
 4980TIP3   OH236354   3.657   1.670  15.243 -0.1531 -0.0220  0.9128
 4980TIP3    H136355   3.693   1.718  15.168  1.4449 -3.3399 -0.5542
 4980TIP3    H236356   3.726   1.672  15.308  0.2268 -0.9494  0.5484
 4981TIP3   OH236357   5.407   2.847   5.013 -0.2719  0.0690 -0.3460
 4981TIP3    H136358   5.450   2.839   5.098  1.8238 -1.1258 -1.4851
 4981TIP3    H236359   5.465   2.903   4.962 -0.4967 -0.8268 -1.6092
 4982TIP3   OH236360   6.054   6.152  13.840 -0.2728  0.2553 -0.4915
 4982TIP3    H136361   5.960   6.137  13.839 -0.5395  1.8963 -1.1697
 4982TIP3    H236362   6.064   6.247  13.833  1.3763  0.4367  3.3223
 4983TIP3   OH236363   6.444   3.366  14.978 -0.3662 -0.0404  0.1136
 4983TIP3    H136364   6.512   3.309  15.015 -1.2872 -1.7190 -0.7601
 4983TIP3    H236365   6.491   3.446  14.955  0.8322 -0.1882  1.9085
 4984TIP3   OH236366   6.622   6.682  17.222 -0.0133 -0.3358  0.2390
 4984TIP3    H136367   6.603   6.766  17.264  0.7511  0.9528 -1.9229
 4984TIP3    H236368   6.691   6.643  17.276  0.9362  1.2694  0.2079
 4985TIP3   OH236369   1.010   5.424  16.386  0.1794 -0.8326  0.3154
 4985TIP3    H136370   1.012   5.439  16.291  1.2871  0.0255  0.4676
 4985TIP3    H236371   1.099   5.444  16.416 -0.3075 -0.5457  1.6203
 4986TIP3   OH236372   1.083   5.272   3.496  0.3515  0.7123  0.3161
 4986TIP3    H136373   1.121   5.348   3.452  0.1983  1.2059  1.0384
 4986TIP3    H236374   1.045   5.307   3.577 -0.1098 -0.0574  0.4357
 4987TIP3   OH236375   5.737   5.499   2.214  0.5317 -0.0211  0.2415
 4987TIP3    H136376   5.682   5.428   2.247  0.8268  0.1745  1.1634
 4987TIP3    H236377   5.749   5.557   2.289  2.1076 -0.1410  0.0918
 4988TIP3   OH236378   4.818   4.497   6.521 -0.0304  0.1618 -0.4208
 4988TIP3    H136379   4.817   4.589   6.547  1.3251  0.4230 -1.2482
 4988TIP3    H236380   4.893   4.460   6.568 -0.6024 -0.5384 -0.0499
 4989TIP3   OH236381   6.019   2.608  16.018  0.6519 -0.1229  0.6181
 4989TIP3    H136382   6.087   2.646  15.962 -1.0125 -0.1873 -1.5125
 4989TIP3    H236383   5.996   2.526  15.975 -1.1505  0.1683  0.9998
 4990TIP3   OH236384   0.084   0.403   3.529  0.0972 -0.3787  0.8179
 4990TIP3    H136385   0.071   0.334   3.594  0.1216 -0.6235  0.5653
 4990TIP3    H236386  -0.004   0.433   3.508 -0.0403 -1.5099 -0.3273
 4991TIP3   OH236387   1.212   0.496   3.351 -0.3938 -0.3926 -0.2796
 4991TIP3    H136388   1.278   0.559   3.324 -0.3384 -0.1356  0.4558
 4991TIP3    H236389   1.128   0.539   3.332 -0.3621 -0.8743 -1.5756
 4992TIP3   OH236390   5.055   3.582  14.752  0.0584  0.3544  0.2553
 4992TIP3    H136391   5.085   3.593  14.661 -2.0492  0.2081 -0.4866
 4992TIP3    H236392   5.064   3.669  14.791 -0.5444  0.8097 -0.5920
 4993TIP3   OH236393   6.459   1.391   1.626  0.2710  0.1813 -0.4166
 4993TIP3    H136394   6.457   1.412   1.720  0.1733  1.2841 -0.6536
 4993TIP3    H236395   6.453   1.476   1.583 -2.1109 -0.4521 -1.4326
 4994TIP3   OH236396   3.520   2.194  10.958 -0.1800 -0.1097  0.2325
 4994TIP3    H136397   3.593   2.134  10.942  0.9412  0.6606  2.2987
 4994TIP3    H236398   3.493   2.176  11.048 -2.0184  0.2160 -0.2141
 4995TIP3   OH236399   1.553   1.521   0.906 -0.5922 -0.4980 -0.5757
 4995TIP3    H136400   1.628   1.464   0.926  0.6507  0.2786 -2.9046
 4995TIP3    H236401   1.485   1.461   0.875 -0.1103 -0.9709 -0.7301
 4996TIP3   OH236402   4.506   2.139  14.794 -0.3676 -0.0807 -0.2263
 4996TIP3    H136403   4.452   2.084  14.851 -0.1858  0.4079  0.4222
 4996TIP3    H236404   4.462   2.225  14.796 -0.6843 -0.2118 -1.2775
 4997TIP3   OH236405   1.865   0.425  16.091  0.4442 -0.2083  0.0380
 4997TIP3    H136406   1.829   0.479  16.162 -2.0264 -2.6662  0.7705
 4997TIP3    H236407   1.875   0.485  16.018 -0.2773  1.6773  1.4461
 4998TIP3   OH236408   4.408   3.092  13.368 -0.0544  0.2344  0.1957
 4998TIP3    H136409   4.391   2.998  13.360  0.2315  0.0650  1.3519
 4998TIP3    H236410   4.368   3.131  13.291 -0.3360 -0.8234 -0.1997
 4999TIP3   OH236411   1.215   3.686   1.508  0.5141 -0.3435 -0.0591
 4999TIP3    H136412   1.300   3.729   1.502 -0.0534  0.7146 -0.5689
 4999TIP3    H236413   1.234   3.594   1.490  1.6850 -0.2787  0.7173
 5000TIP3   OH236414   2.978   0.052  12.006 -0.0513  1.0609  0.0578
 5000TIP3    H136415   2.941   0.128  12.050 -0.9707  0.7208 -0.1112
 5000TIP3    H236416   2.914  -0.018  12.020  0.8322  0.2731  0.3212
 5001TIP3   OH236417   0.010   3.412  16.798 -0.2786 -0.5848  0.0663
 5001TIP3    H136418   0.087   3.454  16.838 -0.0818 -2.4156  1.7127
 5001TIP3    H236419  -0.054   3.483  16.790  1.1630  0.7219 -0.2544
 5002TIP3   OH236420   1.567   1.451  12.034  0.2658  0.7186  0.2776
 5002TIP3    H136421   1.529   1.454  11.945  0.3431 -0.4628  0.1926
 5002TIP3    H236422   1.496   1.417  12.088  0.5333  0.5018  0.4925
 5003TIP3   OH236423   6.046   1.448  16.312 -0.4233  0.1974  0.0462
 5003TIP3    H136424   5.960   1.462  16.351 -1.0396  2.0220 -1.8802
 5003TIP3    H236425   6.039   1.484  16.224  2.7055  1.6162  0.3059
 5004TIP3   OH236426   2.429   3.165   1.769 -0.3211 -0.1260 -0.8739
 5004TIP3    H136427   2.372   3.112   1.714 -0.6850  1.3847 -1.9892
 5004TIP3    H236428   2.443   3.245   1.719  3.7159 -0.8734 -1.1473
 5005TIP3   OH236429   4.447   2.210  15.350 -0.1095 -0.1077  0.4349
 5005TIP3    H136430   4.530   2.222  15.305 -0.0222 -0.9220  0.3726
 5005TIP3    H236431   4.388   2.176  15.283 -0.4053  0.1417  0.5657
 5006TIP3   OH236432   5.464   0.365   3.036  0.1045  0.6912 -0.5319
 5006TIP3    H136433   5.399   0.357   3.106  1.0574 -2.2808  0.1122
 5006TIP3    H236434   5.454   0.454   3.003 -3.6735  0.5788  0.1280
 5007TIP3   OH236435   2.278   0.618   5.044  0.2547  0.5563  0.6430
 5007TIP3    H136436   2.367   0.620   5.078  0.3558 -4.0147  0.9685
 5007TIP3    H236437   2.222   0.611   5.122 -0.1021 -0.7974  0.2729
 5008TIP3   OH236438   5.346   1.351  16.592 -0.0840 -0.5910  0.1674
 5008TIP3    H136439   5.320   1.401  16.669  0.5845 -1.5090  1.0091
 5008TIP3    H236440   5.287   1.380  16.523  1.9205  3.2390 -0.0766
 5009TIP3   OH236441   3.393   1.735  15.269 -0.2074  0.6996  0.2564
 5009TIP3    H136442   3.390   1.783  15.186 -0.4181  1.2511  0.5804
 5009TIP3    H236443   3.470   1.678  15.261 -0.4918  0.4083 -0.5020
 5010TIP3   OH236444   2.180   3.100   4.201  0.3447  0.3152 -0.6981
 5010TIP3    H136445   2.241   3.078   4.130 -1.2899 -1.4634 -1.5948
 5010TIP3    H236446   2.121   3.165   4.163  1.0569  1.3123 -0.1289
 5011TIP3   OH236447   1.121   4.057   1.032 -0.1304  0.4269 -0.0413
 5011TIP3    H136448   1.197   4.015   1.072 -0.2848  0.6345  0.4684
 5011TIP3    H236449   1.051   3.993   1.040 -0.3473  0.7559  0.6708
 5012TIP3   OH236450   2.891   3.201   6.398 -0.1859  0.7271  0.2030
 5012TIP3    H136451   2.871   3.142   6.326 -0.6659  0.3277  0.6589
 5012TIP3    H236452   2.806   3.235   6.426 -0.0086  0.8087  0.6453
 5013TIP3   OH236453   2.091   6.129   0.745 -0.0288  0.7860  0.0922
 5013TIP3    H136454   2.163   6.126   0.682 -0.2775  0.0932 -0.1724
 5013TIP3    H236455   2.081   6.222   0.766 -0.0792  1.0539 -1.0597
 5014TIP3   OH236456   6.262   0.272  15.104 -0.4526  0.3103 -0.0720
 5014TIP3    H136457   6.333   0.281  15.168 -0.0934  0.4937 -0.4989
 5014TIP3    H236458   6.183   0.295  15.153 -0.5760 -2.4600  1.1793
 5015TIP3   OH236459   0.225   0.039  12.737  0.4206  0.5922  0.4901
 5015TIP3    H136460   0.303  -0.011  12.761  0.2125 -0.6440 -1.2991
 5015TIP3    H236461   0.208   0.014  12.646  0.2004  3.7659 -0.4092
 5016TIP3   OH236462   0.759   0.346  11.614 -0.3739  0.3002 -0.1534
 5016TIP3    H136463   0.671   0.378  11.632 -0.3198  0.6997 -0.5792
 5016TIP3    H236464   0.748   0.252  11.598 -0.7969  0.4355 -0.6819
 5017TIP3   OH236465   4.028   5.413   0.238 -0.0403 -0.1958  0.7170
 5017TIP3    H136466   4.069   5.433   0.322 -0.1729  0.9927  0.5106
 5017TIP3    H236467   4.069   5.331   0.210  0.6155 -0.1553  1.5337
 5018TIP3   OH236468   0.738   2.977  13.099 -0.0413  0.3303  0.2516
 5018TIP3    H136469   0.703   3.048  13.044  0.3436  1.4483  1.4299
 5018TIP3    H236470   0.691   2.986  13.182  1.0053  0.0810  0.8795
 5019TIP3   OH236471   6.142   6.408  13.890  0.2053 -0.3221  0.3993
 5019TIP3    H136472   6.066   6.414  13.948 -1.0724  1.8726 -1.4084
 5019TIP3    H236473   6.198   6.480  13.917 -1.0068  1.5495 -1.8289
 5020TIP3   OH236474   4.650   0.759   5.339  0.2473  0.5164 -0.3035
 5020TIP3    H136475   4.580   0.733   5.279 -0.0363 -0.0591  0.2691
 5020TIP3    H236476   4.714   0.804   5.283 -1.1880  2.2301 -0.6122
 5021TIP3   OH236477   6.446   5.639  12.791  0.0209  0.8160 -0.0392
 5021TIP3    H136478   6.408   5.713  12.745 -0.2320 -0.0451 -1.2339
 5021TIP3    H236479   6.539   5.641  12.769 -0.0871  0.4461 -0.5306
 5022TIP3   OH236480   6.556   3.480  16.267 -0.4818 -0.3689 -0.1308
 5022TIP3    H136481   6.580   3.433  16.187  1.8331  1.5637 -0.6282
 5022TIP3    H236482   6.626   3.459  16.329 -1.4324 -0.6021  0.8709
 5023TIP3   OH236483   4.576   5.492   5.847 -0.2692 -0.3787 -0.2488
 5023TIP3    H136484   4.616   5.566   5.801 -1.1276 -0.7398 -1.6032
 5023TIP3    H236485   4.631   5.480   5.924 -0.4488  2.0317  0.2871
 5024TIP3   OH236486   1.527   3.192  14.286 -0.1666 -0.0522  0.5415
 5024TIP3    H136487   1.562   3.221  14.370 -0.1054  0.6053  0.2906
 5024TIP3    H236488   1.551   3.100  14.280  0.2403  0.0213  1.0335
 5025TIP3   OH236489   2.779   5.321   4.742  0.1540 -0.2973 -0.4776
 5025TIP3    H136490   2.868   5.302   4.713  0.2254 -1.0970  0.2374
 5025TIP3    H236491   2.741   5.373   4.671  0.7017 -1.2179 -1.4561
 5026TIP3   OH236492   0.666   2.365  12.606 -0.2630  0.0534 -0.7407
 5026TIP3    H136493   0.703   2.411  12.531 -0.1084 -0.6484 -1.1023
 5026TIP3    H236494   0.707   2.405  12.683  1.1101 -0.5888 -1.1222
 5027TIP3   OH236495   6.087   0.119  13.799 -0.0357  0.7207  0.1969
 5027TIP3    H136496   6.020   0.187  13.796 -0.8142  0.1252  2.6769
 5027TIP3    H236497   6.169   0.166  13.811 -0.3665  1.3018  0.1593
 5028TIP3   OH236498   2.080   0.801   2.588 -0.0517  0.2490  0.0697
 5028TIP3    H136499   2.159   0.758   2.620 -0.9968 -0.3313  1.6905
 5028TIP3    H236500   2.100   0.823   2.497  1.3759 -1.3137 -0.0217
 5029TIP3   OH236501   6.117   3.505   0.059  0.5563 -0.0077 -0.2020
 5029TIP3    H136502   6.175   3.581   0.055 -0.5531  0.8423 -0.4046
 5029TIP3    H236503   6.084   3.496  -0.030 -2.3160  1.6737  0.6210
 5030TIP3   OH236504   2.805   1.958  16.296 -0.2218 -0.6029  0.8464
 5030TIP3    H136505   2.879   1.961  16.235 -1.6575 -0.2925 -0.9407
 5030TIP3    H236506   2.826   2.023  16.362  1.0226 -0.3832  0.2597
 5031TIP3   OH236507   5.806   4.885  13.945  0.1086  0.6055  0.3743
 5031TIP3    H136508   5.836   4.869  14.034  0.3826 -0.1167  0.1505
 5031TIP3    H236509   5.882   4.919  13.899  0.1687  0.2790  0.2269
 5032TIP3   OH236510   0.991   2.470   4.815 -0.0507 -0.0162 -0.2355
 5032TIP3    H136511   1.010   2.378   4.838 -0.1051  0.5507  2.2971
 5032TIP3    H236512   1.065   2.497   4.761  0.8905 -1.0439  0.4955
 5033TIP3   OH236513   1.835   6.628   1.085  0.0544  0.1524  0.2721
 5033TIP3    H136514   1.783   6.705   1.063 -0.1909 -0.3980 -1.1423
 5033TIP3    H236515   1.773   6.567   1.126  0.5755  1.2994  2.8542
 5034TIP3   OH236516   6.085   3.887   2.138 -0.1846  0.1465 -0.2744
 5034TIP3    H136517   6.117   3.873   2.049 -1.0663  0.3531 -0.6235
 5034TIP3    H236518   6.019   3.819   2.151 -0.3339  0.3573  0.0876
 5035TIP3   OH236519   5.168   0.352   2.448 -0.0944 -0.3032 -0.3387
 5035TIP3    H136520   5.104   0.354   2.377 -0.9887  0.9142  0.4667
 5035TIP3    H236521   5.179   0.443   2.473 -0.8430 -0.7890  1.9702
 5036TIP3   OH236522   6.778   5.881  13.266 -0.3911  0.8182 -0.1872
 5036TIP3    H136523   6.846   5.841  13.212  0.2589  1.5962  0.0583
 5036TIP3    H236524   6.821   5.901  13.349 -1.0886  0.7017  0.2103
 5037TIP3   OH236525   5.335   2.405  15.977  0.3911 -0.6077 -0.2283
 5037TIP3    H136526   5.360   2.440  15.891 -0.0435  2.1284  0.6837
 5037TIP3    H236527   5.244   2.376  15.965 -1.0873  3.4410  0.1988
 5038TIP3   OH236528   3.967   4.466   6.227 -0.1329  0.1858  0.0251
 5038TIP3    H136529   3.883   4.501   6.258 -0.8931  0.1860 -1.9547
 5038TIP3    H236530   3.953   4.372   6.221  0.5715 -0.0039  1.3568
 5039TIP3   OH236531   1.701   1.916   3.978  0.0428 -0.3590  0.1970
 5039TIP3    H136532   1.716   1.990   3.920 -0.8883  0.2112  0.6651
 5039TIP3    H236533   1.606   1.911   3.987  0.1417 -0.8950  1.0793
 5040TIP3   OH236534   4.973   0.944  12.947  0.7998 -0.0443  0.0867
 5040TIP3    H136535   4.952   0.941  12.853 -1.7277 -2.2124  0.6497
 5040TIP3    H236536   4.908   1.003  12.984  0.0870 -1.2524  0.8183
 5041TIP3   OH236537   2.231   2.761   3.207 -0.0063  0.1304 -0.3708
 5041TIP3    H136538   2.253   2.747   3.115 -1.7532 -1.9253 -0.4998
 5041TIP3    H236539   2.137   2.779   3.207  0.1554  1.0897  0.9449
 5042TIP3   OH236540   4.431   3.170   5.277  0.5711  0.3349 -0.6432
 5042TIP3    H136541   4.404   3.224   5.351 -0.6859 -0.8494 -0.2115
 5042TIP3    H236542   4.487   3.102   5.316 -0.7547 -0.7759 -0.6319
 5043TIP3   OH236543   4.753   4.447  16.383 -0.2339  0.0100 -0.3098
 5043TIP3    H136544   4.671   4.442  16.432  0.0869 -1.0507  0.1307
 5043TIP3    H236545   4.777   4.540  16.384 -0.4740  0.0567  1.1332
 5044TIP3   OH236546   5.431   1.975   4.588  0.2270 -0.0151  0.8612
 5044TIP3    H136547   5.523   1.977   4.561 -0.0562  0.6768 -0.0700
 5044TIP3    H236548   5.384   1.936   4.515 -0.2412 -0.3112  1.3103
 5045TIP3   OH236549   6.604   0.948  14.351 -0.1299 -0.2426 -0.5839
 5045TIP3    H136550   6.513   0.921  14.365 -0.6100  1.7629  0.4556
 5045TIP3    H236551   6.600   1.044  14.349  2.1692 -0.0837  0.8938
 5046TIP3   OH236552   5.438   1.530   4.951 -0.1383  0.3650 -0.2402
 5046TIP3    H136553   5.514   1.584   4.976 -0.9485  1.6567 -0.5440
 5046TIP3    H236554   5.467   1.485   4.872 -0.4486  2.5778 -1.6520
 5047TIP3   OH236555   4.778   2.761  11.931 -0.0109  0.2258  0.3872
 5047TIP3    H136556   4.779   2.699  12.004  2.0188  1.2834  1.2950
 5047TIP3    H236557   4.854   2.737  11.879  0.1813  1.2731  0.1767
 5048TIP3   OH236558   4.688   5.311  15.068  0.0605 -0.1977  0.5736
 5048TIP3    H136559   4.778   5.340  15.084 -0.5966  1.3285  1.6510
 5048TIP3    H236560   4.634   5.373  15.118 -1.7215  0.2696 -1.8702
 5049TIP3   OH236561   4.321   5.603   1.847 -0.3258 -0.1616  0.0693
 5049TIP3    H136562   4.232   5.620   1.879 -0.2955  0.8701 -0.3874
 5049TIP3    H236563   4.328   5.655   1.767  0.7887 -0.0183  0.2536
 5050TIP3   OH236564   0.694   0.019   2.919  0.1337  0.3207 -0.2378
 5050TIP3    H136565   0.788   0.031   2.933  0.0409 -0.1625  0.8664
 5050TIP3    H236566   0.688  -0.054   2.857  0.4708  0.0689  0.0294
 5051TIP3   OH236567   5.079   6.086   1.368 -0.5912  0.1275  0.3406
 5051TIP3    H136568   5.165   6.119   1.394 -0.8791  1.5586 -0.4062
 5051TIP3    H236569   5.068   6.005   1.416  0.4513  0.8110  1.7693
 5052TIP3   OH236570   2.870   6.094   3.455  0.6599  0.5837  0.1626
 5052TIP3    H136571   2.787   6.093   3.407  0.0281  1.5181  1.2067
 5052TIP3    H236572   2.931   6.138   3.396  0.8206 -1.4745 -1.2394
 5053TIP3   OH236573   5.163   5.103   4.811 -0.3098 -0.2089  0.1404
 5053TIP3    H136574   5.184   5.197   4.817 -0.6836 -0.1164  0.0039
 5053TIP3    H236575   5.206   5.064   4.887  0.6663 -0.0761 -0.3269
 5054TIP3   OH236576   0.500   1.978  11.125 -0.2099 -0.6956 -0.3486
 5054TIP3    H136577   0.583   2.024  11.116 -0.7522  0.3928  0.0409
 5054TIP3    H236578   0.443   2.017  11.059 -0.5522 -1.0984 -0.2974
 5055TIP3   OH236579   3.483   5.896   2.674  0.6582  0.0595 -0.2342
 5055TIP3    H136580   3.466   5.841   2.598 -0.6614  0.9097 -0.5516
 5055TIP3    H236581   3.456   5.984   2.648  0.8712  0.4948  0.9679
 5056TIP3   OH236582   3.382   5.651   0.835 -0.0388  0.2273  0.3085
 5056TIP3    H136583   3.392   5.726   0.776  0.2484 -0.5361 -0.6244
 5056TIP3    H236584   3.384   5.690   0.923  0.1403  1.3113 -0.1601
 5057TIP3   OH236585   6.282   6.482   6.119  0.7222  0.5875  0.2253
 5057TIP3    H136586   6.193   6.451   6.099  1.9998 -1.9104 -2.0243
 5057TIP3    H236587   6.293   6.465   6.212 -1.3258  1.3736  0.6336
 5058TIP3   OH236588   3.415   6.042   1.744 -0.8472 -0.2363  0.5711
 5058TIP3    H136589   3.351   6.082   1.686 -0.0082  0.7119  0.2863
 5058TIP3    H236590   3.470   6.115   1.774  1.4530 -1.2832 -0.9092
 5059TIP3   OH236591   4.744   3.809  11.755 -0.0041  0.1339 -0.1629
 5059TIP3    H136592   4.704   3.728  11.726 -1.0857  0.6640 -0.1713
 5059TIP3    H236593   4.836   3.787  11.770  0.0882 -0.6564 -1.8689
 5060TIP3   OH236594   2.060   1.934   2.934 -0.2243 -0.2924 -0.1628
 5060TIP3    H136595   2.020   1.848   2.926  1.4815 -1.1133 -0.0685
 5060TIP3    H236596   2.145   1.918   2.975 -0.7256  1.6559  1.7890
 5061TIP3   OH236597   0.073   4.958   3.827  0.6735 -0.5204 -0.0957
 5061TIP3    H136598  -0.017   4.991   3.832  0.4104 -0.9735 -1.7600
 5061TIP3    H236599   0.093   4.930   3.916 -0.6008  0.1894  0.4271
 5062TIP3   OH236600   1.874   5.794   4.936 -0.0649  0.0765 -0.2110
 5062TIP3    H136601   1.905   5.853   5.005  0.1312  1.5186 -1.4994
 5062TIP3    H236602   1.786   5.827   4.915 -0.3799 -0.7527 -0.2153
 5063TIP3   OH236603   3.928   2.560   3.402  0.1738  0.2772 -0.0107
 5063TIP3    H136604   3.873   2.507   3.345 -0.1806  0.2354  0.3641
 5063TIP3    H236605   4.017   2.544   3.372  0.1363 -1.1594  0.6224
 5064TIP3   OH236606   0.712   1.222  16.031 -0.0795 -0.1387  0.5739
 5064TIP3    H136607   0.629   1.265  16.054 -1.0296 -0.9275 -1.2734
 5064TIP3    H236608   0.689   1.129  16.023  0.9999 -0.3712  0.1400
 5065TIP3   OH236609   2.889   4.186  15.318  0.8499 -0.1441 -0.4712
 5065TIP3    H136610   2.813   4.215  15.368  2.2466 -0.6051  1.9753
 5065TIP3    H236611   2.881   4.091  15.314  0.3151 -0.0603 -1.8943
 5066TIP3   OH236612   4.781   2.384  12.011  0.0367  0.1230 -0.5801
 5066TIP3    H136613   4.826   2.419  11.934 -0.2603  0.8870 -0.4177
 5066TIP3    H236614   4.851   2.351  12.067  0.2889 -0.0184 -0.9792
 5067TIP3   OH236615   1.543   5.063   2.044  0.8199  0.4198 -0.1093
 5067TIP3    H136616   1.619   5.037   2.095 -0.2365  0.5787  1.5837
 5067TIP3    H236617   1.513   5.144   2.084 -0.3198  0.2862 -0.6695
 5068TIP3   OH236618   6.371   2.371  13.627 -0.1470  0.2099 -0.4249
 5068TIP3    H136619   6.364   2.330  13.712  1.0453  0.0885 -0.3781
 5068TIP3    H236620   6.343   2.462  13.642 -0.4678  0.0503 -0.0369
 5069TIP3   OH236621   2.914   0.591   1.389  0.1279 -0.5957 -0.4323
 5069TIP3    H136622   2.864   0.581   1.308 -0.2071 -0.9672 -0.1825
 5069TIP3    H236623   2.848   0.586   1.459  0.1145  1.9468 -0.2066
 5070TIP3   OH236624   4.984   3.940   0.802  0.3092 -0.0641 -0.3744
 5070TIP3    H136625   4.949   3.934   0.713  0.6060 -0.2192 -0.4809
 5070TIP3    H236626   5.046   3.867   0.808  0.3307 -0.0202 -0.0582
 5071TIP3   OH236627   2.709   2.135  14.126 -0.3437 -0.6876  0.4870
 5071TIP3    H136628   2.683   2.071  14.193  0.4770 -1.7710 -0.1983
 5071TIP3    H236629   2.782   2.183  14.166 -0.0441 -1.1380  0.4908
 5072TIP3   OH236630   6.331   3.843  17.062 -0.3317 -0.2012  0.3742
 5072TIP3    H136631   6.294   3.772  17.009  0.4951 -1.1045  0.9933
 5072TIP3    H236632   6.333   3.918  17.002  0.2039 -1.0958 -0.7594
 5073TIP3   OH236633   5.130   1.715  14.797 -0.3237 -0.0741  0.2215
 5073TIP3    H136634   5.094   1.786  14.744 -0.1168 -1.1591 -1.4138
 5073TIP3    H236635   5.081   1.720  14.879  0.4501  2.6218  0.5772
 5074TIP3   OH236636   0.973   4.755  11.817  0.1910 -0.0200 -0.0868
 5074TIP3    H136637   0.894   4.746  11.871 -0.0989 -1.1442 -0.6748
 5074TIP3    H236638   0.984   4.849  11.806 -0.4040  0.1770  0.9842
 5075TIP3   OH236639   5.070   0.377   5.973 -0.4727  0.2396 -0.6171
 5075TIP3    H136640   4.987   0.367   6.018  0.3149  0.4538  0.8965
 5075TIP3    H236641   5.069   0.308   5.906 -1.7633  0.1017 -0.4614
 5076TIP3   OH236642   3.036   0.387   0.438 -0.4761  0.5022 -0.1356
 5076TIP3    H136643   2.996   0.302   0.453  0.6137  0.0197  0.0966
 5076TIP3    H236644   3.082   0.406   0.520  1.6300  0.0029 -1.1681
 5077TIP3   OH236645   4.666   2.943  13.156 -0.3321  0.3279  0.0547
 5077TIP3    H136646   4.627   3.015  13.106 -1.1483  0.2443  0.5670
 5077TIP3    H236647   4.760   2.964  13.159 -0.1189 -0.1370 -2.2993
 5078TIP3   OH236648   1.034   4.295  14.964 -0.0651  0.3427 -0.3210
 5078TIP3    H136649   1.043   4.277  14.870  1.2141 -2.6489  0.3235
 5078TIP3    H236650   0.947   4.265  14.986 -0.4690  1.2955 -0.5681
 5079TIP3   OH236651   2.909   3.775   1.662 -0.3757 -0.2469 -0.1765
 5079TIP3    H136652   2.977   3.709   1.666 -0.6221 -0.4545  0.7630
 5079TIP3    H236653   2.893   3.788   1.569  2.3653  1.2710 -0.4913
 5080TIP3   OH236654   1.724   6.776  15.634 -0.2263 -0.4995 -0.0070
 5080TIP3    H136655   1.795   6.839  15.646  0.4329 -1.3323  0.4839
 5080TIP3    H236656   1.722   6.726  15.715 -0.0678 -1.7998 -0.7934
 5081TIP3   OH236657   0.268   3.133  13.652  0.3625 -0.3266 -0.5950
 5081TIP3    H136658   0.174   3.120  13.638  0.2453  1.2868 -1.5604
 5081TIP3    H236659   0.305   3.046  13.650 -0.9349 -0.8782 -1.7647
 5082TIP3   OH236660   4.262   6.317   1.793  0.2335 -0.2453  0.6401
 5082TIP3    H136661   4.244   6.258   1.866  0.8827  1.1870  1.9798
 5082TIP3    H236662   4.181   6.318   1.742 -0.3467 -0.9801  1.5354
 5083TIP3   OH236663   1.252   2.702   0.496  0.2764 -0.0321  0.4077
 5083TIP3    H136664   1.333   2.749   0.515  1.4087 -0.7280 -2.4378
 5083TIP3    H236665   1.271   2.653   0.416 -2.2238 -2.0171  0.9582
 5084TIP3   OH236666   3.911   4.121   4.967  0.0254  1.0065 -0.0453
 5084TIP3    H136667   3.994   4.159   4.936 -0.0234  1.5673  0.5127
 5084TIP3    H236668   3.848   4.143   4.899  0.5377 -0.3127 -0.9904
 5085TIP3   OH236669   1.985   5.229   1.747 -0.0692  0.1253 -0.3473
 5085TIP3    H136670   1.995   5.178   1.827 -1.8359 -0.2040 -0.3208
 5085TIP3    H236671   2.034   5.179   1.681  0.7358 -0.0099  0.3403
 5086TIP3   OH236672   4.293   0.428   2.541 -0.5348  0.0507 -0.1503
 5086TIP3    H136673   4.210   0.380   2.531 -1.6458  2.1380 -1.2252
 5086TIP3    H236674   4.285   0.472   2.626  0.1048 -0.8561  0.4038
 5087TIP3   OH236675   0.476   3.529  12.586 -0.1491 -0.4455 -0.0630
 5087TIP3    H136676   0.524   3.607  12.559 -0.6245 -0.7958 -1.9850
 5087TIP3    H236677   0.481   3.470  12.510 -1.7891 -1.3275  0.4913
 5088TIP3   OH236678   0.030   3.368  10.759  0.3407 -0.0501  0.3505
 5088TIP3    H136679   0.071   3.450  10.731  0.3069  0.1889  0.9832
 5088TIP3    H236680  -0.064   3.385  10.753  0.3314  0.0586  0.7467
 5089TIP3   OH236681   5.612   4.445  13.964  0.2362 -0.0849 -0.0383
 5089TIP3    H136682   5.691   4.483  13.925 -0.1810  2.1784  1.2155
 5089TIP3    H236683   5.631   4.444  14.058 -1.0498  0.0524  0.2245
 5090TIP3   OH236684   4.141   6.611  11.559  0.2459 -0.7069  0.2863
 5090TIP3    H136685   4.113   6.663  11.483  1.2429 -0.2073  0.2526
 5090TIP3    H236686   4.180   6.533  11.521  0.9142 -0.3698  0.2840
 5091TIP3   OH236687   4.003   0.150  13.520 -0.2520 -0.1623  0.6959
 5091TIP3    H136688   3.946   0.092  13.470 -0.6454  0.4694  0.4041
 5091TIP3    H236689   4.080   0.162  13.463  1.2445 -2.8457  2.0440
 5092TIP3   OH236690   3.223   1.068  15.863  0.5330 -0.2689 -0.1835
 5092TIP3    H136691   3.149   1.115  15.823 -0.8505 -2.3864 -0.2214
 5092TIP3    H236692   3.298   1.124  15.848 -0.7684  1.1090 -1.7618
 5093TIP3   OH236693   4.551   2.237  12.648  0.1956 -0.1881 -0.0367
 5093TIP3    H136694   4.640   2.207  12.665  0.9877  3.1530  2.2718
 5093TIP3    H236695   4.504   2.218  12.729 -0.4786  0.4490 -0.2690
 5094TIP3   OH236696   4.883   5.592   6.585 -0.7016  0.5027 -0.2315
 5094TIP3    H136697   4.978   5.590   6.589 -0.8032 -0.7134  3.5062
 5094TIP3    H236698   4.860   5.685   6.576  0.7795  0.9009  0.0916
 5095TIP3   OH236699   3.757   1.284  15.776  0.1302 -0.0683  0.3880
 5095TIP3    H136700   3.786   1.193  15.783  0.6171  0.1017  0.6174
 5095TIP3    H236701   3.727   1.307  15.864  0.6261  0.1954  0.4918
 5096TIP3   OH236702   5.386   1.964   4.857 -0.3619 -0.0921 -0.2590
 5096TIP3    H136703   5.395   1.971   4.762 -0.2593 -2.5858 -0.4598
 5096TIP3    H236704   5.304   1.916   4.870 -1.9114  2.7344  1.0274
 5097TIP3   OH236705   6.733   6.100  13.083  0.3871 -0.0203 -0.4804
 5097TIP3    H136706   6.650   6.096  13.130  0.8729 -0.3288  0.3619
 5097TIP3    H236707   6.790   6.038  13.129  0.7880 -0.5324 -1.6421
 5098TIP3   OH236708   0.340   1.446  10.465 -0.2043 -0.4168  0.2693
 5098TIP3    H136709   0.332   1.503  10.389  0.2626 -2.6569 -1.4941
 5098TIP3    H236710   0.428   1.463  10.498 -0.2911  0.3211  0.1377
 5099TIP3   OH236711   3.740   3.001   0.743  0.3584 -0.3745  0.4509
 5099TIP3    H136712   3.651   2.974   0.719  0.1029  0.4494  0.4752
 5099TIP3    H236713   3.793   2.977   0.667 -0.2066  0.8770 -0.3466
 5100TIP3   OH236714   1.145   6.405  16.375 -0.3104 -0.5815  0.6338
 5100TIP3    H136715   1.057   6.417  16.412 -0.6041 -0.4258 -0.1014
 5100TIP3    H236716   1.155   6.478  16.313  0.3058 -0.6401  0.6610
 5101TIP3   OH236717   5.767   0.153   1.251  0.4544  0.1286 -0.1454
 5101TIP3    H136718   5.784   0.199   1.169  1.1023 -0.8755 -0.5865
 5101TIP3    H236719   5.700   0.088   1.229  0.2500  0.2007  0.2465
 5102TIP3   OH236720   2.968   3.817   4.772 -0.1902 -0.5133  0.0212
 5102TIP3    H136721   2.938   3.805   4.682 -3.8819  0.6202  1.0180
 5102TIP3    H236722   3.029   3.890   4.767 -0.7992 -0.0796 -1.4973
 5103TIP3   OH236723   1.365   0.833   5.730  0.2046  0.3840  0.1838
 5103TIP3    H136724   1.342   0.743   5.708 -0.7948  0.6910 -0.0986
 5103TIP3    H236725   1.431   0.858   5.666 -1.6932  0.8193 -1.6528
 5104TIP3   OH236726   3.185   2.576   2.428 -1.1274 -0.5769 -0.0477
 5104TIP3    H136727   3.225   2.644   2.373 -1.3734  1.2197  1.9441
 5104TIP3    H236728   3.187   2.612   2.516 -2.0666 -2.8195  0.9213
 5105TIP3   OH236729   3.027   4.672  13.810  0.4726 -0.2008  0.4703
 5105TIP3    H136730   2.934   4.650  13.812  0.4249  0.0962  1.3621
 5105TIP3    H236731   3.031   4.766  13.827  0.9373 -0.1950  0.3603
 5106TIP3   OH236732   5.719   6.034  13.107 -0.3075  0.4823  0.0444
 5106TIP3    H136733   5.687   5.962  13.053  0.2130  0.7304 -0.6006
 5106TIP3    H236734   5.795   5.998  13.153  0.6173  0.9241 -1.1027
 5107TIP3   OH236735   3.176   5.059   3.929 -0.1102 -0.2787 -0.1056
 5107TIP3    H136736   3.222   5.024   4.005 -0.6521 -1.5596 -0.3619
 5107TIP3    H236737   3.217   5.144   3.913  0.7878 -0.5202  0.9065
 5108TIP3   OH236738   3.955   5.817   2.322  0.3769 -0.5043 -0.2898
 5108TIP3    H136739   3.895   5.811   2.397 -2.3025 -0.5267 -2.3384
 5108TIP3    H236740   3.974   5.726   2.300  1.2489 -0.4965  0.4156
 5109TIP3   OH236741   4.705   2.101  15.470 -0.3633 -0.5672 -0.1221
 5109TIP3    H136742   4.624   2.051  15.477  0.8807 -2.5753  0.2715
 5109TIP3    H236743   4.734   2.086  15.380 -0.0610 -0.4331 -0.0460
 5110TIP3   OH236744   0.170   1.991  14.880  0.2893 -0.0716 -0.2213
 5110TIP3    H136745   0.194   2.058  14.815  1.3679  0.5854  0.8499
 5110TIP3    H236746   0.138   1.917  14.827 -0.9869  1.2957 -1.4158
 5111TIP3   OH236747   1.609   5.382  16.834  0.4257 -0.4652 -0.2781
 5111TIP3    H136748   1.648   5.409  16.917 -0.2745  0.8206 -0.3647
 5111TIP3    H236749   1.552   5.455  16.808  0.5318 -0.9060 -1.8200
 5112TIP3   OH236750   4.459   5.890  15.616  0.1805 -0.2517 -0.2570
 5112TIP3    H136751   4.381   5.915  15.665  0.8395 -1.3232  1.3810
 5112TIP3    H236752   4.437   5.906  15.525 -1.2271  1.3992  0.3490
 5113TIP3   OH236753   5.273   3.529  15.085 -0.2617 -0.3118  0.0397
 5113TIP3    H136754   5.187   3.504  15.119 -1.2741  0.9193 -1.5553
 5113TIP3    H236755   5.281   3.481  15.003  0.0275  0.5728 -0.4486
 5114TIP3   OH236756   2.215   1.817   2.571  0.1465 -0.1954  0.4889
 5114TIP3    H136757   2.206   1.723   2.581  1.8614 -0.4109  0.1613
 5114TIP3    H236758   2.285   1.842   2.632 -0.6781  0.9447  0.9879
 5115TIP3   OH236759   3.675   4.708   0.924 -0.5372  0.1143 -0.1122
 5115TIP3    H136760   3.610   4.665   0.869 -0.8235 -0.1560  0.4414
 5115TIP3    H236761   3.726   4.636   0.962  1.4330  0.3695 -2.1737
 5116TIP3   OH236762   0.967   4.464   5.358 -0.4293  0.0159  0.1557
 5116TIP3    H136763   1.000   4.409   5.429  0.1313 -1.3899 -1.1623
 5116TIP3    H236764   1.032   4.533   5.349  0.3676 -0.7493 -0.0761
 5117TIP3   OH236765   2.180   2.377   5.302  0.0370  0.5005 -0.3477
 5117TIP3    H136766   2.183   2.292   5.258  0.2140  0.9627 -1.2320
 5117TIP3    H236767   2.271   2.408   5.300  0.1465  0.2596  0.8556
 5118TIP3   OH236768   4.077   1.879  16.522  0.4388  0.3009 -0.9197
 5118TIP3    H136769   3.999   1.827  16.501  1.1057 -0.7646 -0.8221
 5118TIP3    H236770   4.149   1.830  16.481  1.5418 -0.8510  2.2942
 5119TIP3   OH236771   5.355   1.802  15.540 -0.3335 -0.0246 -0.1607
 5119TIP3    H136772   5.448   1.793  15.518 -0.2579  1.9214 -0.7201
 5119TIP3    H236773   5.322   1.712  15.542  1.5268 -0.7216 -0.1018
 5120TIP3   OH236774   4.056   0.308   3.099 -0.6619  0.3346 -0.0821
 5120TIP3    H136775   3.979   0.365   3.100  0.5455  2.0184 -0.0844
 5120TIP3    H236776   4.090   0.312   3.189 -0.9975 -0.9923  0.1109
 5121TIP3   OH236777   4.735   3.294   3.783 -0.2097  0.2585  0.0345
 5121TIP3    H136778   4.820   3.267   3.747 -0.4906  1.9664 -2.0085
 5121TIP3    H236779   4.696   3.212   3.815  1.1633 -0.9200 -1.2002
 5122TIP3   OH236780   6.622   0.898   3.149  0.5618  0.2134  0.0459
 5122TIP3    H136781   6.580   0.836   3.090 -0.0142 -0.5755  1.2789
 5122TIP3    H236782   6.692   0.848   3.191 -1.0327 -0.1178  2.3606
 5123TIP3   OH236783   2.942   4.656   5.185  0.2733 -0.0807 -0.1309
 5123TIP3    H136784   2.929   4.633   5.093  0.9917 -1.0145 -0.0115
 5123TIP3    H236785   2.979   4.744   5.183  0.7648 -0.2923 -0.7707
 5124TIP3   OH236786   1.635   3.793   2.759 -0.0027  0.1900  0.5955
 5124TIP3    H136787   1.707   3.730   2.757  0.8032  1.1069 -0.0150
 5124TIP3    H236788   1.642   3.839   2.675  0.1117  1.8412  1.4930
 5125TIP3   OH236789   6.120   1.891  15.903  0.5389  0.1845 -0.0705
 5125TIP3    H136790   6.177   1.935  15.966  0.3679 -1.4045  1.2495
 5125TIP3    H236791   6.055   1.957  15.878  1.7387  1.3907 -0.0163
 5126TIP3   OH236792   2.834   1.611  14.423  0.3156 -0.0327  0.3621
 5126TIP3    H136793   2.842   1.581  14.332 -0.6126  0.3906  0.1438
 5126TIP3    H236794   2.742   1.631  14.434  0.4051 -0.1828  1.4400
 5127TIP3   OH236795   3.892   1.184   0.563  0.2687  0.4449 -0.4825
 5127TIP3    H136796   3.856   1.221   0.482  0.2272  2.0115  0.2440
 5127TIP3    H236797   3.967   1.132   0.534  1.0128  2.0130 -1.4204
 5128TIP3   OH236798   5.912   6.450  13.537 -0.8544 -0.5366  0.3433
 5128TIP3    H136799   5.955   6.478  13.456  1.4285 -1.6899  1.1207
 5128TIP3    H236800   5.892   6.532  13.583  0.7002  0.0156  0.0496
 5129TIP3   OH236801   6.521   0.755   0.740  0.2142 -0.1879  0.2336
 5129TIP3    H136802   6.520   0.850   0.726 -0.4521 -0.1350  0.6102
 5129TIP3    H236803   6.539   0.745   0.833 -0.8934 -0.3976  0.4331
 5130TIP3   OH236804   5.113   5.928  11.426 -0.0519  0.0952  0.4392
 5130TIP3    H136805   5.078   5.916  11.338 -2.0296  0.7334  1.1161
 5130TIP3    H236806   5.040   5.908  11.484  1.8969 -2.6230  2.0274
 5131TIP3   OH236807   1.359   4.531  15.298 -0.1671 -0.1404  0.3872
 5131TIP3    H136808   1.361   4.593  15.371 -0.6284 -0.5034  0.7131
 5131TIP3    H236809   1.388   4.581  15.223 -0.6703  0.5092  0.6236
 5132TIP3   OH236810   0.430   3.614   5.362  0.4219  0.5127  0.1954
 5132TIP3    H136811   0.425   3.655   5.276 -0.1552  1.4614  0.6735
 5132TIP3    H236812   0.340   3.589   5.382  0.4291  1.0226  0.8696
 5133TIP3   OH236813   6.775   0.352   0.729  0.0275  0.0996 -0.1672
 5133TIP3    H136814   6.787   0.443   0.702  1.8272 -0.1226 -0.1586
 5133TIP3    H236815   6.815   0.347   0.816  0.4614 -0.8240 -0.4116
 5134TIP3   OH236816   1.344   1.103  11.914 -0.2887 -0.4933  0.0013
 5134TIP3    H136817   1.319   1.187  11.876  0.2482  0.3968  1.5723
 5134TIP3    H236818   1.262   1.064  11.944 -0.3983 -0.0169  0.3101
 5135TIP3   OH236819   5.985   4.058   5.668  0.0703 -0.0848 -0.1035
 5135TIP3    H136820   6.055   4.034   5.607 -0.0339 -0.6985  0.0177
 5135TIP3    H236821   5.995   3.996   5.741 -1.8976 -1.5452 -1.0317
 5136TIP3   OH236822   3.393   3.462   0.954  0.4073  0.2576 -0.1657
 5136TIP3    H136823   3.411   3.454   0.861 -1.9721  0.4228 -0.6679
 5136TIP3    H236824   3.382   3.556   0.969 -0.2077  0.1455  0.0920
 5137TIP3   OH236825   5.220   6.419   2.795  0.1595 -0.2213 -0.1144
 5137TIP3    H136826   5.204   6.436   2.888  0.9476  0.2421 -0.0563
 5137TIP3    H236827   5.315   6.418   2.787  0.0968 -1.0362 -0.7822
 5138TIP3   OH236828   1.107   0.830   5.404  0.2077 -0.0570  0.0449
 5138TIP3    H136829   1.070   0.775   5.473  0.4315  0.3870  0.5206
 5138TIP3    H236830   1.103   0.776   5.325 -1.4685 -0.0309  0.0852
 5139TIP3   OH236831   4.438   6.211  11.649 -0.4613 -0.2826  0.1296
 5139TIP3    H136832   4.479   6.242  11.729  0.6656 -1.9069  0.1911
 5139TIP3    H236833   4.419   6.119  11.666 -0.3912 -0.5860 -1.3937
 5140TIP3   OH236834   5.702   5.360   4.095  0.0129 -0.0042  0.1554
 5140TIP3    H136835   5.683   5.299   4.166 -1.3740 -0.3867 -0.5261
 5140TIP3    H236836   5.767   5.315   4.041  0.2546 -0.1709  0.5879
 5141TIP3   OH236837   6.504   0.588  11.992  0.0083  0.2306  0.4270
 5141TIP3    H136838   6.502   0.510  11.935 -0.1282  1.6112 -1.4972
 5141TIP3    H236839   6.413   0.603  12.015 -0.3150  1.4527 -1.5245
 5142TIP3   OH236840   1.734   0.620  15.456 -0.2775  0.5056 -0.7358
 5142TIP3    H136841   1.673   0.550  15.431 -0.4675 -0.4737  2.1861
 5142TIP3    H236842   1.818   0.575  15.466  0.3925  1.3862 -2.2825
 5143TIP3   OH236843   0.296   5.683   0.726 -0.1190  0.2203  0.8608
 5143TIP3    H136844   0.269   5.702   0.815 -1.6402  0.9873  0.2414
 5143TIP3    H236845   0.215   5.671   0.677  0.6870  0.1155 -0.4971
 5144TIP3   OH236846   5.231   5.852  15.499  0.0258 -0.5239  0.6126
 5144TIP3    H136847   5.206   5.870  15.408  4.1347 -0.9262 -0.6792
 5144TIP3    H236848   5.258   5.936  15.534 -0.0476 -0.6559  0.9900
 5145TIP3   OH236849   3.337   2.152  16.761  1.2113  0.1245  0.0191
 5145TIP3    H136850   3.331   2.226  16.821  2.1210 -1.0853  1.6382
 5145TIP3    H236851   3.421   2.112  16.782  0.3610 -1.8421 -0.2878
 5146TIP3   OH236852   6.570   3.624   5.127 -0.2775 -0.5001  0.0490
 5146TIP3    H136853   6.551   3.565   5.200  0.9264 -1.1814 -0.1601
 5146TIP3    H236854   6.503   3.692   5.133 -1.5161 -1.7228  0.4796
 5147TIP3   OH236855   1.396   5.673  13.289  0.1296  0.4411 -0.4182
 5147TIP3    H136856   1.300   5.670  13.283  0.1512 -0.2261 -0.5397
 5147TIP3    H236857   1.417   5.766  13.295 -0.5990  0.5440  0.7300
 5148TIP3   OH236858   6.452   2.471   1.761  0.0917  0.5634 -0.0644
 5148TIP3    H136859   6.531   2.524   1.767 -0.6587  1.6735  0.0623
 5148TIP3    H236860   6.405   2.490   1.842 -1.2862  1.4949 -1.0690
 5149TIP3   OH236861   2.108   3.680  13.502 -0.0075  1.0498 -0.5273
 5149TIP3    H136862   2.181   3.726  13.544  1.8308  0.3431 -2.8655
 5149TIP3    H236863   2.122   3.692  13.408 -0.7278 -2.3273 -1.1435
 5150TIP3   OH236864   2.008   2.138  11.846  0.2698  0.3612 -0.2669
 5150TIP3    H136865   1.964   2.177  11.771  1.6821 -0.5820 -1.6213
 5150TIP3    H236866   1.950   2.067  11.873 -1.0480  1.7421  0.5948
 5151TIP3   OH236867   2.987   2.370   1.247 -0.0510  0.0926  0.9584
 5151TIP3    H136868   3.037   2.320   1.312  1.7859  1.7531  0.8560
 5151TIP3    H236869   2.991   2.460   1.277  1.3027  0.9790 -1.7095
 5152TIP3   OH236870   4.195   6.580   1.864  0.0298 -0.7793 -0.2771
 5152TIP3    H136871   4.248   6.502   1.847  0.3567 -0.2644 -1.6873
 5152TIP3    H236872   4.255   6.641   1.907  0.9190  0.2046 -2.8272
 5153TIP3   OH236873   5.684   3.088  16.015 -0.1930 -0.4415  0.3947
 5153TIP3    H136874   5.759   3.032  15.992  0.0235  0.3750 -0.9425
 5153TIP3    H236875   5.706   3.123  16.101  1.5211  0.6773 -0.4671
 5154TIP3   OH236876   0.185   1.313  15.918 -0.4111  0.7458  0.4672
 5154TIP3    H136877   0.230   1.396  15.904  1.3718 -0.1748  0.6450
 5154TIP3    H236878   0.252   1.246  15.905 -1.7245 -0.6581  0.7252
 5155TIP3   OH236879   0.404   5.508   3.447 -0.1830 -0.2412 -0.3983
 5155TIP3    H136880   0.337   5.469   3.503 -0.2479 -0.6228 -0.7462
 5155TIP3    H236881   0.370   5.596   3.428 -0.3507 -0.2547 -0.1754
 5156TIP3   OH236882   1.662   0.642   1.505  0.1249 -0.2710 -0.7464
 5156TIP3    H136883   1.607   0.588   1.561  0.4174 -0.6884 -0.8622
 5156TIP3    H236884   1.613   0.649   1.423  0.0113 -0.2247 -0.6744
 5157TIP3   OH236885   4.367   3.030   4.446 -0.4206 -0.2512  0.0010
 5157TIP3    H136886   4.284   3.038   4.494  0.3957 -0.5990  1.5102
 5157TIP3    H236887   4.413   2.959   4.491 -0.0006 -1.1930 -1.8743
 5158TIP3   OH236888   5.304   0.552   4.647 -0.2800  0.1094 -0.7470
 5158TIP3    H136889   5.335   0.473   4.691  1.6201  0.5260 -1.2998
 5158TIP3    H236890   5.373   0.617   4.663 -2.6656  2.2535  1.3110
 5159TIP3   OH236891   2.417   4.969  16.092 -0.3518 -0.5670 -0.3330
 5159TIP3    H136892   2.469   5.012  16.024 -1.1181 -1.2885 -1.3895
 5159TIP3    H236893   2.335   4.946  16.049 -0.9231 -0.8736  0.8901
 5160TIP3   OH236894   0.674   4.826  14.593  0.0123  0.2361 -0.0823
 5160TIP3    H136895   0.595   4.827  14.647 -0.5307 -1.3230 -0.8312
 5160TIP3    H236896   0.648   4.867  14.511  0.4485  1.2700  0.2846
 5161TIP3   OH236897   2.834   2.425  16.110 -0.0315  0.9502  0.3748
 5161TIP3    H136898   2.842   2.413  16.205 -1.1605  2.1730  0.6527
 5161TIP3    H236899   2.924   2.420  16.077  0.1577 -1.7733  1.1954
 5162TIP3   OH236900   5.460   3.207   3.122  0.0575 -0.3030 -0.0770
 5162TIP3    H136901   5.535   3.161   3.159  0.5837 -0.0410 -0.7962
 5162TIP3    H236902   5.499   3.277   3.068 -0.7130  0.3664  0.2293
 5163TIP3   OH236903   1.150   3.675  15.815 -0.2561 -0.1887 -0.0166
 5163TIP3    H136904   1.220   3.631  15.767  0.4124 -1.4963  2.1022
 5163TIP3    H236905   1.097   3.604  15.852 -0.5237  0.7589  1.4916
 5164TIP3   OH236906   1.376   2.269   2.502 -0.2049  0.7647  0.3716
 5164TIP3    H136907   1.383   2.175   2.514  1.5062  0.8348 -0.0610
 5164TIP3    H236908   1.325   2.299   2.578 -0.2653 -0.4201  0.8108
 5165TIP3   OH236909   4.315   0.538  12.371  0.4639  0.7781 -0.1223
 5165TIP3    H136910   4.305   0.524  12.277  0.6661 -1.8663  0.2029
 5165TIP3    H236911   4.363   0.461  12.401 -0.0238  1.3677  2.2231
 5166TIP3   OH236912   3.496   5.007   1.103 -0.4187 -0.1220  0.2075
 5166TIP3    H136913   3.485   4.921   1.143 -0.8435 -0.7638 -1.2513
 5166TIP3    H236914   3.474   4.994   1.011  2.2673  0.9189 -0.6441
 5167TIP3   OH236915   0.457   6.045  14.879  0.2165  0.5035 -0.5332
 5167TIP3    H136916   0.373   6.086  14.902  0.7137  1.7134 -0.8209
 5167TIP3    H236917   0.523   6.103  14.918  0.9493  0.2586 -1.3852
 5168TIP3   OH236918   3.005   1.349   6.431 -0.0099  0.5831  0.3573
 5168TIP3    H136919   3.023   1.255   6.431  2.7638  1.0524 -1.6851
 5168TIP3    H236920   2.913   1.356   6.407 -0.0144 -1.5674 -0.3222
 5169TIP3   OH236921   1.083   6.550   3.246  0.7299 -0.3402 -0.0550
 5169TIP3    H136922   1.052   6.639   3.231 -1.6064 -0.9493  0.9118
 5169TIP3    H236923   1.167   6.561   3.292  1.9981  1.3423 -2.6408
 5170TIP3   OH236924   3.132   2.544  16.804  0.0815  0.1386 -0.0627
 5170TIP3    H136925   3.136   2.578  16.893  0.6619 -2.7259  1.0625
 5170TIP3    H236926   3.217   2.565  16.766  0.4060  0.0011  0.5836
 5171TIP3   OH236927   2.517   3.101   2.025  0.0387  0.3887  0.2047
 5171TIP3    H136928   2.448   3.133   2.083  0.1580  0.4466  0.3137
 5171TIP3    H236929   2.501   3.146   1.942  1.2594  2.0873  0.8591
 5172TIP3   OH236930   3.476   3.670  13.192  0.0632  0.7094 -0.0962
 5172TIP3    H136931   3.471   3.592  13.137 -0.6510  1.4268 -1.0447
 5172TIP3    H236932   3.462   3.637  13.281  0.6441 -0.3650 -0.3933
 5173TIP3   OH236933   4.102   2.519  12.277  0.3980 -0.0010  0.1105
 5173TIP3    H136934   4.100   2.475  12.193 -0.5153 -0.7331  0.4997
 5173TIP3    H236935   4.042   2.593  12.267 -0.9174 -0.9737  0.5705
 5174TIP3   OH236936   3.211   2.085   0.446 -0.0662 -0.2826  0.6131
 5174TIP3    H136937   3.189   2.023   0.377  3.2738  0.3564 -1.1197
 5174TIP3    H236938   3.186   2.170   0.411 -0.1012 -0.1344  0.9920
 5175TIP3   OH236939   1.410   5.166  16.396  0.6010 -0.4986 -0.3571
 5175TIP3    H136940   1.481   5.162  16.332  0.0700 -0.1148 -0.9785
 5175TIP3    H236941   1.413   5.256  16.428  1.6463 -1.0234  1.0693
 5176TIP3   OH236942   0.041   3.645   3.180  0.3865  0.2960 -0.5079
 5176TIP3    H136943   0.109   3.579   3.169 -0.6969 -0.8803 -0.3006
 5176TIP3    H236944  -0.021   3.606   3.241 -0.0913  1.6561 -0.0987
 5177TIP3   OH236945   0.976   4.281  14.421  0.5568 -1.2041 -0.0147
 5177TIP3    H136946   0.910   4.212  14.410  1.2098 -1.7931 -0.3078
 5177TIP3    H236947   1.050   4.236  14.463 -0.4339  0.1397  3.2707
 5178TIP3   OH236948   3.981   4.453  12.959 -0.3592  0.7637  0.4202
 5178TIP3    H136949   4.049   4.404  12.911 -1.6828  1.8061 -2.6697
 5178TIP3    H236950   3.916   4.388  12.983  1.1639 -0.0585  2.3907
 5179TIP3   OH236951   3.032   2.088  15.822 -0.3935  0.7234 -0.0946
 5179TIP3    H136952   2.997   2.015  15.771  1.0091  0.2287 -0.3624
 5179TIP3    H236953   2.967   2.102  15.891  0.0524 -1.8215  0.9041
 5180TIP3   OH236954   5.281   4.672   2.724  0.3292  0.6177 -0.1955
 5180TIP3    H136955   5.353   4.728   2.753 -0.8450  2.2235 -0.3358
 5180TIP3    H236956   5.206   4.699   2.777 -0.3680 -0.5166 -0.5865
 5181TIP3   OH236957   4.554   1.734  13.422  0.5368  0.6575 -0.0905
 5181TIP3    H136958   4.513   1.663  13.372  0.4109 -0.4762  1.5622
 5181TIP3    H236959   4.535   1.813  13.372  0.2528 -0.4089 -1.7193
 5182TIP3   OH236960   4.821   6.484   6.420  0.3490 -0.1634  0.4995
 5182TIP3    H136961   4.734   6.461   6.452  0.5342 -1.7064 -0.1010
 5182TIP3    H236962   4.862   6.401   6.396  1.2273  0.7151 -1.1780
 5183TIP3   OH236963   2.209   3.896  16.998 -0.1489 -0.3030  0.6007
 5183TIP3    H136964   2.185   3.840  16.924  0.7317  0.3619 -0.2116
 5183TIP3    H236965   2.229   3.981  16.958 -0.6244  0.3460  1.7170
 5184TIP3   OH236966   0.058   3.926  16.400  0.5601 -0.6389 -0.3121
 5184TIP3    H136967   0.099   4.003  16.439 -0.0913 -1.2959  1.7213
 5184TIP3    H236968  -0.031   3.927  16.435 -0.2244 -0.9332 -2.2538
 5185TIP3   OH236969   3.062   5.394   0.235  0.1865  0.0522  0.0620
 5185TIP3    H136970   3.087   5.337   0.162  0.7426  0.3643  0.0042
 5185TIP3    H236971   3.136   5.386   0.297  1.1771  2.2044 -0.8049
 5186TIP3   OH236972   6.208   6.488   3.126 -0.0145 -0.4340  0.3519
 5186TIP3    H136973   6.195   6.396   3.151  0.1715 -0.8393 -0.9988
 5186TIP3    H236974   6.225   6.485   3.032  0.2498  0.9690  0.3444
 5187TIP3   OH236975   0.594   2.800  16.781 -0.1928  0.4676  0.2303
 5187TIP3    H136976   0.534   2.727  16.768 -0.6791  0.7456  0.9105
 5187TIP3    H236977   0.681   2.761  16.772 -0.4577 -0.0161 -0.3149
 5188TIP3   OH236978   0.993   3.163  13.722  0.3247 -0.0797  0.6532
 5188TIP3    H136979   1.045   3.102  13.774 -0.3903 -0.3519  1.0594
 5188TIP3    H236980   1.027   3.153  13.633  0.5062 -0.7553  0.7919
 5189TIP3   OH236981   0.091   5.179   3.446  0.3330 -0.1119 -0.5260
 5189TIP3    H136982   0.142   5.228   3.381  1.4776  1.4077  1.4932
 5189TIP3    H236983   0.119   5.088   3.435  3.7760  0.7436  0.8055
 5190TIP3   OH236984   0.563   6.439  12.754 -0.3068  0.1224  0.5493
 5190TIP3    H136985   0.586   6.347  12.739  0.5020  0.3161  0.5384
 5190TIP3    H236986   0.577   6.453  12.848  0.5374  0.4823  0.3809
 5191TIP3   OH236987   1.693   2.385  12.190 -0.4813 -0.0228  1.1195
 5191TIP3    H136988   1.641   2.463  12.175  1.1822  0.6525 -1.5061
 5191TIP3    H236989   1.673   2.328  12.116  2.1151  0.0895  0.2484
 5192TIP3   OH236990   5.510   3.405   3.794 -0.5878 -0.1485 -0.4515
 5192TIP3    H136991   5.601   3.378   3.792 -0.2742  0.6683  1.6930
 5192TIP3    H236992   5.491   3.421   3.887 -2.8065  0.0183 -0.8910
 5193TIP3   OH236993   2.403   4.350  11.706  0.4099 -0.5983  0.0596
 5193TIP3    H136994   2.491   4.373  11.676 -0.3757  2.2400 -0.1092
 5193TIP3    H236995   2.381   4.271  11.656  1.9948 -0.0802 -1.5121
 5194TIP3   OH236996   4.506   3.196   5.862  0.3693  0.7444  0.4788
 5194TIP3    H136997   4.503   3.109   5.902 -0.8011 -0.4135 -2.0526
 5194TIP3    H236998   4.598   3.222   5.871  1.1580 -1.5655 -0.3964
 5195TIP3   OH236999   4.600   6.759  16.881 -0.9136  0.0702  0.3480
 5195TIP3    H137000   4.640   6.844  16.897  0.9833 -0.8353  0.5779
 5195TIP3    H237001   4.517   6.779  16.838  1.6537  1.9005 -4.1592
 5196TIP3   OH237002   3.161   3.218  11.772 -0.3940  0.2042 -0.4429
 5196TIP3    H137003   3.151   3.151  11.704 -1.1340 -0.2717  0.1365
 5196TIP3    H237004   3.207   3.174  11.843 -0.5131  0.4348 -0.2231
 5197TIP3   OH237005   1.898   2.926  14.390  0.4716 -0.5680  0.0632
 5197TIP3    H137006   1.947   2.986  14.334  0.5299 -1.4886 -0.8735
 5197TIP3    H237007   1.923   2.839  14.360  0.4354 -1.0672  1.4616
 5198TIP3   OH237008   4.061   6.308  12.471  0.1108  0.0961  0.3265
 5198TIP3    H137009   4.154   6.309  12.447 -0.3261 -0.5551 -1.3879
 5198TIP3    H237010   4.059   6.355  12.554  1.8652  0.9023 -0.0480
 5199TIP3   OH237011   1.288   6.412   1.429 -0.1206 -0.1240 -0.4215
 5199TIP3    H137012   1.272   6.465   1.507  0.8258  0.6229 -0.7242
 5199TIP3    H237013   1.201   6.396   1.393 -0.4885  0.3889  0.2215
 5200TIP3   OH237014   1.688   0.313  14.940 -0.4171  0.9047  0.1899
 5200TIP3    H137015   1.697   0.267  14.856  1.0516  1.2069  0.1590
 5200TIP3    H237016   1.625   0.261  14.990 -0.0713 -0.1827 -0.4919
 5201TIP3   OH237017   4.944   3.202   1.446  0.2986  0.1607  0.2346
 5201TIP3    H137018   4.880   3.272   1.434 -1.1431 -1.3387 -1.0113
 5201TIP3    H237019   4.969   3.208   1.538 -0.5316  1.7057  0.3739
 5202TIP3   OH237020   0.244   2.194  13.790 -0.7763  0.2565  0.0549
 5202TIP3    H137021   0.186   2.200  13.714 -2.5527  0.8012  1.4241
 5202TIP3    H237022   0.193   2.228  13.863  0.6673 -0.8477  1.6438
 5203TIP3   OH237023   3.600   4.070   0.507 -0.0562  0.2106  0.3040
 5203TIP3    H137024   3.519   4.113   0.478  0.2468  0.7971  0.3168
 5203TIP3    H237025   3.640   4.038   0.426  1.2186  2.6020 -0.0586
 5204TIP3   OH237026   6.000   5.032   1.734  0.3787 -0.0836  0.2183
 5204TIP3    H137027   6.041   4.959   1.781 -0.4632 -0.2561  0.6949
 5204TIP3    H237028   5.919   4.995   1.698  0.4725  0.3378 -0.4406
 5205TIP3   OH237029   4.642   0.362  10.169 -0.0619 -0.3852 -0.6507
 5205TIP3    H137030   4.625   0.333  10.259  0.6362 -2.4541 -1.1675
 5205TIP3    H237031   4.684   0.447  10.180  0.0519 -0.6258  0.9940
 5206TIP3   OH237032   2.619   6.072   4.640 -0.5126 -0.0146 -0.7160
 5206TIP3    H137033   2.670   6.130   4.584  0.7771  1.6955  2.1053
 5206TIP3    H237034   2.683   6.009   4.674 -1.2219 -0.8547 -0.9198
 5207TIP3   OH237035   3.276   3.149   3.233 -0.0480 -0.6092  0.3626
 5207TIP3    H137036   3.281   3.063   3.190  1.1548  1.2224 -3.3907
 5207TIP3    H237037   3.366   3.182   3.231 -0.2835  0.2674  2.8643
 5208TIP3   OH237038   2.824   0.252  16.073 -0.8936  0.4106  0.0530
 5208TIP3    H137039   2.762   0.188  16.107 -1.1219  0.9897  0.7234
 5208TIP3    H237040   2.795   0.336  16.110 -1.8909  1.2529 -2.5017
 5209TIP3   OH237041   2.399   0.925   5.603  0.6394 -0.1581  0.6950
 5209TIP3    H137042   2.439   0.934   5.516  3.5604  0.6185  2.0726
 5209TIP3    H237043   2.414   1.010   5.645 -0.6070 -0.5834  2.0536
 5210TIP3   OH237044   6.110   6.600  12.589 -0.2579 -0.1411 -0.1787
 5210TIP3    H137045   6.039   6.665  12.588  0.6642  0.8749 -1.2622
 5210TIP3    H237046   6.168   6.629  12.659  0.2951  0.3751 -0.8426
 5211TIP3   OH237047   1.295   6.108  12.252  0.6262 -0.3429 -0.6609
 5211TIP3    H137048   1.324   6.082  12.165  0.6511 -2.9520  0.1040
 5211TIP3    H237049   1.202   6.128  12.241  0.8992  0.5155 -1.5076
 5212TIP3   OH237050   3.003   6.147   2.199  0.0564 -0.2689 -0.1244
 5212TIP3    H137051   2.973   6.236   2.220  1.5146  0.2900 -0.3390
 5212TIP3    H237052   2.954   6.123   2.121 -0.1052  0.4823 -0.2577
 5213TIP3   OH237053   0.599   1.531  11.831 -0.0052  0.3743  0.2648
 5213TIP3    H137054   0.521   1.493  11.873  0.1990 -2.1579 -1.5497
 5213TIP3    H237055   0.579   1.625  11.826 -1.0158  0.4174  3.8358
 5214TIP3   OH237056   2.106   4.943  14.372  0.2381 -0.0299  0.6924
 5214TIP3    H137057   2.071   4.996  14.300  0.1179 -0.3530  0.5131
 5214TIP3    H237058   2.041   4.954  14.442 -2.6220 -4.1692 -1.0969
 5215TIP3   OH237059   0.134   4.402   0.428  0.4623 -0.2296 -0.0511
 5215TIP3    H137060   0.039   4.395   0.422  0.3119 -1.4390  3.2157
 5215TIP3    H237061   0.163   4.405   0.337 -2.5950 -1.1001 -1.1099
 5216TIP3   OH237062   2.088   2.119  14.730 -0.6167  0.1297  0.1035
 5216TIP3    H137063   2.088   2.119  14.634 -0.7053  0.8396  0.1022
 5216TIP3    H237064   2.100   2.027  14.754 -3.6725 -0.4992 -0.5934
 5217TIP3   OH237065   5.574   0.686   3.142  0.7674 -0.4036  0.4102
 5217TIP3    H137066   5.634   0.750   3.179 -0.6925  0.8975  0.5897
 5217TIP3    H237067   5.631   0.619   3.104  2.3000 -0.1859  2.2405
 5218TIP3   OH237068   2.653   3.161   2.468 -0.0339 -0.0891 -0.1399
 5218TIP3    H137069   2.719   3.110   2.516  1.5452  2.4142  0.4099
 5218TIP3    H237070   2.607   3.096   2.414  3.0933 -1.8354 -0.7864
 5219TIP3   OH237071   3.263   6.116  16.664  0.2955 -0.0291  0.0309
 5219TIP3    H137072   3.349   6.102  16.702  0.3507  0.3032  0.0366
 5219TIP3    H237073   3.276   6.190  16.603  0.0606 -0.1065 -0.1148
 5220TIP3   OH237074   5.165   6.229  12.002 -0.1640 -0.1856 -0.2421
 5220TIP3    H137075   5.196   6.317  12.025  0.8191 -0.8123  0.9309
 5220TIP3    H237076   5.242   6.187  11.962  0.1632 -1.3476  1.5560
 5221TIP3   OH237077   1.611   5.597  15.881 -0.1044 -0.1691 -0.0796
 5221TIP3    H137078   1.529   5.607  15.834 -0.6735 -1.7094  0.5460
 5221TIP3    H237079   1.614   5.672  15.941 -1.5996 -0.6893  0.6734
 5222TIP3   OH237080   6.348   6.568   1.926 -0.0713  0.4133  0.1956
 5222TIP3    H137081   6.279   6.628   1.956 -1.2166  0.6913 -2.7851
 5222TIP3    H237082   6.395   6.618   1.859  0.3516 -1.2608 -0.7726
 5223TIP3   OH237083   5.660   1.240   1.459  0.0519 -0.0339  0.3473
 5223TIP3    H137084   5.651   1.332   1.481  0.7480  0.3205 -0.8037
 5223TIP3    H237085   5.585   1.220   1.404 -1.0107 -0.6016  1.9563
 5224TIP3   OH237086   4.249   3.269   0.922 -0.4754 -0.0252 -0.3781
 5224TIP3    H137087   4.164   3.236   0.954 -0.3185  0.9748  1.1150
 5224TIP3    H237088   4.285   3.317   0.996  1.7569 -1.0643 -0.7555
 5225TIP3   OH237089   2.591   4.344  10.820 -0.6352 -0.4188 -0.0810
 5225TIP3    H137090   2.683   4.318  10.817 -1.1599 -2.3423  0.0812
 5225TIP3    H237091   2.551   4.300  10.745 -1.1428  1.5843 -1.0146
 5226TIP3   OH237092   2.111   0.250  12.154 -0.3064  0.1948  0.5050
 5226TIP3    H137093   2.140   0.174  12.103 -1.4725  0.4693 -0.5922
 5226TIP3    H237094   2.146   0.235  12.241  0.2688 -1.1441  0.0542
 5227TIP3   OH237095   5.809   0.335   1.056  0.1215  0.3153  0.0055
 5227TIP3    H137096   5.870   0.409   1.061  0.1119  0.3289 -0.0867
 5227TIP3    H237097   5.729   0.368   1.096  1.0335 -0.5836  2.7340
 5228TIP3   OH237098   6.732   1.898  13.273  0.5793  0.6175  0.2770
 5228TIP3    H137099   6.721   1.834  13.344 -1.4028  0.1611 -0.3900
 5228TIP3    H237100   6.747   1.845  13.195 -2.4950  0.8310 -0.5372
 5229TIP3   OH237101   6.113   4.368  16.391  0.2486 -0.0008  0.7018
 5229TIP3    H137102   6.021   4.383  16.411 -0.1699 -0.3868 -0.8698
 5229TIP3    H237103   6.120   4.273  16.382  0.6149  0.0966 -0.0519
 5230TIP3   OH237104   1.849   6.674  12.534  0.0789 -0.8705  0.3571
 5230TIP3    H137105   1.816   6.586  12.514  1.6965 -0.7825 -3.0332
 5230TIP3    H237106   1.938   6.659  12.565 -0.0317 -0.4937  0.8598
 5231TIP3   OH237107   4.829   0.383  16.984  0.0981 -0.1113  0.2873
 5231TIP3    H137108   4.805   0.475  16.973 -0.1957 -0.4768 -2.5087
 5231TIP3    H237109   4.921   0.385  17.012  0.0374  1.0138  0.4055
 5232TIP3   OH237110   0.950   2.402   0.369  0.0795 -0.0953 -0.1709
 5232TIP3    H137111   0.967   2.471   0.433 -0.1772 -0.1636 -0.0296
 5232TIP3    H237112   1.036   2.362   0.355  0.0453 -0.4403  0.5475
 5233TIP3   OH237113   4.465   6.737   0.136  0.2103 -0.1797 -0.4681
 5233TIP3    H137114   4.491   6.828   0.126  0.2966 -0.0835  0.5274
 5233TIP3    H237115   4.431   6.732   0.226  1.8825 -1.5164  0.1244
 5234TIP3   OH237116   2.334   0.122  15.317 -0.0514 -0.2846  0.3821
 5234TIP3    H137117   2.294   0.204  15.290 -0.4246 -0.6733 -0.2462
 5234TIP3    H237118   2.398   0.102  15.249 -0.0798 -0.5970  0.4441
 5235TIP3   OH237119   5.614   2.704  16.554 -0.3773  0.6585  0.3819
 5235TIP3    H137120   5.631   2.630  16.496  0.8272  0.7158  0.6495
 5235TIP3    H237121   5.536   2.678  16.603 -1.2373  0.4944 -1.0548
 5236TIP3   OH237122   1.341   2.043  16.238  0.2710 -0.0203 -0.1167
 5236TIP3    H137123   1.433   2.033  16.214 -0.1810  0.0771 -1.9563
 5236TIP3    H237124   1.331   1.994  16.320  1.2336 -2.7450 -1.5766
 5237TIP3   OH237125   1.868   2.511  12.796 -0.1503  0.3573  0.3163
 5237TIP3    H137126   1.811   2.480  12.866  0.2456  0.4728  0.6855
 5237TIP3    H237127   1.812   2.567  12.742 -1.0393 -1.4635 -0.6887
 5238TIP3   OH237128   1.123   1.564   1.784  0.6686 -0.2416  0.2386
 5238TIP3    H137129   1.146   1.496   1.848 -0.3051  0.4404  1.3427
 5238TIP3    H237130   1.160   1.533   1.702 -3.0193 -4.0475 -0.1651
 5239TIP3   OH237131   6.379   6.711  15.326 -0.4445  0.2102 -0.6430
 5239TIP3    H137132   6.439   6.645  15.361 -1.0685  0.2942  0.6109
 5239TIP3    H237133   6.419   6.795  15.348  0.2496  0.2798 -2.0643
 5240TIP3   OH237134   6.551   0.484   2.560 -0.5704  0.3834 -0.0893
 5240TIP3    H137135   6.457   0.491   2.545 -0.2103  2.3385 -1.5339
 5240TIP3    H237136   6.565   0.391   2.581 -2.7550  0.0106 -0.1934
 5241TIP3   OH237137   1.231   5.743   4.077  0.6663 -0.2962  0.0989
 5241TIP3    H137138   1.319   5.707   4.075  0.3842 -0.9261 -1.4053
 5241TIP3    H237139   1.191   5.716   3.994  0.2506  2.9315 -0.8536
 5242TIP3   OH237140   4.699   2.391   3.437  0.0869 -0.8286  0.6987
 5242TIP3    H137141   4.714   2.476   3.395 -3.4653  0.0565  1.0384
 5242TIP3    H237142   4.687   2.412   3.530 -0.0039 -1.7958  0.9105
 5243TIP3   OH237143   2.055   3.467   2.951 -0.5387  1.0598 -0.5180
 5243TIP3    H137144   2.031   3.380   2.985 -0.9834  0.9394 -1.1480
 5243TIP3    H237145   2.038   3.526   3.024 -0.5605  0.6700 -0.1997
 5244TIP3   OH237146   6.608   2.248  11.727 -0.0497 -0.3521 -0.4353
 5244TIP3    H137147   6.624   2.192  11.651 -1.7124 -2.0906  0.4518
 5244TIP3    H237148   6.560   2.323  11.692  1.5365  0.1701 -1.5208
 5245TIP3   OH237149   3.433   0.386   1.209  0.0604  0.0225  0.0015
 5245TIP3    H137150   3.409   0.472   1.175 -0.7623  0.1971  0.9860
 5245TIP3    H237151   3.367   0.367   1.275  0.0038 -1.5435 -0.4753
 5246TIP3   OH237152   2.588   1.157  13.218  0.8238 -0.3661  0.0972
 5246TIP3    H137153   2.653   1.096  13.183 -1.4433 -2.1399 -1.1632
 5246TIP3    H237154   2.507   1.106  13.222 -0.9701  2.3657 -0.2698
 5247TIP3   OH237155   0.517   3.534  16.334 -0.0077 -0.0489 -0.4532
 5247TIP3    H137156   0.512   3.594  16.260  1.6087 -1.0454 -1.3976
 5247TIP3    H237157   0.529   3.447  16.295  0.9152 -0.5878  0.9457
 5248TIP3   OH237158   5.292   1.823  17.040  0.9119  0.2835  0.4652
 5248TIP3    H137159   5.213   1.859  17.082  1.2968  0.5513  0.9619
 5248TIP3    H237160   5.268   1.733  17.018  0.3839  0.4384  0.3988
 5249TIP3   OH237161   5.344   0.837  12.331 -0.1169  0.2256 -0.4988
 5249TIP3    H137162   5.285   0.910  12.310 -0.5898  0.3082  1.0451
 5249TIP3    H237163   5.413   0.842  12.265 -0.2620  1.9337 -0.5350
 5250TIP3   OH237164   4.739   1.042   2.921 -0.0838  0.5339  0.2028
 5250TIP3    H137165   4.754   1.102   2.848 -0.4382  1.4023  0.8324
 5250TIP3    H237166   4.695   1.095   2.987 -2.0117 -0.8862  0.0872
 5251TIP3   OH237167   1.567   3.311   0.875 -0.7830 -0.6304 -0.1261
 5251TIP3    H137168   1.650   3.276   0.844 -0.9456 -1.5398  0.4470
 5251TIP3    H237169   1.592   3.380   0.937 -0.4392 -1.8194  1.0798
 5252TIP3   OH237170   0.244   3.916   4.846 -0.6623  0.0915  0.1272
 5252TIP3    H137171   0.256   3.821   4.846 -1.8857 -0.0871 -1.1253
 5252TIP3    H237172   0.327   3.951   4.813 -0.0206 -0.5061  1.0845
 5253TIP3   OH237173   1.478   4.511   0.791  0.6675  0.0718  0.1837
 5253TIP3    H137174   1.408   4.543   0.733 -0.1439 -2.7303 -0.4260
 5253TIP3    H237175   1.558   4.546   0.752  0.0109 -0.5479 -1.7893
 5254TIP3   OH237176   5.928   2.271   3.962 -0.0408 -0.1008  0.1512
 5254TIP3    H137177   5.928   2.354   4.010 -1.9667  0.0593 -0.1122
 5254TIP3    H237178   5.898   2.294   3.874  0.3113 -0.9404 -0.1920
 5255TIP3   OH237179   5.718   1.211   6.181 -0.5518 -0.3487 -0.0066
 5255TIP3    H137180   5.681   1.293   6.213 -1.8687 -1.0325  0.2314
 5255TIP3    H237181   5.645   1.149   6.182  0.0770 -1.1552 -1.5316
 5256TIP3   OH237182   2.159   0.248  16.374  0.9362  0.7075 -0.2455
 5256TIP3    H137183   2.213   0.321  16.405 -0.7124  2.0916 -0.5404
 5256TIP3    H237184   2.073   0.287  16.358  0.0308 -1.3039 -0.4589
 5257TIP3   OH237185   3.698   1.184   1.836 -0.1417  0.1990 -0.6216
 5257TIP3    H137186   3.710   1.279   1.834 -1.8548  0.5003  1.4967
 5257TIP3    H237187   3.633   1.166   1.767  1.1389  0.3799 -1.8988
 5258TIP3   OH237188   5.453   4.935  13.478 -0.0138 -0.4260  0.1030
 5258TIP3    H137189   5.357   4.935  13.472 -0.0869  1.7966  0.7258
 5258TIP3    H237190   5.482   4.878  13.407 -1.7686 -0.3100 -0.7226
 5259TIP3   OH237191   2.452   6.712  11.888  0.6180 -0.0395 -0.1745
 5259TIP3    H137192   2.479   6.761  11.810 -1.2717  0.0930 -0.7570
 5259TIP3    H237193   2.408   6.634  11.854 -3.7285  1.9298  0.6982
 5260TIP3   OH237194   2.310   0.231  13.269 -0.5147 -0.7488 -0.3761
 5260TIP3    H137195   2.225   0.221  13.311  0.8939 -2.7342  2.2244
 5260TIP3    H237196   2.313   0.163  13.202 -1.6897  0.5829 -1.7996
 5261TIP3   OH237197   5.387   4.237   4.887 -0.1129 -0.3187  0.0723
 5261TIP3    H137198   5.451   4.175   4.921 -0.1743  0.2915  1.3386
 5261TIP3    H237199   5.314   4.233   4.948  0.2666  1.6475  0.6846
 5262TIP3   OH237200   4.624   1.097   3.893  0.3711 -0.0642  0.2233
 5262TIP3    H137201   4.615   1.181   3.849 -1.4073 -0.6112 -0.4809
 5262TIP3    H237202   4.665   1.040   3.828  2.3921  0.4585  0.9907
 5263TIP3   OH237203   2.550   3.585  15.457  0.5860 -0.2366  0.2079
 5263TIP3    H137204   2.529   3.674  15.481 -1.4555 -0.3410 -1.0788
 5263TIP3    H237205   2.556   3.538  15.540 -0.7800  0.5741  0.7808
 5264TIP3   OH237206   4.938   2.882  16.788  0.4174  0.7990 -0.0608
 5264TIP3    H137207   4.856   2.846  16.821 -0.4361  2.0151 -0.7702
 5264TIP3    H237208   5.006   2.836  16.835 -0.7064  0.4705  1.2677
 5265TIP3   OH237209   1.714   1.052   1.072  0.1430 -0.0018  0.3411
 5265TIP3    H137210   1.808   1.036   1.084  0.4034 -1.4418 -3.1356
 5265TIP3    H237211   1.691   1.004   0.993 -3.4075  0.9464  0.7002
 5266TIP3   OH237212   5.223   1.340  15.337  0.4392  0.5502 -0.4141
 5266TIP3    H137213   5.153   1.391  15.298  0.7990  1.2460 -0.1627
 5266TIP3    H237214   5.218   1.255  15.294 -0.1820  0.7842 -0.8115
 5267TIP3   OH237215   6.276   0.087  10.758  0.3752 -0.2773  0.3542
 5267TIP3    H137216   6.281   0.061  10.850  1.5613 -0.1977  0.3263
 5267TIP3    H237217   6.188   0.123  10.747 -0.0154 -0.9574  1.2767
 5268TIP3   OH237218   4.839   1.502   2.393  0.1441 -0.5822  0.1968
 5268TIP3    H137219   4.806   1.446   2.463 -0.1385  0.4372  0.8821
 5268TIP3    H237220   4.774   1.493   2.323  0.3563 -1.4947  0.1106
 5269TIP3   OH237221   3.776   4.678   5.398  0.5935 -0.2131  0.2453
 5269TIP3    H137222   3.829   4.673   5.319 -0.5500  0.3257 -0.5587
 5269TIP3    H237223   3.772   4.771   5.419 -1.9357 -0.0222 -1.0031
 5270TIP3   OH237224   1.958   1.017   3.197 -0.1167  0.4910  0.2653
 5270TIP3    H137225   1.978   1.036   3.288 -1.7663 -0.5593  0.8659
 5270TIP3    H237226   1.972   0.923   3.189  0.8033  0.7037 -0.7858
 5271TIP3   OH237227   3.087   0.549  12.236  0.2736  0.1163  0.6128
 5271TIP3    H137228   3.111   0.531  12.327 -2.4224  1.3620  1.6494
 5271TIP3    H237229   3.060   0.464  12.200  1.2162 -0.3557  1.0208
 5272TIP3   OH237230   0.869   2.290   4.301  0.0749  0.1474 -0.0755
 5272TIP3    H137231   0.959   2.321   4.293 -0.8862  2.7681 -1.3031
 5272TIP3    H237232   0.850   2.293   4.395  0.9187  0.5930  0.0841
 5273TIP3   OH237233   6.621   3.781  14.635  0.5700 -0.0542  0.1341
 5273TIP3    H137234   6.611   3.749  14.725  0.0283 -0.8732 -0.2211
 5273TIP3    H237235   6.544   3.750  14.589  0.9880  0.1182 -0.6981
 5274TIP3   OH237236   1.354   0.218  13.549 -0.0526  0.4754  0.0520
 5274TIP3    H137237   1.422   0.166  13.506 -0.9813 -0.1084 -0.7419
 5274TIP3    H237238   1.368   0.202  13.643  0.3176 -0.3830 -0.1436
 5275TIP3   OH237239   1.037   1.401  14.118 -0.5507 -0.9102 -0.0559
 5275TIP3    H137240   1.042   1.493  14.092 -0.6572 -0.3533  1.8470
 5275TIP3    H237241   1.115   1.387  14.171 -1.2034 -1.5762  0.7391
 5276TIP3   OH237242   0.912   5.725  16.333 -0.0104 -0.1982 -0.0379
 5276TIP3    H137243   0.989   5.745  16.280  1.0465 -0.7319  1.2832
 5276TIP3    H237244   0.946   5.707  16.420 -1.7662  0.9521  0.9150
 5277TIP3   OH237245   0.961   3.571  12.967  0.5466 -0.1192 -0.2164
 5277TIP3    H137246   1.053   3.569  12.939  0.5036 -0.0364 -0.3672
 5277TIP3    H237247   0.918   3.505  12.912  0.9402 -1.7576  1.4261
 5278TIP3   OH237248   1.220   6.443  10.598  0.4019  0.4889 -0.8439
 5278TIP3    H137249   1.160   6.377  10.632  1.0723 -0.0410 -0.6804
 5278TIP3    H237250   1.256   6.405  10.518  0.7726  0.6555 -0.7605
 5279TIP3   OH237251   2.483   3.427   5.118 -0.1860 -0.2748  0.3342
 5279TIP3    H137252   2.524   3.512   5.132  0.4858 -0.3791 -0.9369
 5279TIP3    H237253   2.391   3.448   5.100 -0.0322  0.1822  0.0693
 5280TIP3   OH237254   4.102   5.763  11.878  0.4305  0.3794  0.8066
 5280TIP3    H137255   4.151   5.734  11.801  1.8357  3.1271  0.6038
 5280TIP3    H237256   4.086   5.683  11.928  2.1522 -1.0320 -0.8272
 5281TIP3   OH237257   6.162   4.327   2.738  0.6648 -0.0950 -0.2328
 5281TIP3    H137258   6.244   4.352   2.780 -0.5510  2.2509  0.8075
 5281TIP3    H237259   6.093   4.360   2.796 -1.0369  0.4645 -2.4741
 5282TIP3   OH237260   4.394   5.912   3.475 -0.1058 -0.4399 -0.3249
 5282TIP3    H137261   4.378   5.945   3.563 -0.9192  2.1135 -1.4015
 5282TIP3    H237262   4.309   5.881   3.444 -0.1057 -0.0345 -0.7359
 5283TIP3   OH237263   2.690   1.504   2.596  0.6726 -0.1122 -0.0815
 5283TIP3    H137264   2.772   1.553   2.601  0.4853  0.0514  1.6253
 5283TIP3    H237265   2.672   1.497   2.502  2.1995  0.5758 -0.4381
 5284TIP3   OH237266   4.872   4.892   6.271  0.4489  0.2766 -0.0734
 5284TIP3    H137267   4.960   4.895   6.310  0.6330  3.7719 -0.6388
 5284TIP3    H237268   4.833   4.977   6.293 -0.7642  0.9322 -4.4268
 5285TIP3   OH237269   1.457   0.556  13.998  0.1117 -0.0590  0.4518
 5285TIP3    H137270   1.448   0.609  14.077  1.1483  1.2952 -0.3044
 5285TIP3    H237271   1.492   0.617  13.933  1.5835 -1.7364 -0.3713
 5286TIP3   OH237272   4.177   2.815  14.847  0.2312 -0.3689  0.0825
 5286TIP3    H137273   4.186   2.907  14.823 -0.5662 -0.1637  0.5467
 5286TIP3    H237274   4.194   2.767  14.766  0.4772  0.1916 -0.1993
 5287TIP3   OH237275   3.463   2.374   5.433 -0.2363 -0.4118  0.6045
 5287TIP3    H137276   3.393   2.309   5.420 -1.7272  1.1644  0.6290
 5287TIP3    H237277   3.543   2.328   5.406 -1.6993 -1.1848 -2.6472
 5288TIP3   OH237278   3.211   2.923  13.409 -0.0861  1.5276 -0.5644
 5288TIP3    H137279   3.164   3.002  13.381  0.4924  2.7296  1.7630
 5288TIP3    H237280   3.252   2.948  13.492 -0.4613 -1.4660  0.5554
 5289TIP3   OH237281   4.917   5.875  15.628 -0.4037 -0.0230 -0.6282
 5289TIP3    H137282   4.910   5.839  15.716 -0.5767 -2.1745 -1.5009
 5289TIP3    H237283   4.868   5.957  15.632 -3.3963 -1.7696  0.3698
 5290TIP3   OH237284   1.538   5.422   3.127 -0.2650 -0.0214 -0.3774
 5290TIP3    H137285   1.502   5.509   3.113 -0.5181 -0.3014 -1.5264
 5290TIP3    H237286   1.461   5.366   3.138 -0.1441 -0.2850 -0.8300
 5291TIP3   OH237287   1.944   3.502   0.993  0.1819 -0.4619 -0.9729
 5291TIP3    H137288   1.928   3.577   0.936  0.5372 -0.8915 -1.6541
 5291TIP3    H237289   1.909   3.528   1.078 -0.5805  0.1025 -1.4462
 5292TIP3   OH237290   0.411   1.665  16.974 -0.0097 -0.4437  0.0787
 5292TIP3    H137291   0.369   1.608  17.039  0.8947 -1.7862 -0.4930
 5292TIP3    H237292   0.358   1.745  16.975  0.0042 -0.4226  2.4736
 5293TIP3   OH237293   4.524   2.287  11.290 -0.1122 -0.0956  0.0624
 5293TIP3    H137294   4.443   2.259  11.333  0.3044 -0.1196  0.8524
 5293TIP3    H237295   4.517   2.382  11.284  0.8362  0.1535  2.3225
 5294TIP3   OH237296   3.973   2.562   3.771 -0.2255 -0.4639 -0.2008
 5294TIP3    H137297   3.889   2.532   3.738 -0.6105 -0.3512  0.6769
 5294TIP3    H237298   4.009   2.615   3.699 -1.8934  1.3367  0.2543
 5295TIP3   OH237299   0.891   1.596   5.847  0.2617  0.3414  0.3140
 5295TIP3    H137300   0.971   1.562   5.807  0.5310  0.2515  0.9291
 5295TIP3    H237301   0.886   1.553   5.932 -0.4506  0.3347  0.2711
 5296TIP3   OH237302   5.703   4.905   2.954  0.1442 -0.2893 -0.1030
 5296TIP3    H137303   5.739   4.821   2.982  1.2052  0.2369  0.1662
 5296TIP3    H237304   5.707   4.960   3.033 -1.0365 -0.1458 -0.1390
 5297TIP3   OH237305   4.648   5.916   5.514 -0.2152  0.5929  0.0597
 5297TIP3    H137306   4.657   6.008   5.539 -0.2173  0.4912  0.4384
 5297TIP3    H237307   4.736   5.879   5.525 -0.7511 -0.0800  2.4898
 5298TIP3   OH237308   0.916   0.115   4.425  0.1059  0.4214 -0.4354
 5298TIP3    H137309   0.971   0.113   4.503 -0.4350  1.8374 -0.0037
 5298TIP3    H237310   0.869   0.032   4.426 -0.0545  0.5207  0.8798
 5299TIP3   OH237311   1.186   2.083   2.954 -0.3187  0.0253  0.9330
 5299TIP3    H137312   1.252   2.151   2.942  1.7453 -2.3014 -1.4181
 5299TIP3    H237313   1.224   2.023   3.017 -0.5188 -0.9005  0.1847
 5300TIP3   OH237314   5.712   6.241  13.504  0.2873  0.1519  0.0380
 5300TIP3    H137315   5.800   6.276  13.495 -0.2983  1.8796  0.7610
 5300TIP3    H237316   5.658   6.318  13.523 -1.3416 -0.9052 -0.2297
 5301TIP3   OH237317   4.503   4.137   4.533  0.1384 -0.0316 -0.0628
 5301TIP3    H137318   4.536   4.214   4.579 -0.7340  0.0297  0.4786
 5301TIP3    H237319   4.581   4.092   4.501  0.8295 -0.6894  2.4338
 5302TIP3   OH237320   1.281   2.319  14.018  0.1248  0.3164  0.2089
 5302TIP3    H137321   1.303   2.375  14.092 -1.0356  2.2589 -0.8522
 5302TIP3    H237322   1.345   2.341  13.950 -1.4647  1.7736 -0.8640
 5303TIP3   OH237323   0.903   3.092  15.846 -0.3001 -0.1315 -0.7092
 5303TIP3    H137324   0.856   3.009  15.846  0.3483 -0.5038 -1.4481
 5303TIP3    H237325   0.993   3.068  15.869 -0.3797  0.5210  0.2991
 5304TIP3   OH237326   6.560   0.641  10.689  0.3380 -0.6779  0.9724
 5304TIP3    H137327   6.599   0.594  10.615 -1.7995 -0.5214 -0.3026
 5304TIP3    H237328   6.538   0.572  10.752 -1.2405 -1.2334 -0.1621
 5305TIP3   OH237329   5.166   3.203  15.077  0.5400  0.1333 -0.4829
 5305TIP3    H137330   5.190   3.249  15.157  1.9129 -0.4548 -0.5504
 5305TIP3    H237331   5.149   3.113  15.106  0.7766 -0.0158 -0.8132
 5306TIP3   OH237332   5.949   3.792   5.010 -0.0907 -0.0931  0.4953
 5306TIP3    H137333   5.995   3.813   5.091  0.7361  1.7713 -0.4339
 5306TIP3    H237334   5.970   3.864   4.950 -2.3199 -0.3867 -0.7244
 5307TIP3   OH237335   2.230   0.858   0.866 -0.6769  0.8481 -0.0061
 5307TIP3    H137336   2.187   0.869   0.781 -2.3066 -0.8182  0.5735
 5307TIP3    H237337   2.289   0.933   0.873 -1.5484  1.7532 -1.9828
 5308TIP3   OH237338   3.734   1.143   0.968  0.1681 -0.6421  0.5559
 5308TIP3    H137339   3.693   1.205   1.028  0.8135 -1.3541  1.7486
 5308TIP3    H237340   3.825   1.171   0.961 -0.3069  0.5019 -1.5203
 5309TIP3   OH237341   5.958   2.410  14.997 -0.1303  0.6151 -0.0252
 5309TIP3    H137342   5.993   2.448  14.917 -1.3723  0.3270 -0.7017
 5309TIP3    H237343   5.953   2.484  15.058 -0.7992  1.1666 -0.7490
 5310TIP3   OH237344   1.272   1.639   2.174  0.2154  0.0068 -0.2827
 5310TIP3    H137345   1.214   1.611   2.244  0.3911  0.3528  0.0015
 5310TIP3    H237346   1.359   1.609   2.202  0.1621 -0.6084 -0.7582
 5311TIP3   OH237347   0.114   2.876   3.174 -0.2870  0.3748  0.2591
 5311TIP3    H137348   0.148   2.864   3.263  0.8629  1.0831 -0.0842
 5311TIP3    H237349   0.149   2.801   3.125 -1.7970 -0.6101  0.6384
 5312TIP3   OH237350   3.585   2.876   1.402 -0.1986  1.1806 -0.4483
 5312TIP3    H137351   3.680   2.875   1.407 -0.2963 -1.5467  2.2875
 5312TIP3    H237352   3.565   2.937   1.330  3.6567 -1.1192 -3.6525
 5313TIP3   OH237353   1.181   5.593   3.219  0.2495 -0.1956  0.0875
 5313TIP3    H137354   1.212   5.664   3.163  0.7084 -0.8128 -0.4427
 5313TIP3    H237355   1.085   5.595   3.209  0.2255  0.6642  0.4672
 5314TIP3   OH237356   1.529   0.782  11.249  0.0033 -0.1327 -0.3476
 5314TIP3    H137357   1.490   0.804  11.333 -0.0171 -0.5610 -0.2429
 5314TIP3    H237358   1.619   0.754  11.270 -0.4574 -1.6439 -0.3005
 5315TIP3   OH237359   3.369   4.437   6.451 -0.3735 -0.2329  0.1641
 5315TIP3    H137360   3.418   4.361   6.420 -0.1919 -0.2828  0.5587
 5315TIP3    H237361   3.425   4.512   6.429 -1.0102 -0.1247 -1.1235
 5316TIP3   OH237362   0.058   1.288  14.660 -0.2815  0.1478  0.2611
 5316TIP3    H137363   0.117   1.359  14.686 -0.0491  0.0830 -0.0920
 5316TIP3    H237364  -0.003   1.329  14.599  0.6847 -0.2599 -1.0021
 5317TIP3   OH237365   4.097   2.039  14.356  0.0234  0.0678 -0.0472
 5317TIP3    H137366   4.150   2.100  14.406 -1.8900 -0.5486  2.8873
 5317TIP3    H237367   4.035   2.094  14.307  1.4340  0.6441 -1.2128
 5318TIP3   OH237368   1.860   6.260   5.551 -0.9359 -0.0039  0.2516
 5318TIP3    H137369   1.901   6.323   5.492 -1.8920 -0.8905 -1.4017
 5318TIP3    H237370   1.915   6.260   5.629 -0.1557  1.8548 -0.2764
 5319TIP3   OH237371   1.144   4.411  15.501  0.3574 -0.5219  0.2040
 5319TIP3    H137372   1.218   4.359  15.533 -0.2972 -1.3457  0.4219
 5319TIP3    H237373   1.089   4.347  15.455 -1.1424 -0.3014  1.6444
 5320TIP3   OH237374   5.410   1.301   5.713  0.2500 -0.2469 -0.1358
 5320TIP3    H137375   5.397   1.359   5.637  0.2713  1.1007  0.8791
 5320TIP3    H237376   5.498   1.320   5.743 -0.1233 -0.0668  0.8397
 5321TIP3   OH237377   4.283   2.969   2.269  0.5401  0.5943  0.4321
 5321TIP3    H137378   4.298   2.961   2.363 -1.7673  1.1307  0.8707
 5321TIP3    H237379   4.371   2.981   2.232  1.5931 -0.9624  2.3543
 5322TIP3   OH237380   3.329   0.918  16.677 -0.6004 -0.0242  0.0365
 5322TIP3    H137381   3.382   0.956  16.747  0.5309 -1.7763  0.1410
 5322TIP3    H237382   3.239   0.925  16.709 -0.2847  1.1441  0.7156
 5323TIP3   OH237383   0.770   3.372  15.274  0.5980  0.1303 -0.1344
 5323TIP3    H137384   0.844   3.429  15.292  1.4734 -1.3806  1.2155
 5323TIP3    H237385   0.707   3.391  15.343  1.8958 -2.1726  1.7691
 5324TIP3   OH237386   1.161   6.218   5.375 -0.4558  0.0904 -0.1197
 5324TIP3    H137387   1.178   6.162   5.299 -0.0134  1.2795 -0.8963
 5324TIP3    H237388   1.237   6.206   5.432 -0.1492  0.2558 -0.4959
 5325TIP3   OH237389   3.233   3.371  12.107  0.2119  0.5169 -0.6307
 5325TIP3    H137390   3.263   3.366  12.197  0.6582 -2.9769 -0.9052
 5325TIP3    H237391   3.261   3.457  12.077  2.1482  0.7919  1.8178
 5326TIP3   OH237392   0.538   2.022  12.192 -0.3622  0.2031  0.3469
 5326TIP3    H137393   0.469   2.043  12.129  0.2337 -0.5300 -0.5765
 5326TIP3    H237394   0.492   2.005  12.274 -1.0619  2.3992  0.4538
 5327TIP3   OH237395   6.471   5.718  12.385  0.7212  0.3560  0.3202
 5327TIP3    H137396   6.394   5.664  12.367  2.6296 -2.0802 -0.7579
 5327TIP3    H237397   6.497   5.694  12.474 -0.0377  1.5624  0.8823
 5328TIP3   OH237398   1.572   3.526  10.995  0.0449  0.2993  0.0921
 5328TIP3    H137399   1.649   3.528  10.939  1.8671  0.6590  2.5257
 5328TIP3    H237400   1.528   3.609  10.979  1.8544  1.4557  0.9143
 5329TIP3   OH237401   4.508   6.375  16.305  0.6879  0.2665 -0.3168
 5329TIP3    H137402   4.450   6.436  16.350  0.2575  0.6777 -1.4321
 5329TIP3    H237403   4.575   6.430  16.266  1.6209 -0.1745  0.6246
 5330TIP3   OH237404   1.510   6.686   5.652  0.4063  0.0342  0.0169
 5330TIP3    H137405   1.541   6.750   5.587  0.8240  0.6411  0.7972
 5330TIP3    H237406   1.546   6.718   5.735 -0.9034 -0.2088  0.6882
 5331TIP3   OH237407   2.724   1.134   0.492  0.3062 -0.2159  0.3536
 5331TIP3    H137408   2.786   1.070   0.528  1.0846  0.0728 -0.4820
 5331TIP3    H237409   2.675   1.085   0.426  1.7750  0.3674 -1.2024
 5332TIP3   OH237410   0.535   6.340  14.967 -0.4338  0.4446 -0.1614
 5332TIP3    H137411   0.488   6.399  15.026  0.6193  2.6243 -1.4593
 5332TIP3    H237412   0.577   6.277  15.026 -0.8345  1.5102  1.3053
 5333TIP3   OH237413   6.316   0.005  14.484  0.0855 -0.2280  0.1737
 5333TIP3    H137414   6.336  -0.078  14.528 -0.1006  0.7755  2.1569
 5333TIP3    H237415   6.238   0.037  14.527  0.5814  1.3457 -0.0899
 5334TIP3   OH237416   5.203   3.416  12.748 -0.1351 -0.4975 -0.0142
 5334TIP3    H137417   5.272   3.441  12.810 -0.6348 -1.4818  0.9328
 5334TIP3    H237418   5.228   3.461  12.667  1.8405 -1.1503  0.2047
 5335TIP3   OH237419   1.870   2.570   2.902  0.5873  0.3369 -0.2242
 5335TIP3    H137420   1.890   2.485   2.941  1.6121  0.9251  0.5566
 5335TIP3    H237421   1.824   2.619   2.970 -0.1700  0.3398 -0.7352
 5336TIP3   OH237422   6.523   4.793   5.124  0.4167 -0.0591  0.3089
 5336TIP3    H137423   6.433   4.824   5.122  0.0231 -1.1956  0.0527
 5336TIP3    H237424   6.562   4.828   5.044 -0.8650 -2.6228 -1.5505
 5337TIP3   OH237425   1.013   4.617  11.564 -0.4036  0.1934  0.0287
 5337TIP3    H137426   0.999   4.697  11.513 -2.1360  0.2038  0.4866
 5337TIP3    H237427   0.996   4.643  11.655  0.1561 -0.4266  0.3192
 5338TIP3   OH237428   3.885   0.399  12.234 -0.0570 -0.1444 -0.3753
 5338TIP3    H137429   3.844   0.374  12.151 -0.6839  1.7057 -0.6633
 5338TIP3    H237430   3.815   0.443  12.283  1.4246  2.6993 -0.6982
 5339TIP3   OH237431   5.638   3.348   1.810 -0.4682  0.6756  0.4409
 5339TIP3    H137432   5.569   3.283   1.821  0.1274  0.0458  0.4358
 5339TIP3    H237433   5.616   3.417   1.873 -0.2596 -0.2337  1.5245
 5340TIP3   OH237434   0.142   2.538   1.552  1.1008 -0.7835  0.0220
 5340TIP3    H137435   0.182   2.543   1.465  0.1975  1.8487 -0.2891
 5340TIP3    H237436   0.214   2.557   1.613  1.1287  0.2247 -0.3196
 5341TIP3   OH237437   3.096   3.473   2.094 -0.1883  0.4427  0.1467
 5341TIP3    H137438   3.163   3.465   2.026  1.0571  0.0393  1.3945
 5341TIP3    H237439   3.026   3.414   2.067  1.1433 -1.1746  0.1855
 5342TIP3   OH237440   1.094   3.293   1.333 -0.1512 -0.1619  0.5444
 5342TIP3    H137441   1.035   3.335   1.396  0.3142 -1.9288  2.2149
 5342TIP3    H237442   1.039   3.231   1.285 -0.4028  0.8330 -0.4716
 5343TIP3   OH237443   0.427   3.495   0.896  0.8875  0.1315 -0.4225
 5343TIP3    H137444   0.365   3.566   0.879  0.6905 -0.1683 -0.9909
 5343TIP3    H237445   0.439   3.495   0.991 -0.1792  0.0373 -0.2779
 5344TIP3   OH237446   6.475   4.454  11.992 -0.8341  0.2412 -0.5416
 5344TIP3    H137447   6.463   4.502  12.074 -0.7256 -1.3866  0.4357
 5344TIP3    H237448   6.570   4.444  11.983 -0.8362  0.5853 -0.9665
 5345TIP3   OH237449   2.121   2.736   1.876  0.0960 -0.2320  0.0697
 5345TIP3    H137450   2.147   2.670   1.811 -0.1241 -0.7165  0.4714
 5345TIP3    H237451   2.082   2.806   1.823 -2.4607 -1.7496 -0.1849
 5346TIP3   OH237452   4.577   4.385   6.472 -0.2150  0.1466  0.6575
 5346TIP3    H137453   4.667   4.411   6.490 -0.2044 -0.3414  1.3516
 5346TIP3    H237454   4.533   4.466   6.446  0.2029  0.5594  1.2138
 5347TIP3   OH237455   5.802   2.156   0.579  0.2744 -0.2540 -0.5788
 5347TIP3    H137456   5.861   2.107   0.637 -0.5409 -0.2264  0.2841
 5347TIP3    H237457   5.849   2.237   0.560  1.2218 -0.9433 -1.2394
 5348TIP3   OH237458   2.499   0.493   1.740  0.0111 -0.1401 -0.5382
 5348TIP3    H137459   2.455   0.555   1.797 -0.0434  0.3275 -1.0798
 5348TIP3    H237460   2.500   0.536   1.654  2.4489  0.3211 -0.3086
 5349TIP3   OH237461   0.599   6.645  12.257 -0.8522  0.0992 -0.1848
 5349TIP3    H137462   0.549   6.719  12.222 -0.6537 -0.2479 -1.1964
 5349TIP3    H237463   0.643   6.681  12.335 -2.3833  0.4970  0.5117
 5350TIP3   OH237464   2.049   5.207  16.426  0.1275  0.0948  0.3049
 5350TIP3    H137465   2.134   5.163  16.422  0.1910  0.2393  0.0870
 5350TIP3    H237466   1.985   5.138  16.410  0.1821 -0.0967  0.9096
 5351TIP3   OH237467   1.269   0.490  11.500  0.2686 -0.3646 -0.6358
 5351TIP3    H137468   1.188   0.487  11.550 -1.2675 -1.1143 -3.0809
 5351TIP3    H237469   1.275   0.581  11.469 -0.7607 -0.7907 -2.1636
 5352TIP3   OH237470   2.008   6.558   5.684 -0.0142  0.1816 -0.2573
 5352TIP3    H137471   1.963   6.541   5.767  0.2769  1.4141  0.1548
 5352TIP3    H237472   2.060   6.479   5.669 -0.6455 -0.3550  0.3492
 5353TIP3   OH237473   3.916   5.016   6.587  0.2778  0.1863 -0.0599
 5353TIP3    H137474   3.935   5.013   6.681  1.0028  0.3072 -0.1981
 5353TIP3    H237475   3.875   5.101   6.574 -1.2413 -0.4633  0.4009
 5354TIP3   OH237476   5.332   0.926   2.147 -0.1592 -0.7485  0.0547
 5354TIP3    H137477   5.381   0.854   2.107 -0.9939  0.1114 -2.6226
 5354TIP3    H237478   5.387   1.003   2.133 -1.7699  0.0595 -2.1464
 5355TIP3   OH237479   5.305   6.437  16.969 -0.0949 -0.0267 -0.3336
 5355TIP3    H137480   5.365   6.500  16.930 -1.0579  0.8510 -0.4085
 5355TIP3    H237481   5.229   6.437  16.911 -1.1917  0.6768  1.0826
 5356TIP3   OH237482   5.489   2.620   1.259 -0.1450 -0.0021  0.2452
 5356TIP3    H137483   5.581   2.644   1.252  0.0105 -0.3270  1.1858
 5356TIP3    H237484   5.465   2.595   1.169  1.1998 -1.7612  0.3349
 5357TIP3   OH237485   4.073   3.850  13.133  0.4921  0.1288 -0.4061
 5357TIP3    H137486   4.067   3.851  13.229  3.3380 -0.3982 -0.1474
 5357TIP3    H237487   4.026   3.928  13.104 -0.8091  0.0313  1.3997
 5358TIP3   OH237488   6.122   1.739   3.521  0.3543 -0.0853 -0.5935
 5358TIP3    H137489   6.076   1.801   3.463 -0.0554  1.0319  0.8861
 5358TIP3    H237490   6.214   1.753   3.502  0.3006  1.5553  0.2507
 5359TIP3   OH237491   3.895   6.573  13.360  0.0210  0.5951  0.1492
 5359TIP3    H137492   3.856   6.606  13.441 -0.3418 -0.0648  0.2391
 5359TIP3    H237493   3.883   6.478  13.364 -0.5581  0.6177 -0.9732
 5360TIP3   OH237494   2.070   1.307   5.182  0.1772  0.4155  0.6553
 5360TIP3    H137495   2.095   1.311   5.274 -1.1622 -2.0345  1.1686
 5360TIP3    H237496   1.975   1.296   5.184  0.4050 -2.1512 -0.9466
 5361TIP3   OH237497   6.309   6.489  11.714 -0.3380  0.9211 -0.2898
 5361TIP3    H137498   6.286   6.421  11.650 -0.1527 -1.7459  2.3836
 5361TIP3    H237499   6.404   6.496  11.709 -0.1157 -0.8438  1.1859
 5362TIP3   OH237500   2.155   2.128   4.776  0.5672 -0.4886  0.6432
 5362TIP3    H137501   2.207   2.083   4.711 -2.1955 -0.2426 -1.8483
 5362TIP3    H237502   2.086   2.066   4.800 -1.8118  1.4090 -0.9954
 5363TIP3   OH237503   3.165   6.358   2.348  0.3911 -0.7536 -1.0183
 5363TIP3    H137504   3.104   6.322   2.413  1.6352 -0.0818  0.5585
 5363TIP3    H237505   3.249   6.361   2.394  0.2049  4.9687 -0.6945
 5364TIP3   OH237506   0.818   5.379  15.282  0.4737 -0.0436  0.0950
 5364TIP3    H137507   0.846   5.377  15.191  0.9922 -0.5648  0.2603
 5364TIP3    H237508   0.767   5.298  15.293 -1.7588  1.2548 -0.4051
 5365TIP3   OH237509   5.356   1.446   0.165 -0.5145  0.2610  0.0290
 5365TIP3    H137510   5.434   1.501   0.149 -1.9313  3.1122  2.5458
 5365TIP3    H237511   5.303   1.458   0.086 -0.7392  2.4494  0.4829
 5366TIP3   OH237512   6.018   3.688  11.468 -0.9676 -0.4515 -0.3537
 5366TIP3    H137513   6.077   3.746  11.518 -0.6507  0.2049 -1.4693
 5366TIP3    H237514   5.934   3.735  11.468 -1.6969 -1.6641  1.7479
 5367TIP3   OH237515   5.923   1.523  11.784  0.1241  0.4878  0.1224
 5367TIP3    H137516   5.933   1.461  11.712 -0.1629  0.5654  0.0191
 5367TIP3    H237517   5.835   1.559  11.774 -0.1980 -0.0507  0.9367
 5368TIP3   OH237518   4.020   4.613   1.928  0.4370 -0.1677 -0.3263
 5368TIP3    H137519   4.042   4.576   2.014  0.2481 -1.3079 -0.7731
 5368TIP3    H237520   4.062   4.699   1.929 -0.6598  0.3778  1.4241
 5369TIP3   OH237521   2.856   1.332   2.061 -0.0901  0.1484  0.2530
 5369TIP3    H137522   2.885   1.266   2.124  1.1093 -0.5141 -0.9591
 5369TIP3    H237523   2.824   1.281   1.987  0.3042  0.9281 -0.4615
 5370TIP3   OH237524   1.753   6.677  15.923 -0.3515 -0.3172  0.0505
 5370TIP3    H137525   1.781   6.768  15.925 -0.2843 -0.3058 -1.2256
 5370TIP3    H237526   1.770   6.644  16.012  1.4997  0.3295 -0.0530
 5371TIP3   OH237527   0.957   0.237   1.737 -0.7040  0.7184  0.0640
 5371TIP3    H137528   1.017   0.224   1.664  0.8979  1.0521  1.2947
 5371TIP3    H237529   0.886   0.175   1.721  1.4701 -1.8696  0.1742
 5372TIP3   OH237530   3.288   5.940   4.585  0.4522  0.2046 -0.0859
 5372TIP3    H137531   3.210   5.986   4.556  0.4680  0.5321  0.3772
 5372TIP3    H237532   3.305   5.975   4.673 -0.4758 -1.8565  0.9458
 5373TIP3   OH237533   3.582   1.153  17.181  0.0754 -0.2826  0.5109
 5373TIP3    H137534   3.515   1.104  17.133  0.4408 -1.3955  1.1041
 5373TIP3    H237535   3.661   1.143  17.130 -0.0951  0.5944  0.0771
 5374TIP3   OH237536   6.365   5.961   1.536 -0.2042  0.1443 -0.3987
 5374TIP3    H137537   6.288   5.917   1.498 -0.7381  0.3958  0.3772
 5374TIP3    H237538   6.328   6.029   1.592  0.5748 -0.1603  0.4968
 5375TIP3   OH237539   2.066   3.011  16.633  0.4316 -0.4158 -0.4006
 5375TIP3    H137540   2.137   2.956  16.601 -0.1899 -1.5304  0.1157
 5375TIP3    H237541   1.999   3.007  16.565 -0.5878 -2.2060  0.6517
 5376TIP3   OH237542   1.376   5.304   3.565 -0.0358  0.1299  0.6280
 5376TIP3    H137543   1.449   5.365   3.563  0.2488 -0.2189  0.0435
 5376TIP3    H237544   1.300   5.356   3.538  0.2419  0.1859 -0.0718
 5377TIP3   OH237545   5.949   2.915  11.229  0.1719 -0.4621  0.0207
 5377TIP3    H137546   5.986   2.976  11.165  1.5762  0.2753  1.4922
 5377TIP3    H237547   6.026   2.867  11.263 -0.4791 -0.4740  1.5212
 5378TIP3   OH237548   2.310   4.965  12.185 -0.1452 -0.5442 -0.0665
 5378TIP3    H137549   2.378   4.929  12.128 -0.3977  1.5177 -1.7145
 5378TIP3    H237550   2.228   4.933  12.148 -0.2187 -0.8151  0.3244
 5379TIP3   OH237551   4.775   1.741  10.786 -0.1225 -0.1280 -0.2722
 5379TIP3    H137552   4.839   1.698  10.729  1.4825 -0.1903  1.5245
 5379TIP3    H237553   4.702   1.680  10.791  0.1033 -0.5131 -1.5535
 5380TIP3   OH237554   0.633   3.348   2.427  0.2427  0.1155 -0.2908
 5380TIP3    H137555   0.695   3.383   2.490  0.1381  0.7214 -0.5168
 5380TIP3    H237556   0.567   3.417   2.418 -0.7136 -0.7100  0.3054
 5381TIP3   OH237557   3.892   3.818  15.490 -0.0045  0.2714  0.0192
 5381TIP3    H137558   3.932   3.765  15.421  0.5838 -0.1295  0.6666
 5381TIP3    H237559   3.851   3.890  15.443 -0.1274 -0.3225 -0.8068
 5382TIP3   OH237560   3.074   3.055   1.758 -0.2010  0.0369 -0.1405
 5382TIP3    H137561   3.018   3.002   1.702  0.1354 -0.7782  0.2800
 5382TIP3    H237562   3.046   3.033   1.847  0.8636 -0.4660  0.0732
 5383TIP3   OH237563   4.375   4.109   1.578  0.3336  0.4543  0.7675
 5383TIP3    H137564   4.315   4.076   1.511 -0.5119  1.6976  0.8890
 5383TIP3    H237565   4.321   4.113   1.657  0.9185  0.4353  1.1673
 5384TIP3   OH237566   4.662   4.081  16.183  0.3912  0.0159  0.3368
 5384TIP3    H137567   4.693   4.023  16.113 -1.5993 -0.9190  0.2152
 5384TIP3    H237568   4.680   4.034  16.264  1.5970  0.5788  0.4065
 5385TIP3   OH237569   3.119   0.443   2.516  0.0332  0.0514 -0.2821
 5385TIP3    H137570   3.064   0.365   2.513 -1.8880  1.3412  0.5553
 5385TIP3    H237571   3.202   0.415   2.476 -1.7148 -1.5039 -2.9558
 5386TIP3   OH237572   2.654   0.758   1.765 -0.2116 -0.3917 -0.4188
 5386TIP3    H137573   2.605   0.725   1.841  2.2515  0.3617  1.5554
 5386TIP3    H237574   2.609   0.839   1.742 -0.7038 -0.3788  0.5492
 5387TIP3   OH237575   4.686   4.812   4.740  0.0950 -0.1940 -0.7926
 5387TIP3    H137576   4.742   4.738   4.763  0.2591 -0.1482 -1.0372
 5387TIP3    H237577   4.597   4.778   4.744  0.0342  0.1626  1.2216
 5388TIP3   OH237578   5.501   6.596  10.419  0.3932 -0.5479 -0.0480
 5388TIP3    H137579   5.491   6.640  10.334  0.4637  0.5342  0.4985
 5388TIP3    H237580   5.596   6.592  10.432  0.4326 -2.0618 -0.7059
 5389TIP3   OH237581   3.888   5.296  15.586 -1.0498  0.5743  0.0807
 5389TIP3    H137582   3.822   5.348  15.631  0.0294  2.7684 -0.8308
 5389TIP3    H237583   3.898   5.338  15.500 -0.4076 -1.3379 -0.8095
 5390TIP3   OH237584   6.549   4.828   3.514 -1.2304 -0.0952 -0.2912
 5390TIP3    H137585   6.465   4.836   3.557 -0.1643  1.7577  1.5242
 5390TIP3    H237586   6.562   4.912   3.470  0.3986  0.2603  0.8307
 5391TIP3   OH237587   0.542   0.069  12.630  0.0276  0.2444  0.1279
 5391TIP3    H137588   0.487  -0.009  12.635 -2.6315  2.1885  2.9443
 5391TIP3    H237589   0.601   0.062  12.705  1.3949 -0.1404 -0.9463
 5392TIP3   OH237590   4.664   4.425   1.480  0.1248 -1.0071 -0.8737
 5392TIP3    H137591   4.729   4.486   1.516  0.6483 -2.4248  0.6125
 5392TIP3    H237592   4.583   4.446   1.527  0.5303 -2.0726  0.3280
 5393TIP3   OH237593   5.180   2.608   5.871  0.1061 -0.1597  0.3928
 5393TIP3    H137594   5.115   2.558   5.822  1.8317  1.2524 -3.5295
 5393TIP3    H237595   5.264   2.566   5.849  1.2708  2.6921 -0.7539
 5394TIP3   OH237596   5.806   6.100  16.309 -0.3233 -0.4410  0.0447
 5394TIP3    H137597   5.745   6.098  16.236  0.1660 -0.2163 -0.3709
 5394TIP3    H237598   5.893   6.097  16.269 -0.0537 -0.5744  0.6257
 5395TIP3   OH237599   3.799   5.450   4.509 -0.1800  0.4138  0.5961
 5395TIP3    H137600   3.737   5.487   4.446  0.6170 -0.4054 -0.6951
 5395TIP3    H237601   3.885   5.475   4.476  0.2123  0.8805  1.9461
 5396TIP3   OH237602   5.494   4.437  11.185  0.1136 -0.0958  0.4629
 5396TIP3    H137603   5.406   4.410  11.162 -0.2856  1.1511  0.5016
 5396TIP3    H237604   5.546   4.357  11.179 -0.5922 -0.4240 -1.6285
 5397TIP3   OH237605   3.974   5.874   2.896 -0.2348  0.0677  0.1614
 5397TIP3    H137606   3.962   5.783   2.869  0.2210  0.4112 -1.2539
 5397TIP3    H237607   4.026   5.913   2.826 -0.0453  1.3063  0.9761
 5398TIP3   OH237608   6.568   4.701   3.769  0.4148 -0.2082  0.1608
 5398TIP3    H137609   6.602   4.612   3.763  1.1762 -0.0274  1.6286
 5398TIP3    H237610   6.617   4.750   3.703 -0.4861 -1.0116 -1.1256
 5399TIP3   OH237611   6.115   2.805   2.246  0.1329  0.6813  0.9766
 5399TIP3    H137612   6.113   2.836   2.155  2.6969 -0.7476  0.3818
 5399TIP3    H237613   6.045   2.854   2.289 -2.7546 -0.3484 -2.3021
 5400TIP3   OH237614   4.684   1.279  16.599 -0.2923 -0.5872  0.0319
 5400TIP3    H137615   4.639   1.352  16.557 -0.6343 -0.4325  0.6575
 5400TIP3    H237616   4.614   1.217  16.621 -0.0426 -0.9583 -0.2049
 5401TIP3   OH237617   0.375   5.275  16.396  0.0121 -0.2606 -0.2035
 5401TIP3    H137618   0.383   5.347  16.458 -1.3067  0.6592 -1.0699
 5401TIP3    H237619   0.372   5.317  16.310  3.6651 -1.6123 -1.0780
 5402TIP3   OH237620   1.983   0.175  13.580 -0.3019  0.5661 -0.5743
 5402TIP3    H137621   2.032   0.258  13.583  0.4704  0.0717  0.7784
 5402TIP3    H237622   2.018   0.130  13.503 -1.7250  2.0877 -2.1533
 5403TIP3   OH237623   2.401   3.999   4.116  0.8032  0.4433  0.2606
 5403TIP3    H137624   2.440   4.068   4.063  0.7135  0.8472  0.7226
 5403TIP3    H237625   2.402   4.033   4.205  0.0282  0.1717  0.3723
 5404TIP3   OH237626   5.808   5.353   5.326 -0.1497  0.3352 -0.1375
 5404TIP3    H137627   5.718   5.370   5.298 -0.7435 -0.4509  1.2463
 5404TIP3    H237628   5.860   5.366   5.247 -1.7095 -1.2349 -1.4725
 5405TIP3   OH237629   0.296   0.775   3.607 -0.1716  0.1083  0.1883
 5405TIP3    H137630   0.384   0.807   3.590 -0.4339  0.4430 -0.5255
 5405TIP3    H237631   0.291   0.770   3.703 -0.1001  2.1363  0.3304
 5406TIP3   OH237632   4.402   6.377   5.002 -0.0848 -0.4277  0.1857
 5406TIP3    H137633   4.351   6.338   4.931  0.1033 -0.4600  0.0680
 5406TIP3    H237634   4.383   6.471   4.997  1.0877 -0.2347 -0.8481
 5407TIP3   OH237635   3.864   3.914   6.434 -0.2281 -0.1773 -0.7815
 5407TIP3    H137636   3.805   3.985   6.410  0.7493  0.3861 -1.5502
 5407TIP3    H237637   3.830   3.837   6.387 -2.7997 -0.8601  2.0434
 5408TIP3   OH237638   3.326   4.025  13.067 -0.2231  0.1274  0.0477
 5408TIP3    H137639   3.326   3.999  13.159 -2.6331 -0.9301 -0.1899
 5408TIP3    H237640   3.414   4.058  13.050  0.2077  0.4640  2.7616
 5409TIP3   OH237641   1.389   4.193  14.632 -0.5507 -0.2040  0.2645
 5409TIP3    H137642   1.405   4.264  14.569 -1.6576  0.2308  0.4614
 5409TIP3    H237643   1.417   4.114  14.586 -2.0548  0.0211 -1.0759
 5410TIP3   OH237644   5.605   1.361  17.095  0.7494 -0.0188  0.3110
 5410TIP3    H137645   5.529   1.313  17.061  0.9333 -0.7950  0.9939
 5410TIP3    H237646   5.588   1.452  17.070  0.0627 -0.3258 -0.3860
 5411TIP3   OH237647   1.777   1.712   3.726 -0.0364  0.2199  0.0976
 5411TIP3    H137648   1.752   1.771   3.797  1.3266 -0.1854  0.9259
 5411TIP3    H237649   1.723   1.634   3.738 -3.3380  2.0159 -2.1813
 5412TIP3   OH237650   6.112   6.266  13.552 -0.1170 -0.1370 -0.1522
 5412TIP3    H137651   6.056   6.337  13.583 -1.8535 -1.3980 -0.3802
 5412TIP3    H237652   6.057   6.188  13.556  1.4020 -1.2762 -1.0495
 5413TIP3   OH237653   0.660   4.576  12.755 -0.4149 -0.7784 -0.0801
 5413TIP3    H137654   0.591   4.534  12.806  0.1612  2.7515  3.8575
 5413TIP3    H237655   0.634   4.668  12.750  1.6269 -0.2755 -2.7257
 5414TIP3   OH237656   3.034   5.487   6.824  0.3132 -0.8043  0.0609
 5414TIP3    H137657   3.040   5.409   6.769  1.0726 -0.8037  0.1372
 5414TIP3    H237658   3.125   5.508   6.846  0.1546  0.3585 -0.3258
 5415TIP3   OH237659   2.012   6.067   2.959 -0.2516 -0.2471  0.0209
 5415TIP3    H137660   1.963   6.009   2.901 -0.8600 -0.4176  0.6948
 5415TIP3    H237661   1.953   6.082   3.033 -0.2120  1.4568 -0.2729
 5416TIP3   OH237662   6.463   1.439  12.261 -0.0484  0.8083  0.0807
 5416TIP3    H137663   6.470   1.534  12.251 -0.8840  0.5844 -3.1978
 5416TIP3    H237664   6.544   1.405  12.223 -0.2460  0.1617  0.2321
 5417TIP3   OH237665   3.383   2.550  12.729 -0.3750  0.7038 -0.6374
 5417TIP3    H137666   3.360   2.602  12.806 -0.7340 -2.3389  1.3756
 5417TIP3    H237667   3.477   2.535  12.737 -0.5923 -0.4816 -0.2346
 5418TIP3   OH237668   3.677   3.757   6.644 -0.0132 -0.2763 -1.4604
 5418TIP3    H137669   3.726   3.765   6.562  0.5168 -2.5443 -1.4028
 5418TIP3    H237670   3.730   3.699   6.698 -0.5098  0.9655  0.4025
 5419TIP3   OH237671   5.122   4.968  12.581  0.2605 -0.2251  0.1793
 5419TIP3    H137672   5.155   4.957  12.491 -1.1382  1.9146 -0.6300
 5419TIP3    H237673   5.180   5.034  12.619 -0.6624  0.6553  0.0496
 5420TIP3   OH237674   6.289   1.243  12.085 -0.1647  0.0314  0.2221
 5420TIP3    H137675   6.351   1.300  12.130 -1.2016  0.1479  1.5303
 5420TIP3    H237676   6.283   1.165  12.141  1.0480 -1.2757 -1.4133
 5421TIP3   OH237677   5.099   3.989   1.729 -0.3022  0.1467 -0.5053
 5421TIP3    H137678   5.023   3.946   1.689 -2.1877  0.5486  2.5221
 5421TIP3    H237679   5.102   4.075   1.688 -1.9900  0.4352 -0.0652
 5422TIP3   OH237680   4.730   1.282  14.258 -0.2101  0.1782  0.4306
 5422TIP3    H137681   4.780   1.245  14.331 -0.2782  0.0096  0.3899
 5422TIP3    H237682   4.662   1.217  14.240  2.1643 -1.6512 -2.3699
 5423TIP3   OH237683   4.673   1.992  17.012  0.2577 -0.0708 -0.0189
 5423TIP3    H137684   4.678   2.021  17.103  0.4055  1.7200 -0.5695
 5423TIP3    H237685   4.761   1.959  16.992  0.7354  1.2055 -0.0416
 5424TIP3   OH237686   1.767   1.179   5.973 -0.3189 -0.6326 -0.0357
 5424TIP3    H137687   1.788   1.252   5.914  0.2314 -1.8261 -1.3378
 5424TIP3    H237688   1.685   1.205   6.016  0.7564  1.5208  0.8128
 5425TIP3   OH237689   2.822   6.100   1.953  0.2040  0.0202 -0.0860
 5425TIP3    H137690   2.745   6.053   1.984 -0.1081  0.0843 -0.7550
 5425TIP3    H237691   2.790   6.187   1.931  0.3984 -0.0684 -0.7156
 5426TIP3   OH237692   3.387   5.543   3.165  0.0370  0.3281 -0.0387
 5426TIP3    H137693   3.317   5.553   3.101 -1.3789 -1.9638  1.1122
 5426TIP3    H237694   3.459   5.503   3.116  0.5804  2.6569 -1.2146
 5427TIP3   OH237695   1.398   5.274  16.684  0.4906 -0.4726 -0.3064
 5427TIP3    H137696   1.487   5.286  16.716  0.5830  0.3437 -0.8284
 5427TIP3    H237697   1.368   5.193  16.725  1.2895 -0.4838  0.2774
 5428TIP3   OH237698   0.858   2.410  12.941 -0.1338  0.3984  0.5029
 5428TIP3    H137699   0.769   2.392  12.908  0.2337  0.0114 -0.2928
 5428TIP3    H237700   0.876   2.339  13.001 -0.3455  0.4602  0.6431
 5429TIP3   OH237701   0.615   0.598   3.345 -0.0953  0.1779  0.1896
 5429TIP3    H137702   0.544   0.545   3.381 -0.0108 -0.5769 -0.7317
 5429TIP3    H237703   0.574   0.681   3.322 -0.5726 -0.0714  0.1349
 5430TIP3   OH237704   2.568   0.709  15.206 -0.2843  0.1267 -0.1262
 5430TIP3    H137705   2.552   0.797  15.240  2.6734  0.1032  1.5446
 5430TIP3    H237706   2.604   0.724  15.118 -1.2609  0.4991 -0.4694
 5431TIP3   OH237707   4.402   5.025  12.620  0.2922 -0.1527 -0.1484
 5431TIP3    H137708   4.383   4.981  12.703 -2.6809 -3.0990 -2.2254
 5431TIP3    H237709   4.498   5.031  12.617  0.8779 -5.9031  0.7007
 5432TIP3   OH237710   0.563   0.438  16.906  0.2064  0.0689 -0.8205
 5432TIP3    H137711   0.590   0.444  16.998 -2.0664 -1.5191 -0.0131
 5432TIP3    H237712   0.495   0.371  16.905  1.1478 -0.9343 -3.9184
 5433TIP3   OH237713   0.274   5.844  14.126  0.2358 -0.3292 -0.0402
 5433TIP3    H137714   0.321   5.909  14.178  0.4122  0.6520 -1.3989
 5433TIP3    H237715   0.181   5.864  14.141  0.2883  0.0704 -0.2327
 5434TIP3   OH237716   1.590   1.114  10.375  0.1628  0.2992 -0.1962
 5434TIP3    H137717   1.554   1.197  10.343  1.9532  0.7297 -1.1453
 5434TIP3    H237718   1.683   1.117  10.352  0.5951 -1.2719  1.2155
 5435TIP3   OH237719   0.294   5.169  13.434  0.1877  0.0744 -0.0220
 5435TIP3    H137720   0.386   5.144  13.441  0.6871  2.1311  1.1780
 5435TIP3    H237721   0.258   5.153  13.521 -0.1213  1.0297  0.0330
 5436TIP3   OH237722   0.440   0.073  12.149  0.3261 -0.2658  0.2732
 5436TIP3    H137723   0.442   0.148  12.209  0.4549  0.2712 -0.4014
 5436TIP3    H237724   0.439   0.112  12.062  1.4295 -1.0687 -0.1047
 5437TIP3   OH237725   0.282   5.599  13.856  0.2095 -0.1346 -0.3412
 5437TIP3    H137726   0.364   5.570  13.817 -1.1720  0.6342 -3.9670
 5437TIP3    H237727   0.214   5.555  13.805 -1.6953 -0.9407  2.7209
 5438TIP3   OH237728   3.738   1.058   3.686 -0.0458 -0.0117 -0.2545
 5438TIP3    H137729   3.715   0.977   3.642 -2.4663  0.7105 -0.3584
 5438TIP3    H237730   3.791   1.106   3.621  1.5835 -1.5439 -0.1100
 5439TIP3   OH237731   1.594   5.643   3.848 -0.1969  0.4464 -0.4158
 5439TIP3    H137732   1.536   5.717   3.829 -0.4440 -0.1357 -2.0287
 5439TIP3    H237733   1.603   5.643   3.943 -0.3434  2.4337 -0.3892
 5440TIP3   OH237734   4.516   3.895  13.700  0.2333  0.5177 -0.0100
 5440TIP3    H137735   4.528   3.960  13.769  0.2350  1.4298 -0.8614
 5440TIP3    H237736   4.601   3.889  13.658  0.0690  0.4125 -0.3278
 5441TIP3   OH237737   3.807   6.506  15.678  0.1252 -0.2695 -0.3689
 5441TIP3    H137738   3.779   6.491  15.588 -0.3138 -1.6381 -0.0114
 5441TIP3    H237739   3.728   6.492  15.731  0.7630 -1.1293  0.3698
 5442TIP3   OH237740   6.785   6.684   2.475 -0.1423 -0.1199  0.0332
 5442TIP3    H137741   6.713   6.621   2.477 -0.0760 -0.2013 -0.2540
 5442TIP3    H237742   6.860   6.635   2.443  0.3107 -0.3105  1.3550
 5443TIP3   OH237743   5.350   4.667   6.760  0.3922 -0.5456  0.4787
 5443TIP3    H137744   5.278   4.680   6.822 -0.0357  0.1966 -0.1639
 5443TIP3    H237745   5.308   4.672   6.674  0.6711 -3.3278  0.1177
 5444TIP3   OH237746   5.482   4.806  15.826  0.7518  0.4098 -0.3159
 5444TIP3    H137747   5.499   4.739  15.760  0.7680  1.6306 -1.5615
 5444TIP3    H237748   5.540   4.783  15.899  0.2817 -1.2939 -0.4629
 5445TIP3   OH237749   3.025   2.457   0.950  0.3352  0.7836  0.4051
 5445TIP3    H137750   3.120   2.450   0.960  0.2338 -1.2740  0.0646
 5445TIP3    H237751   2.989   2.396   1.015 -0.6675 -0.7909 -1.5809
 5446TIP3   OH237752   2.204   2.973  12.523  0.1615 -0.4785  0.5673
 5446TIP3    H137753   2.136   3.010  12.467  0.3688  0.1182  0.7025
 5446TIP3    H237754   2.163   2.965  12.609  0.2000 -0.3037  0.6024
 5447TIP3   OH237755   1.456   4.404   1.221 -0.1979 -0.1839 -0.3058
 5447TIP3    H137756   1.541   4.364   1.239 -0.4729 -0.2789  0.8154
 5447TIP3    H237757   1.433   4.373   1.133  0.7657 -0.4363 -0.4729
 5448TIP3   OH237758   0.305   5.961   1.441 -0.1325  0.3534 -1.2351
 5448TIP3    H137759   0.334   5.973   1.531  2.4203  0.5506 -2.0364
 5448TIP3    H237760   0.210   5.971   1.444 -0.0376  0.6190  1.3776
 5449TIP3   OH237761   4.075   2.421   2.876 -0.3055  0.0492  0.3591
 5449TIP3    H137762   4.065   2.327   2.862  0.0045 -0.0860  1.0515
 5449TIP3    H237763   4.169   2.437   2.866 -0.2720  0.1808  0.8764
 5450TIP3   OH237764   4.350   4.341  12.339  0.6588  0.2922 -0.4363
 5450TIP3    H137765   4.324   4.433  12.348  0.3657  0.1633  0.0208
 5450TIP3    H237766   4.350   4.307  12.428  3.8435  0.6603 -0.2248
 5451TIP3   OH237767   2.680   6.741   4.696  0.5377 -0.3411 -0.1732
 5451TIP3    H137768   2.709   6.652   4.676 -0.3653 -0.8453  0.7603
 5451TIP3    H237769   2.643   6.735   4.783 -1.7659  0.4595 -1.0710
 5452TIP3   OH237770   5.164   4.157   5.062 -0.1484 -0.2631  0.3553
 5452TIP3    H137771   5.076   4.173   5.095 -0.1166  2.1547 -0.6123
 5452TIP3    H237772   5.151   4.101   4.985 -1.0520  1.8487 -1.0628
 5453TIP3   OH237773   2.657   2.876   4.105 -0.0578  0.6839  0.1302
 5453TIP3    H137774   2.674   2.959   4.149 -0.5702 -0.4566  2.5573
 5453TIP3    H237775   2.680   2.892   4.014  0.1173  3.4041  0.6124
 5454TIP3   OH237776   3.962   5.034  13.779  0.3815 -0.3456  0.1582
 5454TIP3    H137777   3.998   4.949  13.804 -1.7739 -1.4952 -0.5836
 5454TIP3    H237778   3.889   5.049  13.839 -0.0265  0.4087 -0.5046
 5455TIP3   OH237779   0.818   3.272   3.502  0.0656  0.3200 -0.5633
 5455TIP3    H137780   0.729   3.259   3.534 -0.0145  0.6813 -0.6413
 5455TIP3    H237781   0.874   3.243   3.574 -0.1098 -1.3616 -1.0813
 5456TIP3   OH237782   2.762   6.328  12.087  0.3289  0.0898 -0.2233
 5456TIP3    H137783   2.768   6.364  12.175  2.2376  1.3033 -0.8222
 5456TIP3    H237784   2.742   6.235  12.101  1.7511  0.0114  1.5300
 5457TIP3   OH237785   3.661   4.663  15.851 -0.6577  0.0896 -0.3551
 5457TIP3    H137786   3.618   4.725  15.909  0.0032  0.3075 -0.0924
 5457TIP3    H237787   3.591   4.627  15.797 -1.6626 -1.9251  2.2093
 5458TIP3   OH237788   0.195   2.806   0.985  0.8901  0.2936 -0.0678
 5458TIP3    H137789   0.168   2.894   0.957 -1.4760 -0.4760 -0.2372
 5458TIP3    H237790   0.139   2.786   1.060 -0.2871 -2.0640 -1.5317
 5459TIP3   OH237791   3.268   1.681  11.378  0.3217  0.0607  0.6025
 5459TIP3    H137792   3.305   1.623  11.311 -0.0734  0.4387  0.0550
 5459TIP3    H237793   3.270   1.628  11.458 -2.7367 -1.8098 -0.4662
 5460TIP3   OH237794   4.031   5.876  14.225 -0.3724  0.6647 -0.1863
 5460TIP3    H137795   4.053   5.883  14.318 -1.0999  1.6719 -0.0956
 5460TIP3    H237796   4.114   5.853  14.183 -0.1342 -0.2586  0.7597
 5461TIP3   OH237797   1.515   2.200   6.188 -0.4230 -0.2437  0.1800
 5461TIP3    H137798   1.430   2.171   6.155 -1.0922  0.0557  1.6048
 5461TIP3    H237799   1.496   2.235   6.275  1.2464 -0.6772  0.7302
 5462TIP3   OH237800   0.952   5.959  17.127 -0.1973 -0.5113  0.0306
 5462TIP3    H137801   0.980   6.047  17.101 -1.3482  0.0022  0.4802
 5462TIP3    H237802   1.018   5.901  17.091  0.5652  0.5437 -0.2943
 5463TIP3   OH237803   6.424   0.246  16.333  0.1302  0.0961 -0.4604
 5463TIP3    H137804   6.349   0.254  16.275  0.5271 -0.7715 -1.0936
 5463TIP3    H237805   6.388   0.257  16.421 -0.5242  1.0674 -0.8360
 5464TIP3   OH237806   5.662   1.985  16.890 -0.3167 -0.8002 -0.2584
 5464TIP3    H137807   5.750   1.971  16.926 -0.3640 -2.6124 -0.8278
 5464TIP3    H237808   5.632   1.898  16.864 -0.1530  0.4255 -5.0257
 5465TIP3   OH237809   0.248   0.830  11.619  0.3780 -0.0529  0.3619
 5465TIP3    H137810   0.170   0.784  11.647  0.3434 -0.4842 -0.4409
 5465TIP3    H237811   0.297   0.767  11.566  1.2172  0.2431  0.7658
 5466TIP3   OH237812   6.377   4.487   6.187 -0.3571 -0.4340  0.0917
 5466TIP3    H137813   6.350   4.464   6.276 -1.5228  1.2794  0.2150
 5466TIP3    H237814   6.453   4.544   6.200 -1.6381  1.3135  0.0949
 5467TIP3   OH237815   6.010   6.094  12.989  0.2486  0.1815 -0.9370
 5467TIP3    H137816   6.007   6.070  12.897 -0.8196 -0.8576 -0.6525
 5467TIP3    H237817   5.957   6.174  12.994 -0.6999 -0.4212 -1.0546
 5468TIP3   OH237818   1.538   2.964   5.851  1.1157  0.2463  0.7211
 5468TIP3    H137819   1.550   3.059   5.847 -1.0340  0.5965  1.5047
 5468TIP3    H237820   1.500   2.949   5.938 -2.8843 -0.7263 -1.0957
 5469TIP3   OH237821   0.900   6.037   3.490 -0.4735 -0.3852 -0.1485
 5469TIP3    H137822   0.809   6.044   3.463 -0.7525 -0.9035  0.6357
 5469TIP3    H237823   0.914   6.112   3.547 -0.3613 -0.2240 -0.3854
 5470TIP3   OH237824   3.990   6.095   1.463  0.3285  0.1526 -0.1861
 5470TIP3    H137825   4.032   6.180   1.474  0.0316  0.4072 -1.0420
 5470TIP3    H237826   4.060   6.037   1.433  0.5754  0.0368  0.5832
 5471TIP3   OH237827   3.937   4.755  17.239 -0.4443 -0.0670 -0.1179
 5471TIP3    H137828   3.862   4.795  17.284 -0.3249  0.3345 -0.2749
 5471TIP3    H237829   3.997   4.828  17.223 -0.2545 -0.3006 -0.4612
 5472TIP3   OH237830   1.146   6.339  12.592  0.7410  0.1923  0.1881
 5472TIP3    H137831   1.086   6.297  12.531  0.9105  0.1126  0.0764
 5472TIP3    H237832   1.094   6.352  12.671  0.2397  1.1390 -0.2807
 5473TIP3   OH237833   6.582   5.880   1.911  0.0170  0.2396 -0.4137
 5473TIP3    H137834   6.592   5.868   1.817 -0.2622  0.5278 -0.4817
 5473TIP3    H237835   6.669   5.905   1.942 -0.0341  0.7786 -0.6927
 5474TIP3   OH237836   2.840   0.895   2.329  0.1628 -0.6375  0.1267
 5474TIP3    H137837   2.751   0.895   2.364  0.3358 -0.6674  0.5656
 5474TIP3    H237838   2.894   0.858   2.399  0.7523  0.7900  0.4496
 5475TIP3   OH237839   0.267   4.677   2.933  0.2235 -0.2398  0.1679
 5475TIP3    H137840   0.233   4.737   3.000 -1.8613  0.3248 -1.3145
 5475TIP3    H237841   0.337   4.726   2.891  1.4578 -0.5509  1.8400
 5476TIP3   OH237842   4.323   2.688  16.566  0.1632  0.6707  0.5703
 5476TIP3    H137843   4.325   2.782  16.550 -0.7840  0.8677  1.5447
 5476TIP3    H237844   4.237   2.671  16.604  0.0868 -0.6915 -0.1764
 5477TIP3   OH237845   3.266   3.219  15.098  0.3333  0.4872 -0.2018
 5477TIP3    H137846   3.181   3.179  15.114 -0.6198  3.4705  2.7310
 5477TIP3    H237847   3.252   3.273  15.019 -0.4744  0.8537  0.1845
 5478TIP3   OH237848   6.651   2.297   1.925  0.7917 -0.8081  0.0913
 5478TIP3    H137849   6.695   2.305   1.841 -0.0892  1.4565 -0.1872
 5478TIP3    H237850   6.713   2.333   1.989  0.1218  0.6581 -0.0603
 5479TIP3   OH237851   3.542   1.283   4.900  0.1212 -0.2092  0.0694
 5479TIP3    H137852   3.574   1.211   4.846  1.4164  0.2951  0.1517
 5479TIP3    H237853   3.614   1.301   4.961  0.5816  2.4099 -1.1999
 5480TIP3   OH237854   2.933   5.372   0.775 -0.5219 -0.1401 -0.1922
 5480TIP3    H137855   2.901   5.370   0.865 -0.5942  0.5960 -0.2020
 5480TIP3    H237856   3.027   5.353   0.782 -0.2903  1.1086  0.1472
 5481TIP3   OH237857   3.524   4.415  15.695  0.2876  0.4622 -0.8870
 5481TIP3    H137858   3.522   4.320  15.710 -0.0090  0.3671 -1.4842
 5481TIP3    H237859   3.617   4.435  15.683  0.7772  0.8958  3.0850
 5482TIP3   OH237860   2.260   0.951   4.095  0.3947  0.3695  0.0856
 5482TIP3    H137861   2.192   0.954   4.028  0.6958 -0.4850 -0.2563
 5482TIP3    H237862   2.315   1.028   4.076  1.1926 -0.5419 -1.4092
 5483TIP3   OH237863   4.856   5.427   1.827 -0.4155 -0.8756 -0.3305
 5483TIP3    H137864   4.841   5.381   1.909 -0.7105 -2.1328 -1.0842
 5483TIP3    H237865   4.789   5.394   1.768  0.1900 -0.4511 -1.2694
 5484TIP3   OH237866   3.414   5.151   6.263  0.0862 -0.0096 -0.2973
 5484TIP3    H137867   3.473   5.147   6.338  0.1744  1.8054 -0.2494
 5484TIP3    H237868   3.335   5.104   6.292 -0.4760  1.9762  1.5126
 5485TIP3   OH237869   0.774   1.123   5.617 -0.0512  0.1292  0.3798
 5485TIP3    H137870   0.730   1.135   5.702 -1.0235 -0.0509 -0.0934
 5485TIP3    H237871   0.732   1.188   5.560 -0.0258 -0.3646 -0.1999
 5486TIP3   OH237872   1.495   0.234   1.905  0.5757  0.1576 -0.5758
 5486TIP3    H137873   1.574   0.185   1.883  1.2716  1.3224 -0.6996
 5486TIP3    H237874   1.473   0.281   1.824 -0.8613 -0.9666 -0.8807
 5487TIP3   OH237875   1.620   1.173  12.622  0.2749 -0.0490 -0.7007
 5487TIP3    H137876   1.697   1.218  12.656  0.4898  0.6487 -2.0855
 5487TIP3    H237877   1.652   1.125  12.545 -0.6373  0.1137 -1.1872
 5488TIP3   OH237878   1.726   4.048   4.335 -0.4395  0.3968  0.1162
 5488TIP3    H137879   1.809   4.088   4.309 -0.6631  0.2362 -0.8385
 5488TIP3    H237880   1.747   4.001   4.416  0.9274 -1.4951 -1.2912
 5489TIP3   OH237881   0.407   5.397  11.321  0.1535 -0.2803 -0.0628
 5489TIP3    H137882   0.413   5.432  11.232  0.8775  1.3534  0.6001
 5489TIP3    H237883   0.330   5.440  11.358 -0.0291 -0.7991  0.1555
 5490TIP3   OH237884   2.807   4.360   3.833  0.2411 -0.4896 -0.3486
 5490TIP3    H137885   2.864   4.433   3.855  1.8070 -1.4365 -1.2343
 5490TIP3    H237886   2.862   4.282   3.838 -1.3732 -1.6245  0.4712
 5491TIP3   OH237887   1.461   2.929   0.247 -0.5789  0.4919  0.0055
 5491TIP3    H137888   1.509   3.009   0.226 -1.6258  0.9749 -0.5483
 5491TIP3    H237889   1.480   2.914   0.340  1.2894  0.2248 -0.3984
 5492TIP3   OH237890   0.208   0.411   5.842 -1.1638  0.0139  0.5304
 5492TIP3    H137891   0.232   0.437   5.931  0.3546 -2.9454  1.0551
 5492TIP3    H237892   0.143   0.341   5.854 -1.9758  0.5422 -0.7242
 5493TIP3   OH237893   6.688   4.050   5.111  0.2882 -0.6318  0.3889
 5493TIP3    H137894   6.700   4.013   5.023  0.8317  0.6494 -0.0837
 5493TIP3    H237895   6.594   4.071   5.115  0.3737 -0.1277 -0.1181
 5494TIP3   OH237896   4.566   6.342  14.729  0.0309 -0.2010  0.1805
 5494TIP3    H137897   4.657   6.370  14.717 -0.2647  1.1628  1.0479
 5494TIP3    H237898   4.569   6.282  14.804  0.7100 -2.8008 -1.8620
 5495TIP3   OH237899   1.808   3.074   3.383  0.5630 -0.6554 -0.3542
 5495TIP3    H137900   1.866   3.148   3.404  1.0319 -1.0682 -0.1999
 5495TIP3    H237901   1.826   3.055   3.291 -0.7631  0.4983 -0.8702
 5496TIP3   OH237902   4.405   4.844   0.065 -0.7046 -0.3398 -0.2889
 5496TIP3    H137903   4.390   4.843  -0.029  0.4063 -0.6840 -0.4661
 5496TIP3    H237904   4.462   4.769   0.081 -2.0106 -1.1302  0.8560
 5497TIP3   OH237905   2.516   5.283   4.601  0.5693 -0.1897  0.2172
 5497TIP3    H137906   2.585   5.348   4.589 -1.0397  1.4308 -0.4850
 5497TIP3    H237907   2.442   5.317   4.550 -0.0522 -2.9866 -0.8171
 5498TIP3   OH237908   6.482   5.857  12.970  0.0379  0.3581 -0.2649
 5498TIP3    H137909   6.483   5.923  12.901  3.2471 -0.4857 -1.1088
 5498TIP3    H237910   6.486   5.774  12.924 -1.4983 -0.3864  0.8762
 5499TIP3   OH237911   1.686   6.766   2.563  0.2414  0.5690  0.3992
 5499TIP3    H137912   1.632   6.701   2.519 -1.6407  1.9816  0.5428
 5499TIP3    H237913   1.771   6.760   2.520  0.2198 -2.2002  0.6430
 5500TIP3   OH237914   1.668   0.911   0.785 -0.1819 -0.1941 -0.3288
 5500TIP3    H137915   1.753   0.879   0.817 -0.1641 -1.9207 -1.9847
 5500TIP3    H237916   1.690   0.974   0.717 -0.2364  0.0624 -0.1106
 5501TIP3   OH237917   2.867   1.455   0.411  0.0445  0.6771 -0.8609
 5501TIP3    H137918   2.935   1.394   0.383  1.9809  1.1612  2.5364
 5501TIP3    H237919   2.912   1.539   0.416 -0.5412  0.8449  2.2614
 5502TIP3   OH237920   1.936   5.714   4.670  0.1637  0.0602  0.2229
 5502TIP3    H137921   1.874   5.734   4.739 -0.3020  0.9956 -0.4615
 5502TIP3    H237922   2.022   5.729   4.709 -0.0876  0.1227  0.7429
 5503TIP3   OH237923   0.187   2.695   1.915 -0.2028 -0.0386  0.3895
 5503TIP3    H137924   0.222   2.755   1.850  0.5785 -0.2952  0.5705
 5503TIP3    H237925   0.212   2.733   1.999  1.4604 -1.3037  0.4865
 5504TIP3   OH237926   0.688   0.904  15.322 -0.1676 -0.5873 -0.3042
 5504TIP3    H137927   0.744   0.979  15.345  0.5452 -1.4350  0.7507
 5504TIP3    H237928   0.684   0.906  15.226  1.0026 -0.0333 -0.3519
 5505TIP3   OH237929   6.763   5.283   2.974 -0.1448  0.3534  0.6077
 5505TIP3    H137930   6.758   5.337   3.052  0.3545  0.5445  0.5061
 5505TIP3    H237931   6.730   5.338   2.903 -2.6221 -0.5221  1.0373
 5506TIP3   OH237932   5.810   6.188   4.174  0.4246  0.1716 -0.1157
 5506TIP3    H137933   5.881   6.240   4.136  2.4308 -2.5918 -0.3636
 5506TIP3    H237934   5.825   6.193   4.268  0.8884 -0.2848 -0.1606
 5507TIP3   OH237935   1.478   4.721  15.139  0.2197 -0.6491 -0.7808
 5507TIP3    H137936   1.418   4.795  15.130  0.0457 -0.8050 -0.9035
 5507TIP3    H237937   1.541   4.749  15.206 -1.8937 -1.7323  1.7467
 5508TIP3   OH237938   0.321   5.838  10.390  0.4270  0.2267 -0.1066
 5508TIP3    H137939   0.309   5.745  10.370  0.6717  0.6632 -2.4400
 5508TIP3    H237940   0.239   5.879  10.362  1.2749  1.0399 -1.4789
 5509TIP3   OH237941   3.810   4.873   5.703 -0.0258 -0.7001  0.0282
 5509TIP3    H137942   3.717   4.897   5.700 -0.3940 -2.0566  0.1673
 5509TIP3    H237943   3.828   4.860   5.796  0.3858 -0.1412  0.0259
 5510TIP3   OH237944   4.793   6.246   0.368 -0.0843  0.3490  0.7645
 5510TIP3    H137945   4.759   6.173   0.419 -2.4539  1.3509  0.6916
 5510TIP3    H237946   4.789   6.216   0.277 -1.4579  0.6991  0.6987
 5511TIP3   OH237947   1.168   0.069  14.915  0.6694 -0.1382 -0.2398
 5511TIP3    H137948   1.141   0.104  14.830  0.6765 -0.9288 -0.5814
 5511TIP3    H237949   1.222  -0.007  14.892 -0.8278 -1.4492  0.4803
 5512TIP3   OH237950   0.864   5.504  15.038  0.1263  0.3430 -0.2732
 5512TIP3    H137951   0.944   5.550  15.014 -0.4268  1.5008  0.0800
 5512TIP3    H237952   0.793   5.565  15.018 -0.8243 -1.3875 -2.3646
 5513TIP3   OH237953   5.069   3.170  10.714  0.0654  0.2572  0.1990
 5513TIP3    H137954   5.014   3.223  10.657 -0.0260  0.6084  0.6111
 5513TIP3    H237955   5.044   3.080  10.695  0.9974  0.3011 -1.2935
 5514TIP3   OH237956   1.803   0.028   2.864  0.4500  0.2707 -0.3746
 5514TIP3    H137957   1.732   0.092   2.867 -0.0233 -0.2467 -0.3383
 5514TIP3    H237958   1.770  -0.040   2.805 -0.5219 -1.6745  2.3130
 5515TIP3   OH237959   6.522   0.000  14.812 -0.2036  0.5572 -0.5706
 5515TIP3    H137960   6.572  -0.081  14.811 -1.0973 -0.0191  0.4613
 5515TIP3    H237961   6.553   0.049  14.736 -1.0264 -1.5868 -2.3402
 5516TIP3   OH237962   6.500   0.156  12.236 -0.1488  1.4237  0.1423
 5516TIP3    H137963   6.444   0.119  12.167  0.5279  1.1849 -0.2881
 5516TIP3    H237964   6.491   0.096  12.310  0.6333  0.6018 -0.4176
 5517TIP3   OH237965   5.045   1.719  15.805  0.1336  0.6089  0.3875
 5517TIP3    H137966   5.131   1.677  15.805 -0.2196 -0.1379 -0.4523
 5517TIP3    H237967   5.056   1.796  15.861  1.3486  0.5256  0.2891
 5518TIP3   OH237968   1.207   2.266   0.325 -0.7242 -0.0277  0.8746
 5518TIP3    H137969   1.243   2.188   0.368 -0.3488 -0.5080 -0.2946
 5518TIP3    H237970   1.283   2.315   0.295 -0.9845 -0.1633 -0.0447
 5519TIP3   OH237971   0.842   4.002   1.259  0.4395 -0.0459  0.1185
 5519TIP3    H137972   0.844   3.961   1.172 -2.2690 -1.4175  0.6504
 5519TIP3    H237973   0.909   3.955   1.309 -1.6686 -2.9871  0.2988
 5520TIP3   OH237974   2.258   1.406  15.654  0.5279 -0.2457  0.4626
 5520TIP3    H137975   2.323   1.450  15.599  0.3600 -1.4492 -0.7203
 5520TIP3    H237976   2.311   1.357  15.718  0.7998 -1.2284 -0.5028
 5521TIP3   OH237977   4.746   5.926  14.924  0.3002  0.0849 -0.2124
 5521TIP3    H137978   4.705   5.839  14.926  1.4558 -0.4516  0.1436
 5521TIP3    H237979   4.814   5.919  14.857  0.0806  0.8673 -0.5220
 5522TIP3   OH237980   5.397   3.069  14.087  0.2519 -0.1766  0.2729
 5522TIP3    H137981   5.377   2.978  14.069  0.3923 -0.5677  2.0330
 5522TIP3    H237982   5.354   3.117  14.017  0.9202 -1.6382 -1.1671
 5523TIP3   OH237983   6.704   5.605   5.286  0.8247 -0.0569  0.1407
 5523TIP3    H137984   6.645   5.591   5.212  0.2521  1.3511  0.3223
 5523TIP3    H237985   6.755   5.683   5.263 -0.4900  1.3787  1.9211
 5524TIP3   OH237986   1.842   3.027  11.519  0.1448 -0.4984 -0.1026
 5524TIP3    H137987   1.884   2.947  11.486 -0.2613 -0.3852 -0.9015
 5524TIP3    H237988   1.751   3.019  11.492 -0.1793 -0.3491  0.9100
 5525TIP3   OH237989   2.079   6.357   3.289  0.0799 -0.3920 -0.1934
 5525TIP3    H137990   2.068   6.410   3.368  1.4615 -0.3543 -0.0246
 5525TIP3    H237991   2.098   6.421   3.220  0.0146 -0.5273 -0.3376
 5526TIP3   OH237992   5.594   1.185  13.698  0.3143  0.4843 -0.1497
 5526TIP3    H137993   5.525   1.219  13.755  1.8075  0.7131  1.5764
 5526TIP3    H237994   5.675   1.217  13.738  1.6395 -3.0039  0.0930
 5527TIP3   OH237995   6.667   3.525  13.441  0.3917 -0.5350 -0.1345
 5527TIP3    H137996   6.715   3.544  13.360 -0.8587 -1.6384 -1.1466
 5527TIP3    H237997   6.611   3.451  13.419 -1.0824  0.1189  1.3120
 5528TIP3   OH237998   2.250   0.394   4.766 -0.3649  0.2897  0.2477
 5528TIP3    H137999   2.202   0.438   4.836 -3.0643  1.5884 -2.3305
 5528TIP3    H238000   2.273   0.464   4.705  1.8840 -0.8434 -0.2798
 5529TIP3   OH238001   0.494   6.428   3.646 -0.0386 -0.4283  0.2800
 5529TIP3    H138002   0.547   6.361   3.602 -1.8373 -2.8673  1.6571
 5529TIP3    H238003   0.519   6.421   3.738 -0.0425  0.9983  0.3938
 5530TIP3   OH238004   5.093   2.520   4.093 -0.0186  0.0094  0.0979
 5530TIP3    H138005   5.095   2.438   4.043 -1.7947 -0.4822  0.7947
 5530TIP3    H238006   5.023   2.507   4.158 -0.7016  2.2792 -0.1403
 5531TIP3   OH238007   3.856   5.002   4.881 -0.6917  0.6012  0.0834
 5531TIP3    H138008   3.892   4.923   4.840  0.6520  0.4475  1.5102
 5531TIP3    H238009   3.764   4.982   4.895 -0.5466 -0.3941 -0.3547
 5532TIP3   OH238010   5.377   2.501  11.934 -0.3164 -0.5312  0.2535
 5532TIP3    H138011   5.309   2.444  11.970 -2.0361  0.5179 -1.2591
 5532TIP3    H238012   5.417   2.449  11.865 -0.6359 -0.5758  0.1002
 5533TIP3   OH238013   2.817   6.349  15.491  0.1209  0.1655  0.1364
 5533TIP3    H138014   2.807   6.425  15.434  0.3112 -0.0297 -0.1636
 5533TIP3    H238015   2.895   6.305  15.458 -1.2743 -1.4245 -1.1940
 5534TIP3   OH238016   3.997   0.145   3.351 -0.0871 -0.2604 -0.2181
 5534TIP3    H138017   3.917   0.151   3.403 -0.2042 -0.2206 -0.4036
 5534TIP3    H238018   4.063   0.113   3.413 -0.3544 -0.7549 -0.1824
 5535TIP3   OH238019   2.048   3.027   5.536  0.0772  0.0762  0.3065
 5535TIP3    H138020   2.128   2.975   5.527  0.2067  0.3907 -0.3614
 5535TIP3    H238021   2.078   3.118   5.537 -0.1036  0.1279  1.9323
 5536TIP3   OH238022   2.717   0.546  13.319 -0.2385 -0.1739 -0.0030
 5536TIP3    H138023   2.646   0.492  13.352  0.1563 -0.7700 -0.1320
 5536TIP3    H238024   2.681   0.635  13.319 -0.3955 -0.2178  1.6162
 5537TIP3   OH238025   5.056   5.884   1.544  0.0717  0.2808 -0.0996
 5537TIP3    H138026   5.023   5.804   1.586 -1.1563  1.1318  0.5838
 5537TIP3    H238027   5.012   5.955   1.591  2.2063  1.4117  0.2371
 5538TIP3   OH238028   2.910   4.453  10.815 -0.7124  0.6195  0.3310
 5538TIP3    H138029   2.975   4.457  10.885 -0.3285  0.5267 -0.0168
 5538TIP3    H238030   2.901   4.360  10.795 -0.6368  0.6617  0.0894
 5539TIP3   OH238031   1.369   3.472  15.278  0.7005  0.3732  0.2873
 5539TIP3    H138032   1.374   3.459  15.373  0.4099  0.5049  0.3208
 5539TIP3    H238033   1.349   3.565  15.267  0.3695  0.2833  0.1082
 5540TIP3   OH238034   2.885   3.731   6.287  0.2238 -0.6127  0.6780
 5540TIP3    H138035   2.957   3.759   6.231  1.1956 -0.2766  2.0706
 5540TIP3    H238036   2.876   3.801   6.351 -2.1813 -0.0512 -0.2208
 5541TIP3   OH238037   0.809   6.352  11.830  0.3442 -0.2107  0.0450
 5541TIP3    H138038   0.753   6.430  11.838  1.1006  0.4030 -0.5433
 5541TIP3    H238039   0.750   6.279  11.848 -0.5739  0.4396 -0.2314
 5542TIP3   OH238040   4.291   3.668  11.168 -0.0081 -0.0186 -0.1475
 5542TIP3    H138041   4.314   3.577  11.149  0.7789  0.3385 -0.9330
 5542TIP3    H238042   4.373   3.716  11.157 -0.2643  0.6952  0.9351
 5543TIP3   OH238043   3.313   1.766  13.916  0.3479 -0.4477  0.0784
 5543TIP3    H138044   3.395   1.730  13.882 -0.0534 -0.4928 -0.8579
 5543TIP3    H238045   3.338   1.848  13.959  0.8018 -0.1548 -0.7361
 5544TIP3   OH238046   0.475   4.949   3.335 -0.3244 -0.6601 -0.2696
 5544TIP3    H138047   0.477   4.915   3.424  0.4862  0.5759  0.1961
 5544TIP3    H238048   0.501   5.041   3.344  3.1754 -1.3722 -2.1698
 5545TIP3   OH238049   1.846   3.381  13.682  1.0055 -0.3413  0.0308
 5545TIP3    H138050   1.910   3.368  13.612 -1.1038 -0.1138 -1.9569
 5545TIP3    H238051   1.761   3.373  13.640 -0.3234 -0.8208  2.6779
 5546TIP3   OH238052   3.450   4.051  14.990 -0.7108  0.6713 -0.3741
 5546TIP3    H138053   3.414   4.071  15.077 -0.3558  0.0929 -0.0858
 5546TIP3    H238054   3.523   4.111  14.980 -0.5951  0.5663 -0.1632
 5547TIP3   OH238055   0.109   0.127   6.512  0.0780 -0.3873  0.4057
 5547TIP3    H138056   0.063   0.208   6.534  1.1808  0.4864 -0.4732
 5547TIP3    H238057   0.191   0.156   6.472  2.0903 -1.8726  3.2897
 5548TIP3   OH238058   1.505   2.973  15.256  0.1075 -0.3940  0.7444
 5548TIP3    H138059   1.440   3.040  15.277  0.8517  0.4224  0.4277
 5548TIP3    H238060   1.560   3.013  15.189  0.5751 -1.3068  0.5795
 5549TIP3   OH238061   4.674   6.002  15.213 -0.3177  0.1194  0.1615
 5549TIP3    H138062   4.628   6.086  15.214 -0.4974  0.0845 -2.5913
 5549TIP3    H238063   4.700   5.990  15.122  1.0531 -2.0998  0.8142
 5550TIP3   OH238064   0.879   6.653   2.424 -0.1977 -0.2370 -0.3109
 5550TIP3    H138065   0.878   6.718   2.353  0.2307  0.1491  0.0280
 5550TIP3    H238066   0.814   6.588   2.398  0.3206 -0.3760 -1.3191
 5551TIP3   OH238067   2.460   5.767  16.452  0.7241 -0.8666  0.1760
 5551TIP3    H138068   2.422   5.680  16.465  2.0471 -1.5523 -0.4432
 5551TIP3    H238069   2.417   5.801  16.374  0.6104 -1.1924  0.0945
 5552TIP3   OH238070   1.977   4.861  16.530 -0.3797 -0.2857  0.3096
 5552TIP3    H138071   1.980   4.782  16.477 -1.4928 -1.2084  1.5815
 5552TIP3    H238072   2.060   4.861  16.578 -0.8410 -1.2756  1.1164
 5553TIP3   OH238073   5.513   1.234  16.239  0.3149  0.3541 -0.8064
 5553TIP3    H138074   5.514   1.307  16.301 -1.1008  0.3725 -0.7839
 5553TIP3    H238075   5.499   1.275  16.153  0.1579  0.1579 -0.8745
 5554TIP3   OH238076   6.033   2.684   0.642  0.1364  0.0788  0.4740
 5554TIP3    H138077   5.984   2.714   0.719 -0.4907  0.9058 -0.2368
 5554TIP3    H238078   5.990   2.728   0.568  1.4805  0.2161 -0.2375
 5555TIP3   OH238079   3.051   1.352  12.867  0.5280 -0.3946  0.2012
 5555TIP3    H138080   2.995   1.276  12.885  1.1440 -0.6063  1.2565
 5555TIP3    H238081   3.061   1.395  12.952  1.6050 -0.1038 -0.0643
 5556TIP3   OH238082   3.973   4.924   0.534  0.0207  0.6614 -0.5400
 5556TIP3    H138083   3.986   4.944   0.441 -1.1076 -1.5026 -1.1877
 5556TIP3    H238084   4.059   4.897   0.565  0.5157  1.9000 -0.8144
 5557TIP3   OH238085   2.723   5.529  11.244  0.4593 -0.0778  0.1281
 5557TIP3    H138086   2.688   5.443  11.224  1.3715  0.0123 -1.9290
 5557TIP3    H238087   2.792   5.512  11.309  0.2968 -0.8318  0.1045
 5558TIP3   OH238088   3.365   1.027   1.026  0.1376 -0.3056  0.2679
 5558TIP3    H138089   3.448   1.063   1.057  0.0103 -0.2415  0.5371
 5558TIP3    H238090   3.372   1.027   0.931  1.2969 -2.2796  0.3262
 5559TIP3   OH238091   6.138   0.586  10.811  0.1305 -0.3510 -0.7441
 5559TIP3    H138092   6.221   0.556  10.774  0.4876 -0.9078  0.4860
 5559TIP3    H238093   6.161   0.665  10.860 -0.2170 -0.0288 -1.0953
 5560TIP3   OH238094   5.589   0.820   2.321 -0.0814 -0.1957  0.2556
 5560TIP3    H138095   5.588   0.753   2.389 -2.5140 -0.5508 -0.0776
 5560TIP3    H238096   5.566   0.773   2.240 -2.0007  1.0570  0.0537
 5561TIP3   OH238097   1.457   5.508  14.956 -0.6612  0.3039 -0.0940
 5561TIP3    H138098   1.499   5.423  14.943 -0.2408  0.6182 -0.8316
 5561TIP3    H238099   1.515   5.555  15.016 -0.9380  0.0471  0.3824
 5562TIP3   OH238100   2.353   1.852   4.036 -0.0861  0.0055 -0.1450
 5562TIP3    H138101   2.360   1.917   4.106 -2.2135 -0.6960  0.7585
 5562TIP3    H238102   2.384   1.897   3.958  2.9493  0.5841  1.3553
 5563TIP3   OH238103   1.614   5.270   1.378  0.2378 -0.6001  0.5860
 5563TIP3    H138104   1.678   5.340   1.364 -0.0271 -0.5208 -0.3027
 5563TIP3    H238105   1.627   5.242   1.468  0.3200  0.6326  0.9656
 5564TIP3   OH238106   3.576   3.222  12.201 -0.6736  0.3546  0.4035
 5564TIP3    H138107   3.572   3.271  12.284 -1.4868 -0.6478  0.9739
 5564TIP3    H238108   3.633   3.147  12.220 -0.4336  0.4050 -0.1068
 5565TIP3   OH238109   4.402   0.832  17.125  0.3589 -0.4155  0.1347
 5565TIP3    H138110   4.487   0.820  17.166  0.3376 -1.4467 -0.0966
 5565TIP3    H238111   4.390   0.927  17.122  2.2839 -0.1855 -1.4378
 5566TIP3   OH238112   2.708   4.258   6.041 -0.0330 -0.6603  0.0238
 5566TIP3    H138113   2.665   4.202   5.977  0.6751 -0.9279 -0.2214
 5566TIP3    H238114   2.665   4.236   6.124 -1.1178 -0.1384 -0.3810
 5567TIP3   OH238115   4.426   0.430  15.262 -0.3219  0.1869 -0.2131
 5567TIP3    H138116   4.420   0.341  15.298 -0.8802 -0.7123 -2.4626
 5567TIP3    H238117   4.343   0.471  15.288 -1.4136 -0.9670 -1.7552
 5568TIP3   OH238118   6.421   3.952   1.722 -0.1873  0.3724 -0.8023
 5568TIP3    H138119   6.470   3.981   1.798 -0.7665  1.5386 -0.8672
 5568TIP3    H238120   6.329   3.965   1.745 -0.3534  1.3077 -1.9023
 5569TIP3   OH238121   5.800   1.409   2.447 -0.2980  0.3928 -0.3103
 5569TIP3    H138122   5.854   1.481   2.481 -0.6351  0.7527 -0.5369
 5569TIP3    H238123   5.724   1.452   2.408 -0.5718 -0.0963 -0.3182
 5570TIP3   OH238124   3.033   1.957  13.906 -0.0698  0.1864 -0.4363
 5570TIP3    H138125   3.121   1.920  13.897 -0.7046 -1.2890 -0.7879
 5570TIP3    H238126   2.998   1.957  13.817 -0.5954  0.3323 -0.2288
 5571TIP3   OH238127   1.274   1.152   0.363  0.3053 -0.4588  0.6049
 5571TIP3    H138128   1.293   1.071   0.409 -1.0756  0.2422  2.4537
 5571TIP3    H238129   1.357   1.201   0.365  0.7027 -1.1376  0.8505
 5572TIP3   OH238130   3.460   3.081   5.855 -0.1868 -0.0276  0.4653
 5572TIP3    H138131   3.439   2.991   5.879 -0.4512  0.2045  1.1159
 5572TIP3    H238132   3.375   3.122   5.839 -0.2034  0.6659  2.2007
 5573TIP3   OH238133   0.090   4.527  16.092 -0.0930 -0.2634  0.1279
 5573TIP3    H138134   0.069   4.539  15.999 -1.9364  1.2021  0.7056
 5573TIP3    H238135   0.111   4.614  16.124 -0.7711 -0.5500  1.3848
 5574TIP3   OH238136   6.780   4.095  16.762  0.1519 -0.0600  0.1428
 5574TIP3    H138137   6.844   4.035  16.724 -1.1451 -0.5768 -1.3108
 5574TIP3    H238138   6.704   4.040  16.780 -0.4260  0.8269  0.4295
 5575TIP3   OH238139   3.082   0.657  13.332 -0.4897 -0.0814 -0.3192
 5575TIP3    H138140   3.162   0.699  13.362 -0.5844  0.2056 -0.4644
 5575TIP3    H238141   3.015   0.686  13.393 -0.6849  0.5117 -0.8022
 5576TIP3   OH238142   3.780   2.571   0.669  0.0592  0.1822  0.2197
 5576TIP3    H138143   3.827   2.647   0.704 -0.3681  0.4932  0.1144
 5576TIP3    H238144   3.696   2.606   0.639  0.2755 -0.1472 -0.7906
 5577TIP3   OH238145   4.466   1.741   5.360 -0.0650 -0.3976 -0.0593
 5577TIP3    H138146   4.542   1.736   5.302  0.1051 -0.4941  0.1675
 5577TIP3    H238147   4.496   1.793   5.434 -0.2649 -0.3174 -0.0351
 5578TIP3   OH238148   2.057   5.218  14.551 -0.2696 -0.0658 -0.5041
 5578TIP3    H138149   2.142   5.257  14.533  0.1556 -0.6302  0.2362
 5578TIP3    H238150   2.051   5.218  14.647 -0.7046 -0.8745 -0.5287
 5579TIP3   OH238151   5.317   1.346  11.582  0.8009 -0.3843 -0.1302
 5579TIP3    H138152   5.371   1.424  11.590  0.8966 -0.5043  0.4448
 5579TIP3    H238153   5.367   1.287  11.525  1.8213 -0.9476  1.3116
 5580TIP3   OH238154   2.877   6.689   1.028 -0.1829 -0.0606  0.0977
 5580TIP3    H138155   2.922   6.678   0.944  0.6125 -0.0478  0.5108
 5580TIP3    H238156   2.815   6.760   1.012  1.7797  1.7580  0.2091
 5581TIP3   OH238157   5.291   5.856  16.620 -0.3573  0.3608  0.2714
 5581TIP3    H138158   5.228   5.817  16.680 -0.0834  0.2602  0.4922
 5581TIP3    H238159   5.240   5.917  16.567 -0.9220 -0.7576 -0.5073
 5582TIP3   OH238160   0.520   4.862   0.344 -0.6758  0.0663 -0.4103
 5582TIP3    H138161   0.447   4.811   0.380 -0.0059 -0.5226  0.1409
 5582TIP3    H238162   0.590   4.797   0.333  0.1539  0.8521  0.2096
 5583TIP3   OH238163   0.159   6.641   3.935 -0.8194  0.4333  0.1712
 5583TIP3    H138164   0.243   6.603   3.962 -1.3472 -0.3854  0.6742
 5583TIP3    H238165   0.184   6.715   3.879  0.2306 -0.1656 -0.1781
 5584TIP3   OH238166   6.700   0.721  14.053 -0.1699  0.5365  0.2778
 5584TIP3    H138167   6.609   0.709  14.027  0.1910 -1.9654  0.0649
 5584TIP3    H238168   6.751   0.682  13.982  1.0800  1.6607  0.5271
 5585TIP3   OH238169   1.337   1.271   0.111 -0.1437 -0.8505  0.1725
 5585TIP3    H138170   1.291   1.240   0.189 -1.5960 -1.0894 -0.7765
 5585TIP3    H238171   1.349   1.365   0.126  0.5654 -1.0924  1.1732
 5586TIP3   OH238172   1.947   0.484  16.881  0.6482  0.1716 -0.3132
 5586TIP3    H138173   1.901   0.568  16.881  2.3847  1.1580  1.5772
 5586TIP3    H238174   1.880   0.421  16.909  0.3374  1.5676  2.2759
 5587TIP3   OH238175   2.212   1.824   3.554 -0.3609  0.4147 -0.1994
 5587TIP3    H138176   2.288   1.783   3.512 -0.3802 -0.9011  1.0592
 5587TIP3    H238177   2.137   1.794   3.502 -0.2931 -0.4614  0.2131
 5588TIP3   OH238178   6.782   3.092   5.253 -0.3098  0.4305 -0.9897
 5588TIP3    H138179   6.828   3.021   5.299 -0.3725  1.4797  0.7382
 5588TIP3    H238180   6.844   3.165   5.255 -0.4942  0.6184 -2.1962
 5589TIP3   OH238181   6.622   3.835   5.371  0.1057  0.5594  0.6500
 5589TIP3    H138182   6.700   3.868   5.327 -0.7649  2.6354  0.5982
 5589TIP3    H238183   6.571   3.914   5.392 -1.1475 -0.6379  2.2362
 5590TIP3   OH238184   5.417   4.160  16.696 -0.1344 -0.2340 -0.4933
 5590TIP3    H138185   5.395   4.086  16.639 -0.1391  1.3033 -2.5034
 5590TIP3    H238186   5.512   4.166  16.692 -0.0072 -1.0487  0.8725
 5591TIP3   OH238187   3.410   0.043  13.730 -0.2571 -0.6348  0.0950
 5591TIP3    H138188   3.315   0.030  13.728 -0.3736  0.2515 -0.4962
 5591TIP3    H238189   3.437   0.007  13.815 -1.2413 -0.1393  0.6329
 5592TIP3   OH238190   4.421   6.166  12.223 -0.2045  0.3113 -0.1312
 5592TIP3    H138191   4.407   6.221  12.300 -2.7934  0.3714 -0.5998
 5592TIP3    H238192   4.387   6.217  12.150  1.0806 -0.2626 -1.1545
 5593TIP3   OH238193   5.620   2.218   4.619  0.2969  0.3512  0.3576
 5593TIP3    H138194   5.585   2.307   4.614  0.7675  0.4762 -0.8788
 5593TIP3    H238195   5.615   2.185   4.530  2.5866  0.0840  0.2958
 5594TIP3   OH238196   6.572   6.258  15.520 -0.2039 -0.6047  0.5393
 5594TIP3    H138197   6.615   6.222  15.443 -3.4053  2.2105 -2.7821
 5594TIP3    H238198   6.602   6.349  15.524 -0.6764 -0.4987  2.1503
 5595TIP3   OH238199   3.921   2.420   3.148 -0.4966  0.6041 -0.0394
 5595TIP3    H138200   3.935   2.412   3.053 -0.4757  2.3364 -0.2084
 5595TIP3    H238201   4.007   2.404   3.187 -0.5212 -0.1862 -0.3063
 5596TIP3   OH238202   4.587   3.205   5.579  1.2208 -0.8391  0.2840
 5596TIP3    H138203   4.631   3.168   5.502 -1.1567 -0.8843 -1.1210
 5596TIP3    H238204   4.657   3.220   5.642  3.0869 -1.8449 -1.4812
 5597TIP3   OH238205   6.597   4.690   0.475 -0.3628  0.4508  0.0378
 5597TIP3    H138206   6.528   4.638   0.434 -0.7151 -0.2180  1.4405
 5597TIP3    H238207   6.659   4.709   0.405 -1.2369 -0.1875 -0.9097
 5598TIP3   OH238208   6.161   3.234   4.597 -0.0803  0.0328 -0.1367
 5598TIP3    H138209   6.128   3.286   4.671  0.0347  0.5223 -0.4273
 5598TIP3    H238210   6.227   3.290   4.557  1.5426 -1.1841  0.8013
 5599TIP3   OH238211   1.006   2.303  14.123  0.0885  0.0395 -0.6113
 5599TIP3    H138212   1.013   2.232  14.187  0.7657  1.3763  0.8428
 5599TIP3    H238213   1.089   2.303  14.077  0.2261  0.1074 -0.3640
 5600TIP3   OH238214   1.629   5.289  15.323 -0.1025  0.1558 -0.3080
 5600TIP3    H138215   1.718   5.256  15.333  0.1049  0.3543 -1.4685
 5600TIP3    H238216   1.585   5.225  15.267 -0.1537  1.0192 -1.2658
 5601TIP3   OH238217   0.622   2.260   3.613 -0.0645  0.1533  0.0807
 5601TIP3    H138218   0.576   2.274   3.696  0.6759 -1.8406  0.8846
 5601TIP3    H238219   0.649   2.347   3.584  3.1808  0.6357  4.0229
 5602TIP3   OH238220   2.859   5.906   4.687  0.1848 -0.0003  1.0452
 5602TIP3    H138221   2.853   5.879   4.778  1.4930  0.9153  1.4224
 5602TIP3    H238222   2.922   5.845   4.648 -1.3017 -1.1772  0.4263
 5603TIP3   OH238223   3.113   6.382   3.640 -0.2706  0.8720  0.1318
 5603TIP3    H138224   3.062   6.314   3.684 -0.4234  0.8376 -0.0959
 5603TIP3    H238225   3.101   6.460   3.694 -0.1786  0.7432  0.3380
 5604TIP3   OH238226   0.435   3.787   2.856 -0.4142 -0.2078  0.1388
 5604TIP3    H138227   0.346   3.784   2.822 -0.6991  0.5267  0.8007
 5604TIP3    H238228   0.491   3.784   2.778 -1.0875  3.7920 -0.5795
 5605TIP3   OH238229   2.981   2.811  12.822 -0.2331  0.3725  0.2464
 5605TIP3    H138230   2.979   2.790  12.915 -0.8316  0.4908  0.2557
 5605TIP3    H238231   3.029   2.894  12.817 -1.4381  1.0980  0.5770
 5606TIP3   OH238232   6.551   1.630  14.209 -0.2801  0.2641  0.5855
 5606TIP3    H138233   6.473   1.604  14.159  0.0451  2.6320 -1.2604
 5606TIP3    H238234   6.621   1.575  14.174 -0.5847  0.0947  0.2335
 5607TIP3   OH238235   0.751   1.428   4.194  0.4627 -0.3313  0.4503
 5607TIP3    H138236   0.845   1.433   4.177  0.9502  2.4451  3.4296
 5607TIP3    H238237   0.744   1.408   4.288 -1.9132 -1.0767  0.1545
 5608TIP3   OH238238   0.509   1.413  16.047 -0.1267  0.1809 -0.0192
 5608TIP3    H138239   0.562   1.453  15.978 -1.4189  2.2914  0.1864
 5608TIP3    H238240   0.422   1.450  16.035 -0.6478 -0.3314  2.0290
 5609TIP3   OH238241   6.745   1.631   4.202  0.3183  0.3184  0.1590
 5609TIP3    H138242   6.674   1.629   4.266  1.8093  1.4510  1.8938
 5609TIP3    H238243   6.791   1.548   4.214 -0.1639 -0.0259 -0.3462
 5610TIP3   OH238244   0.718   6.774   5.932  0.3117 -0.0298  0.4130
 5610TIP3    H138245   0.693   6.818   6.013  1.1558 -0.0273  0.6812
 5610TIP3    H238246   0.636   6.762   5.885 -0.1969 -0.0742  1.2920
 5611TIP3   OH238247   0.505   3.121  11.422 -0.1331 -0.0775  0.0420
 5611TIP3    H138248   0.443   3.094  11.354  0.9952 -1.0688 -0.6318
 5611TIP3    H238249   0.451   3.138  11.499 -1.2693 -0.5908 -0.6303
 5612TIP3   OH238250   3.748   2.893  11.247 -0.4888 -0.5769  0.6363
 5612TIP3    H138251   3.728   2.950  11.173  0.0563 -0.5207  0.5263
 5612TIP3    H238252   3.841   2.874  11.237 -0.2827 -0.1048  1.6243
 5613TIP3   OH238253   4.119   4.771   6.724  0.3435  0.1065  0.7279
 5613TIP3    H138254   4.076   4.709   6.783 -0.7738 -1.4873 -1.6443
 5613TIP3    H238255   4.200   4.726   6.698 -0.7182 -0.6319 -1.4045
 5614TIP3   OH238256   3.365   2.709  14.328 -0.0064 -0.0117 -0.1332
 5614TIP3    H138257   3.340   2.641  14.390 -0.9715  0.0687 -0.4238
 5614TIP3    H238258   3.315   2.786  14.355 -1.5463 -0.3796 -1.8724
 5615TIP3   OH238259   3.376   4.131  14.709 -0.5914 -0.6078  0.1311
 5615TIP3    H138260   3.444   4.096  14.651  2.5114  2.9631  1.4104
 5615TIP3    H238261   3.389   4.085  14.792 -0.4824 -0.6992  0.0628
 5616TIP3   OH238262   1.542   3.245   5.901 -0.4159  0.2610  0.0683
 5616TIP3    H138263   1.484   3.299   5.847 -0.0517  2.2120  1.5536
 5616TIP3    H238264   1.511   3.259   5.991  0.4586 -1.0741  0.5950
 5617TIP3   OH238265   3.514   5.940   6.694 -0.3940  0.3750 -0.5816
 5617TIP3    H138266   3.590   5.881   6.695 -0.6582  0.0240  0.7454
 5617TIP3    H238267   3.519   5.986   6.610  1.6321  0.8067 -0.2419
 5618TIP3   OH238268   1.542   3.525  11.409 -0.1118  0.8608  0.4906
 5618TIP3    H138269   1.481   3.578  11.461 -0.9195  0.4792 -0.0459
 5618TIP3    H238270   1.499   3.517  11.324 -0.0546 -0.7165  0.5889
 5619TIP3   OH238271   3.807   0.305   2.667 -0.1312 -0.2265 -0.3010
 5619TIP3    H138272   3.813   0.212   2.687  0.5658 -0.6685 -2.4706
 5619TIP3    H238273   3.716   0.318   2.639  1.0488 -1.3346 -4.9781
 5620TIP3   OH238274   3.519   3.697  14.002  0.4312 -1.0356  0.3095
 5620TIP3    H138275   3.515   3.789  13.978 -0.9489 -0.4526  2.5404
 5620TIP3    H238276   3.434   3.679  14.043  0.8259 -3.1878  0.2685
 5621TIP3   OH238277   3.414   6.626   1.195 -0.1123  0.1545 -0.1273
 5621TIP3    H138278   3.449   6.548   1.151 -0.6442  0.0980 -0.4522
 5621TIP3    H238279   3.398   6.597   1.285  0.5960  0.1561 -0.0022
 5622TIP3   OH238280   2.147   2.811   0.693 -0.4866  0.2761  0.2227
 5622TIP3    H138281   2.216   2.746   0.685  1.2718  2.1886 -0.8284
 5622TIP3    H238282   2.179   2.872   0.760 -1.7482  0.4713  0.6566
 5623TIP3   OH238283   1.657   5.455   4.497 -0.4259  0.2340  0.8645
 5623TIP3    H138284   1.579   5.464   4.550 -0.7784  0.1955  0.3548
 5623TIP3    H238285   1.725   5.429   4.559 -1.0980 -0.9799  1.1145
 5624TIP3   OH238286   3.464   3.790  12.229  0.3571  0.5141 -0.2187
 5624TIP3    H138287   3.408   3.742  12.168  1.4421  0.7306 -1.3875
 5624TIP3    H238288   3.546   3.741  12.230  0.3886  0.5736  0.9907
 5625TIP3   OH238289   4.540   5.756  13.945 -0.2682 -0.0086 -0.1669
 5625TIP3    H138290   4.462   5.719  13.985  0.0628 -1.3207 -0.7221
 5625TIP3    H238291   4.579   5.811  14.013 -0.7852 -0.6471  0.6338
 5626TIP3   OH238292   0.998   3.988  14.568 -0.0560  0.4339 -0.5874
 5626TIP3    H138293   0.923   4.005  14.510  0.0475  0.7835 -0.6173
 5626TIP3    H238294   0.977   3.905  14.610 -0.6790  0.7597 -0.2485
 5627TIP3   OH238295   1.332   6.383  14.847  0.1864  0.2804  0.6761
 5627TIP3    H138296   1.243   6.411  14.827  0.5027  0.9653  0.1955
 5627TIP3    H238297   1.324   6.291  14.872 -0.6446  0.3256  0.5698
 5628TIP3   OH238298   4.148   2.759  13.884 -0.6405 -0.3587  0.2714
 5628TIP3    H138299   4.186   2.830  13.831 -2.0828 -0.5980 -1.1237
 5628TIP3    H238300   4.097   2.803  13.951 -2.0536 -0.0536 -0.9810
 5629TIP3   OH238301   4.559   3.097   1.398 -0.6522 -0.5317 -0.4982
 5629TIP3    H138302   4.544   3.007   1.429 -0.9803 -0.0775  0.6994
 5629TIP3    H238303   4.600   3.141   1.472 -2.5883  0.9246 -0.2584
 5630TIP3   OH238304   3.817   2.736   2.364 -0.2728 -0.3282  0.2488
 5630TIP3    H138305   3.791   2.721   2.455 -2.5228 -3.3354 -0.8119
 5630TIP3    H238306   3.735   2.743   2.316  0.8902  0.7320 -1.6787
 5631TIP3   OH238307   6.693   5.234   2.249  0.0203  0.4230  0.3959
 5631TIP3    H138308   6.676   5.241   2.155  2.0573 -1.8447 -0.1794
 5631TIP3    H238309   6.699   5.140   2.266  3.0482  0.8698  2.1456
 5632TIP3   OH238310   2.385   2.070   0.546  0.1032 -0.5053  0.3930
 5632TIP3    H138311   2.440   2.141   0.579  0.2167 -0.7483  0.7307
 5632TIP3    H238312   2.348   2.029   0.624 -1.8943  0.7008  0.0972
 5633TIP3   OH238313   4.941   5.169  16.125  0.2302 -0.4664 -0.1292
 5633TIP3    H138314   5.001   5.172  16.051 -1.0608 -2.2916 -1.2656
 5633TIP3    H238315   4.881   5.242  16.110  0.3947 -0.4064 -0.4962
 5634TIP3   OH238316   5.112   2.618  13.984 -0.2192 -0.0844  0.4275
 5634TIP3    H138317   5.162   2.538  13.964  1.7428  1.4331 -0.9009
 5634TIP3    H238318   5.052   2.628  13.910  1.7098  1.3457 -0.9789
 5635TIP3   OH238319   5.624   4.665   4.272  0.2131  0.1110  0.0295
 5635TIP3    H138320   5.587   4.717   4.201 -0.7566  0.3154  0.6739
 5635TIP3    H238321   5.716   4.653   4.248 -0.4112 -0.9512 -1.9133
 5636TIP3   OH238322   0.790   2.145   3.976 -0.6870 -0.5899  0.3592
 5636TIP3    H138323   0.719   2.197   4.014 -0.1880  1.2015 -1.0932
 5636TIP3    H238324   0.849   2.209   3.936  0.5414 -2.1931 -0.4818
 5637TIP3   OH238325   3.435   1.995  11.132  0.7515 -0.7606  0.3133
 5637TIP3    H138326   3.488   1.930  11.085 -0.2008 -0.3518 -1.3686
 5637TIP3    H238327   3.345   1.963  11.123  0.2542  0.8756 -0.7019
 5638TIP3   OH238328   5.966   2.705  12.997  0.0111  0.0256  0.2584
 5638TIP3    H138329   5.908   2.630  12.984 -0.2060  0.3312 -0.5714
 5638TIP3    H238330   5.935   2.770  12.934  0.6739  0.5383  0.4573
 5639TIP3   OH238331   3.603   0.074   5.566  0.2417  0.0548  0.1410
 5639TIP3    H138332   3.673   0.107   5.510 -2.0889 -0.6622 -3.3342
 5639TIP3    H238333   3.608  -0.021   5.557 -0.5815 -0.0383  0.6119
 5640TIP3   OH238334   5.068   1.451  11.216  0.3391  0.2788 -0.2656
 5640TIP3    H138335   5.082   1.377  11.276  0.5753  0.0730 -0.5725
 5640TIP3    H238336   5.149   1.502  11.224  0.8514 -0.3521 -1.2541
 5641TIP3   OH238337   5.828   0.923   0.956  0.3108  0.1421  0.3026
 5641TIP3    H138338   5.781   0.892   0.879 -0.2255  0.6269  0.4350
 5641TIP3    H238339   5.917   0.939   0.926  0.1112  0.2876 -0.2057
 5642TIP3   OH238340   0.004   1.218  11.142 -0.1359 -0.7481 -0.1124
 5642TIP3    H138341  -0.086   1.186  11.144 -1.4282  2.6732 -1.2741
 5642TIP3    H238342   0.025   1.224  11.049  0.1535  1.4487  0.0690
 5643TIP3   OH238343   4.486   0.370   1.628 -0.1127 -0.2769  0.4238
 5643TIP3    H138344   4.405   0.421   1.622 -0.6134 -1.0483  0.4615
 5643TIP3    H238345   4.499   0.337   1.539  0.5172  0.3748  0.2713
 5644TIP3   OH238346   4.063   2.338  13.715 -0.1767 -0.3790 -0.7422
 5644TIP3    H138347   4.103   2.252  13.703  0.9793 -0.1973  1.6385
 5644TIP3    H238348   4.122   2.399  13.669  0.5592 -0.5141  0.0100
 5645TIP3   OH238349   2.537   0.655   4.878 -0.5413 -0.4802  0.0350
 5645TIP3    H138350   2.531   0.661   4.783 -0.2552  1.7098  0.1222
 5645TIP3    H238351   2.534   0.561   4.897 -0.3723 -0.9444 -2.1405
 5646TIP3   OH238352   3.889   0.996   1.916  0.2381  0.1478  0.5318
 5646TIP3    H138353   3.831   1.061   1.876  0.6782  0.3662  0.2453
 5646TIP3    H238354   3.830   0.925   1.941  0.0813 -0.4495 -1.4374
 5647TIP3   OH238355   5.190   3.059   5.733 -0.6619 -0.4596 -0.3609
 5647TIP3    H138356   5.097   3.040   5.740 -0.8669  0.3033 -0.9415
 5647TIP3    H238357   5.232   3.002   5.797 -1.8152  1.4021  2.0970
 5648TIP3   OH238358   6.023   5.520  17.014  0.2768 -0.3066  0.2148
 5648TIP3    H138359   6.038   5.556  16.926 -0.5748  0.4703  0.3853
 5648TIP3    H238360   5.997   5.596  17.067  0.5108 -0.8221  1.0730
 5649TIP3   OH238361   0.351   2.981   0.645 -0.2295 -0.5208  0.5820
 5649TIP3    H138362   0.278   3.038   0.669  1.2865  1.3596  0.8582
 5649TIP3    H238363   0.373   3.007   0.555  0.3679 -0.7494  0.6572
 5650TIP3   OH238364   1.537   1.756  15.516 -0.2324  0.5296 -0.1075
 5650TIP3    H138365   1.493   1.731  15.435 -0.6241  0.4042  0.1420
 5650TIP3    H238366   1.498   1.840  15.540  0.4181  0.9356 -0.4486
 5651TIP3   OH238367   3.126   2.114   2.019 -0.2056 -0.1534 -0.1353
 5651TIP3    H138368   3.080   2.193   1.991  1.9765  0.6175 -1.5901
 5651TIP3    H238369   3.091   2.044   1.963  1.6317  0.7510 -2.4457
 5652TIP3   OH238370   6.211   6.292  14.833  0.1395  0.2162 -0.1011
 5652TIP3    H138371   6.136   6.351  14.836 -0.8532 -1.0486  0.1873
 5652TIP3    H238372   6.203   6.246  14.749  0.0349 -0.6301  0.3622
 5653TIP3   OH238373   0.102   1.900  11.858 -0.3779  0.1635  0.3414
 5653TIP3    H138374   0.087   1.886  11.764 -0.3540 -2.2874  0.6725
 5653TIP3    H238375   0.020   1.938  11.890 -0.1403  1.6931 -0.7742
 5654TIP3   OH238376   2.306   0.079  13.042  0.0874  0.1788  0.4658
 5654TIP3    H138377   2.268  -0.005  13.016  0.4746  0.2489 -0.3740
 5654TIP3    H238378   2.389   0.082  12.994  0.3845  0.7364  1.0255
 5655TIP3   OH238379   4.403   4.603   3.135 -0.3084  0.3713 -0.2865
 5655TIP3    H138380   4.448   4.561   3.062 -0.7754  0.7036 -0.7648
 5655TIP3    H238381   4.458   4.583   3.211 -0.0587 -0.3492 -0.6517
 5656TIP3   OH238382   1.896   1.657   0.636  0.2070 -0.0159 -0.0974
 5656TIP3    H138383   1.938   1.703   0.709 -0.3209 -0.4134  0.4681
 5656TIP3    H238384   1.886   1.567   0.668 -0.9853  0.0508 -0.2506
 5657TIP3   OH238385   5.805   2.051   4.785 -0.6413  0.5011  0.2433
 5657TIP3    H138386   5.767   2.111   4.720  1.1323  1.8536  0.4302
 5657TIP3    H238387   5.749   2.061   4.862 -1.1369  0.9303 -0.1661
 5658TIP3   OH238388   4.974   2.712  11.724 -0.1469 -0.0049 -0.1650
 5658TIP3    H138389   4.902   2.755  11.679  1.0254  1.8302 -0.3582
 5658TIP3    H238390   5.051   2.765  11.702  1.1998 -1.7008  0.3272
 5659TIP3   OH238391   1.508   0.878  15.171  0.3307 -0.0890 -0.3296
 5659TIP3    H138392   1.479   0.813  15.235  2.5815 -2.4245 -1.6056
 5659TIP3    H238393   1.560   0.940  15.223 -2.2415  1.0453  0.9739
 5660TIP3   OH238394   5.296   0.666   1.935  0.5342 -0.4029  0.4806
 5660TIP3    H138395   5.364   0.720   1.975  0.1789  0.7625 -0.4630
 5660TIP3    H238396   5.255   0.620   2.009  0.0406  1.5279  1.4353
 5661TIP3   OH238397   4.358   0.604  10.982 -0.5207  0.3719 -0.2673
 5661TIP3    H138398   4.287   0.543  10.963  0.1253  0.3059 -2.5530
 5661TIP3    H238399   4.436   0.550  10.985 -0.3698  0.6408  0.9338
 5662TIP3   OH238400   5.425   6.297  13.100  0.1116 -0.0906 -0.0485
 5662TIP3    H138401   5.424   6.256  13.013 -1.8871 -2.1087  0.8905
 5662TIP3    H238402   5.454   6.228  13.159  0.9108  1.1100  1.0088
 5663TIP3   OH238403   2.624   2.362   2.017 -0.0308 -0.4543  0.1358
 5663TIP3    H138404   2.573   2.285   1.992 -1.1960  0.0027  1.0296
 5663TIP3    H238405   2.571   2.436   1.986  0.7336  0.0005 -0.0846
 5664TIP3   OH238406   3.657   6.356  12.519 -0.4152  0.3925 -0.3336
 5664TIP3    H138407   3.566   6.349  12.547 -0.4300  0.0345 -0.4794
 5664TIP3    H238408   3.670   6.450  12.504 -1.0145  0.3486 -1.1608
 5665TIP3   OH238409   6.291   2.512  13.196  0.0735 -0.1028  0.0326
 5665TIP3    H138410   6.258   2.601  13.200 -0.0613 -0.0838 -1.2160
 5665TIP3    H238411   6.265   2.472  13.279 -3.2409 -0.1484 -0.9751
 5666TIP3   OH238412   3.423   1.223   2.375 -0.0625 -0.3153 -0.2823
 5666TIP3    H138413   3.376   1.280   2.435 -0.9764 -1.1666 -0.1659
 5666TIP3    H238414   3.483   1.281   2.328 -0.4077  0.5937  0.3927
 5667TIP3   OH238415   0.097   2.261  16.453 -0.1509 -0.4620  0.1862
 5667TIP3    H138416   0.017   2.230  16.495 -1.4272  0.4791 -1.5083
 5667TIP3    H238417   0.069   2.292  16.367  1.9656  0.3061 -0.2594
 5668TIP3   OH238418   0.786   4.677  13.919  0.6390 -0.1510 -0.1899
 5668TIP3    H138419   0.850   4.693  13.850  0.8482 -1.4706 -0.3097
 5668TIP3    H238420   0.821   4.722  13.996 -0.3683  2.6787 -1.3075
 5669TIP3   OH238421   3.542   4.970   4.285 -0.1111 -0.4548 -0.4875
 5669TIP3    H138422   3.466   5.026   4.264 -1.5527 -1.5350  1.6735
 5669TIP3    H238423   3.530   4.947   4.377  2.1679 -1.7449 -0.4805
 5670TIP3   OH238424   6.207   4.247   4.966 -0.5203 -0.5419 -0.0670
 5670TIP3    H138425   6.215   4.337   4.997  2.5804 -1.5417  2.2465
 5670TIP3    H238426   6.113   4.231   4.962 -1.0830  2.3213  0.9473
 5671TIP3   OH238427   6.211   5.910   2.334 -0.6333  0.9362 -0.1079
 5671TIP3    H138428   6.291   5.897   2.283 -0.2059  3.2500 -0.0784
 5671TIP3    H238429   6.197   5.827   2.378  0.2585 -0.3758 -2.2172
 5672TIP3   OH238430   2.491   1.120  14.503 -0.8454 -0.4999 -0.0430
 5672TIP3    H138431   2.541   1.170  14.567 -0.0073 -2.9189  1.2447
 5672TIP3    H238432   2.542   1.127  14.422  0.3827 -1.0323  0.6760
 5673TIP3   OH238433   1.463   2.980   3.609  0.6202 -0.8374 -0.5793
 5673TIP3    H138434   1.515   2.907   3.644 -1.2758 -1.3305  1.2940
 5673TIP3    H238435   1.373   2.956   3.628 -0.0573  1.8813 -0.1867
 5674TIP3   OH238436   5.789   6.700   2.757  0.5848  0.1493 -0.6471
 5674TIP3    H138437   5.815   6.791   2.742 -0.6280  0.6400  0.1670
 5674TIP3    H238438   5.845   6.670   2.828  1.2082  0.1623 -1.1341
 5675TIP3   OH238439   2.143   0.786  12.180  0.0694 -0.4883 -0.0700
 5675TIP3    H138440   2.174   0.813  12.266 -0.5542  0.5219 -0.1458
 5675TIP3    H238441   2.059   0.830  12.170  0.1758 -0.5254 -1.2295
 5676TIP3   OH238442   3.878   1.059  15.836  0.4840 -0.2580 -0.2328
 5676TIP3    H138443   3.859   1.032  15.925  0.2302  1.3386  0.2017
 5676TIP3    H238444   3.940   1.132  15.845  0.4448 -0.0756 -1.3492
 5677TIP3   OH238445   1.534   3.681  12.674  0.9816  0.4083 -0.3480
 5677TIP3    H138446   1.586   3.761  12.681  1.2532  0.2681 -0.7275
 5677TIP3    H238447   1.466   3.701  12.610  1.1694  0.2741 -0.5913
 5678TIP3   OH238448   5.818   3.647   0.876  0.6787 -0.2632 -0.3517
 5678TIP3    H138449   5.887   3.708   0.849  2.2109 -1.7923 -0.0392
 5678TIP3    H238450   5.848   3.613   0.961 -1.0611 -0.0631  0.3627
 5679TIP3   OH238451   6.329   4.322  15.685  0.2980  0.2038  0.0827
 5679TIP3    H138452   6.362   4.363  15.606 -3.2052  0.6834 -1.1981
 5679TIP3    H238453   6.357   4.230  15.679  1.0246  0.5017 -1.0988
 5680TIP3   OH238454   5.996   0.269   0.794  0.6258 -0.2168  0.1185
 5680TIP3    H138455   6.089   0.263   0.771  0.7001  2.0301 -0.2434
 5680TIP3    H238456   5.992   0.339   0.860 -1.0532  1.0985 -1.3336
 5681TIP3   OH238457   2.079   6.612   3.173  0.0272  0.4671 -0.2161
 5681TIP3    H138458   2.050   6.677   3.109 -0.3330  0.1268 -0.4005
 5681TIP3    H238459   2.035   6.636   3.254 -1.9562 -0.9045 -0.8433
 5682TIP3   OH238460   4.429   4.417   3.775  0.6210  0.0485  0.2978
 5682TIP3    H138461   4.367   4.344   3.783  1.7508 -0.9023  0.4728
 5682TIP3    H238462   4.489   4.390   3.705  0.2283  1.4165 -0.5860
 5683TIP3   OH238463   1.765   5.125   4.058 -0.3241  0.1805  0.0462
 5683TIP3    H138464   1.684   5.172   4.080  0.0146  1.3344 -1.0973
 5683TIP3    H238465   1.737   5.034   4.045 -1.4648  0.5866 -0.4625
 5684TIP3   OH238466   5.957   3.885  16.615  0.3833  0.1104  0.0479
 5684TIP3    H138467   6.020   3.912  16.548 -1.4132  1.2078 -1.2643
 5684TIP3    H238468   5.995   3.914  16.698  0.6564  2.6505 -0.9117
 5685TIP3   OH238469   1.865   6.762  14.518  0.2575  0.5243  0.3935
 5685TIP3    H138470   1.930   6.715  14.571 -0.3756 -0.3895  0.3704
 5685TIP3    H238471   1.831   6.696  14.458  1.5565  1.7410 -1.7363
 5686TIP3   OH238472   4.731   0.646   2.551  0.3708 -0.0639 -0.4285
 5686TIP3    H138473   4.729   0.551   2.563  0.0202 -0.1002 -0.7601
 5686TIP3    H238474   4.681   0.661   2.471 -2.6212  0.7069  1.5380
 5687TIP3   OH238475   1.202   5.290  13.994 -0.7120 -0.2530 -0.0458
 5687TIP3    H138476   1.213   5.308  14.087 -0.1349  0.3112 -0.2223
 5687TIP3    H238477   1.157   5.206  13.991 -0.2771 -0.5160  0.7343
 5688TIP3   OH238478   3.139   3.721   0.994 -0.1260  0.1799 -0.1479
 5688TIP3    H138479   3.106   3.686   1.077 -0.2024 -1.1840 -0.7521
 5688TIP3    H238480   3.061   3.750   0.947 -0.0445  1.4349  0.4513
 5689TIP3   OH238481   0.344   3.832   3.963  0.0021  0.0161  0.4222
 5689TIP3    H138482   0.416   3.883   3.926 -1.9762  0.8546 -2.3696
 5689TIP3    H238483   0.269   3.892   3.963 -1.3160 -1.5991  1.0021
 5690TIP3   OH238484   6.259   2.994  13.612  0.2334 -0.5550  0.3107
 5690TIP3    H138485   6.297   3.003  13.699 -0.8765  0.9163  0.6611
 5690TIP3    H238486   6.164   3.001  13.626  0.0134 -0.8361 -0.9492
 5691TIP3   OH238487   5.340   0.542  10.928  0.2316 -0.0260  0.3060
 5691TIP3    H138488   5.249   0.514  10.922  0.0990  0.3150  0.7590
 5691TIP3    H238489   5.379   0.483  10.993 -0.3860  1.7087  2.3089
 5692TIP3   OH238490   6.776   2.707  16.043  0.1426 -0.4405  0.0022
 5692TIP3    H138491   6.684   2.728  16.058 -0.0180  0.4671 -2.0788
 5692TIP3    H238492   6.824   2.763  16.104 -0.6753 -1.0481  1.2190
 5693TIP3   OH238493   2.658   0.852  14.979 -0.0855  0.2060 -0.0270
 5693TIP3    H138494   2.742   0.877  15.018  1.2145 -1.5872 -1.5589
 5693TIP3    H238495   2.673   0.858  14.885 -1.5709 -0.4917 -0.3116
 5694TIP3   OH238496   2.038   0.810   2.883  0.0794  0.6463  0.1682
 5694TIP3    H138497   2.075   0.766   2.960  0.1161 -0.8008 -0.6509
 5694TIP3    H238498   2.108   0.805   2.817 -0.4795  0.5472 -0.4245
 5695TIP3   OH238499   5.304   3.254   4.163  0.9021 -0.1126  0.1745
 5695TIP3    H138500   5.219   3.290   4.139  0.6709 -0.4994  0.4061
 5695TIP3    H238501   5.366   3.325   4.145  0.1913  1.2876  2.8291
 5696TIP3   OH238502   1.769   6.556   3.275 -0.0737 -0.1952 -0.4176
 5696TIP3    H138503   1.710   6.621   3.237 -1.2985 -0.1036  1.5841
 5696TIP3    H238504   1.812   6.516   3.199 -0.6480  1.6551 -1.7707
 5697TIP3   OH238505   2.290   2.633   0.994 -0.4878 -0.5893 -0.0848
 5697TIP3    H138506   2.330   2.607   1.077 -1.9102  0.3549  0.9167
 5697TIP3    H238507   2.196   2.631   1.010 -0.7377  2.4070 -0.7753
 5698TIP3   OH238508   0.035   5.650  16.177 -0.6963 -0.4237  0.2681
 5698TIP3    H138509  -0.008   5.726  16.138 -0.1584 -0.5847 -0.6661
 5698TIP3    H238510   0.128   5.672  16.174 -0.6331 -0.5635  1.2062
 5699TIP3   OH238511   3.940   0.876   2.701  0.2880 -0.0339  0.6448
 5699TIP3    H138512   4.000   0.868   2.627 -1.1429 -2.0588 -0.3420
 5699TIP3    H238513   3.856   0.897   2.661 -0.4582 -0.9719  1.6908
 5700TIP3   OH238514   5.696   1.995  16.232  0.4166 -1.1999 -0.7164
 5700TIP3    H138515   5.656   2.034  16.154 -1.3223 -3.4239 -0.9651
 5700TIP3    H238516   5.732   2.070  16.279 -0.1661  0.3868 -2.7055
 5701TIP3   OH238517   1.659   3.107  12.823 -0.4737  0.4272  0.3295
 5701TIP3    H138518   1.577   3.128  12.778 -0.0045  1.3071 -0.1355
 5701TIP3    H238519   1.632   3.078  12.910 -1.2730  0.7756  0.2028
 5702TIP3   OH238520   0.338   5.010   0.827  0.0203 -0.2038 -0.2473
 5702TIP3    H138521   0.269   4.944   0.817  1.7556 -2.2741  1.0259
 5702TIP3    H238522   0.306   5.085   0.777 -2.5650 -1.5577 -0.7502
 5703TIP3   OH238523   0.607   5.411  11.532 -0.1861  0.1685 -0.2068
 5703TIP3    H138524   0.620   5.326  11.574  0.3602 -0.3855 -1.4604
 5703TIP3    H238525   0.597   5.390  11.439  1.8021  1.6000 -0.7767
 5704TIP3   OH238526   0.860   1.538   0.379 -0.4235  0.5466  0.5896
 5704TIP3    H138527   0.833   1.600   0.311  1.9834  0.2147 -0.7352
 5704TIP3    H238528   0.903   1.467   0.331 -1.7383 -1.3862  2.2107
 5705TIP3   OH238529   3.332   6.753   2.456  0.0004 -0.1454  0.4890
 5705TIP3    H138530   3.338   6.836   2.409  0.0157 -0.0016  0.7457
 5705TIP3    H238531   3.416   6.710   2.440 -0.1541 -0.2813  0.0364
 5706TIP3   OH238532   6.685   4.282  12.184  0.1637  0.0227 -0.2002
 5706TIP3    H138533   6.676   4.372  12.216 -0.4050 -0.5338  1.2140
 5706TIP3    H238534   6.765   4.249  12.226 -0.5030 -0.6619  0.5274
 5707TIP3   OH238535   4.379   0.758  13.602 -0.2664 -0.3385 -0.1284
 5707TIP3    H138536   4.417   0.670  13.609  0.0590 -0.1803  0.1375
 5707TIP3    H238537   4.287   0.746  13.626 -0.2636 -0.6365 -0.2647
 5708TIP3   OH238538   0.034   1.779  10.620  0.2677 -0.6641 -0.2352
 5708TIP3    H138539  -0.049   1.750  10.580  0.5074 -0.8197 -0.6200
 5708TIP3    H238540   0.036   1.873  10.605  0.3847 -0.7292 -0.6502
 5709TIP3   OH238541   6.594   3.912   1.424  0.0475  0.4242  0.3523
 5709TIP3    H138542   6.636   3.937   1.507 -1.7458  0.0713  1.3962
 5709TIP3    H238543   6.667   3.899   1.364  1.5090 -1.3027  2.4177
 5710TIP3   OH238544   3.307   5.021  11.328 -0.2137 -1.2628  0.1864
 5710TIP3    H138545   3.281   5.055  11.243  3.6694 -0.2417 -0.6835
 5710TIP3    H238546   3.257   5.073  11.391 -1.1659 -0.2527 -1.3737
 5711TIP3   OH238547   2.824   6.450   1.759 -0.6387  0.1243  0.2413
 5711TIP3    H138548   2.734   6.430   1.735 -0.6287 -0.3743  0.6232
 5711TIP3    H238549   2.876   6.422   1.684 -0.6687 -0.8433  0.5856
 5712TIP3   OH238550   5.734   5.122  16.880  0.5224 -0.0135 -0.3462
 5712TIP3    H138551   5.828   5.113  16.865  0.5616  0.4662 -0.3812
 5712TIP3    H238552   5.723   5.104  16.973  0.3557 -2.3575 -0.7779
 5713TIP3   OH238553   0.536   4.538   5.382  0.6861 -0.5844  0.7797
 5713TIP3    H138554   0.582   4.603   5.330 -0.9140  0.3584  0.5019
 5713TIP3    H238555   0.513   4.469   5.320 -2.5144  1.2150 -0.1767
 5714TIP3   OH238556   2.987   0.432  11.128 -0.2354  0.5344 -0.0305
 5714TIP3    H138557   2.900   0.458  11.096 -0.4700  0.4091  0.4951
 5714TIP3    H238558   2.975   0.423  11.223  0.0078 -0.8427 -0.1287
 5715TIP3   OH238559   5.474   3.651   4.312 -0.4090 -0.2873 -0.0997
 5715TIP3    H138560   5.380   3.630   4.312  0.0171 -2.2591  1.1935
 5715TIP3    H238561   5.512   3.592   4.377  1.4411  1.8766  0.8486
 5716TIP3   OH238562   0.429   5.687  13.336 -0.1433  0.3869 -0.5389
 5716TIP3    H138563   0.514   5.718  13.304 -0.6158  2.3844  0.0708
 5716TIP3    H238564   0.449   5.642  13.418  0.2505  1.6494  0.0736
 5717TIP3   OH238565   4.701   2.798  11.596  0.1039 -0.1345  0.1973
 5717TIP3    H138566   4.622   2.748  11.616  0.9494 -1.0378  1.3714
 5717TIP3    H238567   4.744   2.747  11.527 -0.2221  0.2393 -0.2838
 5718TIP3   OH238568   4.720   5.717   2.019 -0.0223 -0.0604  0.0950
 5718TIP3    H138569   4.725   5.636   1.970  1.1893  0.2911 -0.3834
 5718TIP3    H238570   4.770   5.700   2.099 -1.3437 -0.3808  0.8742
 5719TIP3   OH238571   3.001   1.399   2.731 -0.5983  0.2210  0.4156
 5719TIP3    H138572   3.080   1.439   2.766 -0.3116  1.7899 -1.8794
 5719TIP3    H238573   2.929   1.438   2.782 -0.0528  0.6304  0.8708
 5720TIP3   OH238574   1.007   2.452   5.825  0.2510 -0.3655  0.4333
 5720TIP3    H138575   0.982   2.482   5.737  0.4917 -2.3441 -0.3278
 5720TIP3    H238576   1.071   2.516   5.854  0.5690  0.0281 -1.0546
 5721TIP3   OH238577   6.170   3.229   0.376  0.0251 -0.1891 -0.0968
 5721TIP3    H138578   6.180   3.279   0.457 -0.3405  0.5375 -0.4987
 5721TIP3    H238579   6.253   3.183   0.366 -0.5057 -1.5730  1.5486
 5722TIP3   OH238580   6.161   6.240  14.461  0.3441  0.6339 -1.0042
 5722TIP3    H138581   6.208   6.167  14.501 -1.0108 -1.4648 -3.0651
 5722TIP3    H238582   6.228   6.289  14.414  1.2584  0.6412  0.3013
 5723TIP3   OH238583   6.411   5.821   2.138  0.2416  0.4755  0.0167
 5723TIP3    H138584   6.434   5.850   2.050 -2.0310 -1.7918 -1.3580
 5723TIP3    H238585   6.489   5.841   2.190  1.7255  1.5966 -2.5453
 5724TIP3   OH238586   6.010   3.834   1.866  0.0277 -0.0594 -0.0213
 5724TIP3    H138587   5.933   3.791   1.830  0.9030 -1.0485 -0.7699
 5724TIP3    H238588   6.073   3.835   1.794  0.8979  0.2670  0.7261
 5725TIP3   OH238589   6.780   2.468   4.060  0.5776 -0.0097 -0.0341
 5725TIP3    H138590   6.751   2.380   4.035  0.2506 -0.6076  2.4061
 5725TIP3    H238591   6.873   2.469   4.038  1.0269 -1.6416  1.6434
 5726TIP3   OH238592   5.208   2.562  13.576 -0.2768 -0.1540  0.2703
 5726TIP3    H138593   5.256   2.511  13.511 -0.4385  0.2089 -0.1357
 5726TIP3    H238594   5.265   2.637  13.595  0.2893 -0.8657  1.4121
 5727TIP3   OH238595   1.109   1.704  10.682 -0.0509  0.2049  0.1198
 5727TIP3    H138596   1.169   1.760  10.632  0.1777 -0.7174 -0.6426
 5727TIP3    H238597   1.022   1.740  10.663  0.0820  0.2240 -0.4796
 5728TIP3   OH238598   3.108   1.323   5.250 -0.1220  0.0545  0.1748
 5728TIP3    H138599   3.153   1.282   5.177  0.1483 -0.8704  0.8518
 5728TIP3    H238600   3.172   1.325   5.321  0.0748  2.2243 -0.0261
 5729TIP3   OH238601   5.415   6.225  13.987  0.2539 -0.4299  0.6882
 5729TIP3    H138602   5.505   6.195  13.973  0.1299 -0.0930 -1.0441
 5729TIP3    H238603   5.361   6.152  13.955 -0.0643  0.2435 -0.3216
 5730TIP3   OH238604   4.729   0.805   1.771  0.1529  0.9012  0.0064
 5730TIP3    H138605   4.666   0.745   1.733  1.4983 -2.6335  3.0808
 5730TIP3    H238606   4.681   0.851   1.840 -0.4390  2.1783 -1.2416
 5731TIP3   OH238607   5.574   3.159   5.848  0.1358 -0.5652  0.0444
 5731TIP3    H138608   5.503   3.097   5.859 -0.3513  0.4737  3.0930
 5731TIP3    H238609   5.613   3.136   5.763 -3.5787 -1.3486 -1.5163
 5732TIP3   OH238610   1.452   1.767  15.927 -0.8354  0.9017 -0.6953
 5732TIP3    H138611   1.391   1.736  15.860 -0.6178 -1.5788  0.2093
 5732TIP3    H238612   1.413   1.740  16.010  0.7573  0.5653 -0.0357
 5733TIP3   OH238613   6.656   5.917  10.449  0.3037  0.2569 -0.2078
 5733TIP3    H138614   6.736   5.933  10.400 -0.2896  2.5711 -0.4947
 5733TIP3    H238615   6.587   5.956  10.396 -1.0582 -1.8063 -0.0166
 5734TIP3   OH238616   0.956   4.617  12.793 -0.1679  0.1140 -0.3027
 5734TIP3    H138617   0.895   4.600  12.721 -0.4586  0.4109 -0.1275
 5734TIP3    H238618   0.926   4.699  12.832  2.0995  1.8380 -2.0637
 5735TIP3   OH238619   1.093   2.041  11.294 -0.0888 -0.1492 -0.3302
 5735TIP3    H138620   1.111   2.053  11.201 -2.1808  0.5967 -0.6475
 5735TIP3    H238621   0.998   2.041  11.301  0.0446  1.0271  1.9781
 5736TIP3   OH238622   4.317   6.784  15.578 -0.5363 -0.3002  0.2205
 5736TIP3    H138623   4.227   6.756  15.560 -0.2847 -1.6934  1.0491
 5736TIP3    H238624   4.360   6.706  15.613  0.9611  0.3973 -0.0333
 5737TIP3   OH238625   4.079   2.932  14.117 -0.5106  0.1982 -0.5931
 5737TIP3    H138626   4.104   2.995  14.050 -3.8291  0.6675 -1.4484
 5737TIP3    H238627   4.093   2.979  14.200  1.2829  0.4396 -0.9969
 5738TIP3   OH238628   5.873   0.648   2.310 -0.3907  0.3827  0.0581
 5738TIP3    H138629   5.863   0.560   2.346 -0.2300 -0.3424 -1.6096
 5738TIP3    H238630   5.919   0.635   2.227 -1.7122  1.8929 -0.9359
 5739TIP3   OH238631   3.931   0.868   2.220 -0.4256  0.0585  0.0291
 5739TIP3    H138632   3.871   0.934   2.185 -0.3206 -0.4618 -1.1618
 5739TIP3    H238633   3.892   0.784   2.195  0.0991 -0.3050  0.4139
 5740TIP3   OH238634   2.271   5.905  13.901  0.0160  0.5812  0.1557
 5740TIP3    H138635   2.278   5.923  13.995  2.4597 -1.2079  0.3770
 5740TIP3    H238636   2.320   5.977  13.859 -1.9979  1.9753  0.1659
 5741TIP3   OH238637   6.338   5.457   0.503  0.0746 -0.4866  1.1984
 5741TIP3    H138638   6.289   5.470   0.584  0.5678  2.5875  1.0835
 5741TIP3    H238639   6.426   5.487   0.524  0.5087 -0.8295 -0.1146
 5742TIP3   OH238640   1.040   3.444  16.617 -0.4630 -0.2829  0.3522
 5742TIP3    H138641   1.044   3.529  16.573 -1.9259  0.9500  2.4962
 5742TIP3    H238642   0.986   3.390  16.560 -1.5031  0.9713  0.1270
 5743TIP3   OH238643   5.852   4.471   4.844  0.2646 -0.3113  0.4741
 5743TIP3    H138644   5.934   4.460   4.796  0.3696  0.4553  0.4736
 5743TIP3    H238645   5.808   4.387   4.835 -0.2929  0.1906 -2.0335
 5744TIP3   OH238646   1.639   5.603  13.424 -0.3919  0.0709  0.0516
 5744TIP3    H138647   1.703   5.669  13.449  0.6654 -0.5752 -0.8532
 5744TIP3    H238648   1.588   5.643  13.354  1.6180 -0.7590 -1.9593
 5745TIP3   OH238649   0.730   2.965   2.978 -0.0567  0.2448  0.1739
 5745TIP3    H138650   0.727   2.992   3.069 -0.3517 -0.1234  0.2744
 5745TIP3    H238651   0.688   3.036   2.930 -2.7159 -0.9696  0.6567
 5746TIP3   OH238652   4.876   6.097   1.937 -0.2249  0.1191  0.1048
 5746TIP3    H138653   4.813   6.035   1.903  0.3313  0.0373 -0.7929
 5746TIP3    H238654   4.930   6.120   1.862 -0.3698  1.6195  0.4383
 5747TIP3   OH238655   5.064   2.361  14.910  0.7701  0.6093 -0.5466
 5747TIP3    H138656   5.028   2.413  14.839  1.5488  1.5555 -0.2584
 5747TIP3    H238657   5.118   2.295  14.866  2.0636  1.8164 -0.8072
 5748TIP3   OH238658   6.339   4.581  16.535 -0.6281  0.4646 -0.0995
 5748TIP3    H138659   6.348   4.672  16.507  1.1513  0.5677  0.7159
 5748TIP3    H238660   6.363   4.582  16.628 -0.3725 -0.8694 -0.1343
 5749TIP3   OH238661   1.527   4.410   0.513 -0.5715  0.2761  0.8449
 5749TIP3    H138662   1.558   4.501   0.518 -1.4311  0.5648  1.0313
 5749TIP3    H238663   1.465   4.410   0.440 -0.3434 -0.2318  0.6531
 5750TIP3   OH238664   4.395   0.732  16.436 -0.0851 -0.3350 -0.2709
 5750TIP3    H138665   4.347   0.730  16.520 -1.6406  1.7487 -1.0776
 5750TIP3    H238666   4.335   0.690  16.374 -0.1144  0.6473 -0.9115
 5751TIP3   OH238667   2.120   6.660   0.542  0.3204 -0.3082 -0.4088
 5751TIP3    H138668   2.102   6.645   0.634 -1.5050  1.1440 -0.4915
 5751TIP3    H238669   2.079   6.586   0.497 -0.2864 -0.1205 -0.1661
 5752TIP3   OH238670   6.007   6.526   0.542  0.2442  0.5134 -0.1621
 5752TIP3    H138671   5.982   6.618   0.535  0.9590  0.7194 -0.0669
 5752TIP3    H238672   5.927   6.481   0.569  0.3863  1.4049  1.8256
 5753TIP3   OH238673   5.050   1.962   4.116 -0.3555 -1.0705  0.1058
 5753TIP3    H138674   5.116   1.931   4.055  0.8887 -0.7047  1.2461
 5753TIP3    H238675   4.970   1.968   4.064  0.4433 -1.7760 -1.2194
 5754TIP3   OH238676   2.178   1.929  14.303 -0.2734  0.2404  0.3679
 5754TIP3    H138677   2.115   1.897  14.239 -0.6296  0.1226  0.7781
 5754TIP3    H238678   2.146   1.897  14.387  0.0800  0.5663  0.6322
 5755TIP3   OH238679   4.933   1.458  16.464  0.5132  0.0493  0.4295
 5755TIP3    H138680   4.856   1.408  16.490 -0.2943  1.2354  0.3672
 5755TIP3    H238681   4.928   1.539  16.516 -0.1758  1.6732 -2.0812
 5756TIP3   OH238682   2.258   1.717  11.252  0.2980  0.3674  0.4828
 5756TIP3    H138683   2.307   1.767  11.187  0.6830  0.6535  0.9902
 5756TIP3    H238684   2.314   1.641  11.271 -0.1667 -0.1266 -0.0920
 5757TIP3   OH238685   3.036   5.336  12.294  0.0080 -0.2940  0.1939
 5757TIP3    H138686   2.963   5.325  12.234  0.9568 -0.8364 -0.8935
 5757TIP3    H238687   3.038   5.256  12.345 -0.0031 -0.3893  0.0453
 5758TIP3   OH238688   2.737   2.231  12.244 -0.2732 -0.9359 -0.2377
 5758TIP3    H138689   2.735   2.317  12.286 -0.1897 -0.6964 -0.7107
 5758TIP3    H238690   2.769   2.171  12.312 -1.1565 -0.7453  0.3497
 5759TIP3   OH238691   6.122   0.433  14.374  0.5461 -0.1012  0.2283
 5759TIP3    H138692   6.192   0.375  14.343 -1.2714 -1.8112 -0.7604
 5759TIP3    H238693   6.137   0.440  14.468  4.1015  2.3956 -0.4306
 5760TIP3   OH238694   0.880   1.908   2.309  0.2681 -0.2437  0.0608
 5760TIP3    H138695   0.787   1.900   2.329  0.6804  0.4164  2.3140
 5760TIP3    H238696   0.886   1.992   2.263 -0.2620 -0.3589 -0.2291
 5761TIP3   OH238697   4.475   1.879  12.776 -0.6820  0.1900 -0.0934
 5761TIP3    H138698   4.422   1.958  12.785 -1.1406  0.1421 -2.0982
 5761TIP3    H238699   4.552   1.908  12.726  1.4971  0.3750  3.2097
 5762TIP3   OH238700   4.132   6.230  11.286  0.0657 -0.5608  0.0732
 5762TIP3    H138701   4.062   6.196  11.342  0.8602 -1.4338  0.5368
 5762TIP3    H238702   4.096   6.311  11.251 -0.7267 -0.3676  1.2786
 5763TIP3   OH238703   5.684   2.250  13.977 -0.1759  0.0223 -0.1494
 5763TIP3    H138704   5.629   2.275  14.052  0.2778 -1.9814  0.8588
 5763TIP3    H238705   5.700   2.157  13.988  0.2315 -0.2356 -2.5454
 5764TIP3   OH238706   5.545   4.256   1.233 -0.0889  0.0039 -0.9873
 5764TIP3    H138707   5.638   4.270   1.218 -0.3967  1.1026 -1.9629
 5764TIP3    H238708   5.525   4.311   1.310  0.6865 -2.6363  1.1677
 5765TIP3   OH238709   1.581   3.357  13.474  0.5408 -0.0244  0.1308
 5765TIP3    H138710   1.583   3.450  13.451  1.0804 -0.2879 -0.9239
 5765TIP3    H238711   1.488   3.333  13.472  0.6268 -0.3453 -3.1163
 5766TIP3   OH238712   3.433   5.794   6.267  0.3234  0.7551 -0.1541
 5766TIP3    H138713   3.436   5.818   6.175  0.0119 -2.3281 -1.0215
 5766TIP3    H238714   3.347   5.755   6.279  0.8810 -0.1384  1.1045
 5767TIP3   OH238715   5.574   0.307  11.880  0.2063  0.5882 -0.1221
 5767TIP3    H138716   5.550   0.385  11.928 -3.9757 -0.5925 -0.1498
 5767TIP3    H238717   5.540   0.321  11.792  0.5823 -0.7127 -0.4970
 5768TIP3   OH238718   6.046   4.895   4.954 -0.1704 -0.0831 -0.2879
 5768TIP3    H138719   6.038   4.982   4.914 -0.2964 -0.9526 -2.1549
 5768TIP3    H238720   5.959   4.877   4.990 -0.2991  0.3070 -0.3951
 5769TIP3   OH238721   5.197   3.849  17.194  0.0375  0.5703 -0.5524
 5769TIP3    H138722   5.139   3.798  17.138  1.6628 -1.3946 -0.5344
 5769TIP3    H238723   5.140   3.885  17.262 -1.0679 -1.9364 -0.0945
 5770TIP3   OH238724   0.473   5.874  15.959 -0.8360 -0.8090  0.0096
 5770TIP3    H138725   0.514   5.887  16.045 -1.4202 -1.1674  0.3486
 5770TIP3    H238726   0.542   5.893  15.896 -0.9226  1.3800  0.5246
 5771TIP3   OH238727   5.176   3.984   2.421 -0.5336  0.1213  0.2252
 5771TIP3    H138728   5.207   4.074   2.430 -1.5447  0.3321  1.7372
 5771TIP3    H238729   5.191   3.963   2.329 -1.8901  2.4514 -0.5844
 5772TIP3   OH238730   2.574   0.680  16.733 -0.0865  0.4017  0.3376
 5772TIP3    H138731   2.669   0.690  16.746  0.1209 -0.8676 -0.1765
 5772TIP3    H238732   2.557   0.718  16.647  0.2016 -0.7705 -0.2413
 5773TIP3   OH238733   1.128   2.617  14.068  0.5285  0.0848 -0.5534
 5773TIP3    H138734   1.204   2.561  14.052 -0.1708 -1.0461  0.0412
 5773TIP3    H238735   1.106   2.652  13.982 -0.4617 -2.4218 -1.3715
 5774TIP3   OH238736   5.657   3.001  11.897  0.1188  0.5656  0.1941
 5774TIP3    H138737   5.562   2.990  11.889  0.2277 -1.4285  1.3909
 5774TIP3    H238738   5.680   3.059  11.824 -1.9294  0.6587 -0.4278
 5775TIP3   OH238739   1.061   1.909  17.028  0.4033 -0.0588  0.0899
 5775TIP3    H138740   1.123   1.888  16.958  2.0103  1.0741  1.1428
 5775TIP3    H238741   1.076   1.841  17.094 -0.5358 -0.6478 -0.2922
 5776TIP3   OH238742   5.656   1.073   4.758  0.3542  0.3301 -0.3505
 5776TIP3    H138743   5.736   1.072   4.704  0.4743 -0.6050 -0.1471
 5776TIP3    H238744   5.620   1.161   4.743  1.1801  0.6073 -0.7937
 5777TIP3   OH238745   5.875   3.048   1.593 -0.6282 -0.6689  0.9538
 5777TIP3    H138746   5.833   3.115   1.539  0.1658 -0.0608  1.0805
 5777TIP3    H238747   5.903   3.096   1.672  0.5026 -1.0102  0.7692
 5778TIP3   OH238748   2.001   5.314   1.298 -0.3816 -0.4904  0.0663
 5778TIP3    H138749   1.958   5.384   1.348 -0.1984 -0.0795 -0.3505
 5778TIP3    H238750   1.941   5.240   1.305 -0.3198 -0.4683  0.9726
 5779TIP3   OH238751   2.781   3.163   1.323  0.4587 -0.3654 -0.3428
 5779TIP3    H138752   2.853   3.225   1.323  0.1945  0.0040  2.5021
 5779TIP3    H238753   2.706   3.212   1.289  1.0273 -0.0994 -1.2073
 5780TIP3   OH238754   0.112   4.711   0.303  0.5512  0.0042 -0.6699
 5780TIP3    H138755   0.125   4.803   0.282  0.0801  0.0701 -0.6828
 5780TIP3    H238756   0.067   4.675   0.227 -0.5976  0.0999 -0.0452
 5781TIP3   OH238757   4.926   6.711   5.572 -0.2420 -0.4922 -0.0504
 5781TIP3    H138758   4.846   6.718   5.624  1.2461  0.9207  2.0893
 5781TIP3    H238759   4.931   6.794   5.524  0.4773 -0.1652  0.5912
 5782TIP3   OH238760   1.061   2.292   6.041  0.4633  0.0132 -0.2401
 5782TIP3    H138761   1.014   2.320   5.963  1.3077 -1.0063 -1.1189
 5782TIP3    H238762   1.149   2.330   6.032  0.5883 -0.1681  0.1755
 5783TIP3   OH238763   6.232   5.372   3.134  0.8696 -0.0936 -0.2632
 5783TIP3    H138764   6.152   5.353   3.182  0.2038 -0.5721 -1.5298
 5783TIP3    H238765   6.296   5.395   3.201 -0.4306  0.6598  0.7349
 5784TIP3   OH238766   2.440   0.413   3.538 -0.3683 -0.1786  0.0401
 5784TIP3    H138767   2.407   0.364   3.463 -1.3377  1.1662 -0.4379
 5784TIP3    H238768   2.391   0.379   3.613 -0.0004 -0.9323 -0.0525
 5785TIP3   OH238769   5.376   0.604  11.747 -0.4654 -0.0012 -0.7325
 5785TIP3    H138770   5.316   0.553  11.801 -0.0580  0.3932  0.1018
 5785TIP3    H238771   5.409   0.541  11.682 -0.4330 -0.6484 -0.0936
 5786TIP3   OH238772   3.205   4.924   1.186  0.4037 -0.4134 -0.3432
 5786TIP3    H138773   3.197   5.014   1.153 -0.3111 -0.4817 -0.3411
 5786TIP3    H238774   3.204   4.869   1.108 -1.0717 -0.5587 -0.2261
 5787TIP3   OH238775   4.846   3.476   3.971  0.1261 -0.3451 -0.2350
 5787TIP3    H138776   4.793   3.481   4.051 -2.1452 -1.6332 -1.5886
 5787TIP3    H238777   4.789   3.431   3.908  2.8791 -1.7798 -1.7743
 5788TIP3   OH238778   1.949   1.692   3.098 -0.0712  0.1823  0.3829
 5788TIP3    H138779   2.026   1.685   3.041  1.2701  0.1927  2.1512
 5788TIP3    H238780   1.915   1.603   3.103 -0.2482  0.1929 -0.4848
 5789TIP3   OH238781   1.837   4.835  12.915 -0.5268  0.3161 -0.1196
 5789TIP3    H138782   1.759   4.820  12.860 -0.0521  0.1897 -0.7646
 5789TIP3    H238783   1.900   4.875  12.856  0.2797 -0.5761  0.1333
 5790TIP3   OH238784   6.534   5.658   3.308 -0.6402  0.0860 -0.1426
 5790TIP3    H138785   6.449   5.703   3.309 -0.0679  1.1575  2.2259
 5790TIP3    H238786   6.514   5.570   3.340 -0.7401  0.5663  1.1329
 5791TIP3   OH238787   5.377   0.132   3.666  0.3505  0.0104 -0.1767
 5791TIP3    H138788   5.411   0.206   3.716  0.5838  0.2255 -0.6495
 5791TIP3    H238789   5.455   0.081   3.644  0.1289 -0.7205  0.6938
 5792TIP3   OH238790   6.528   0.905   2.795 -0.5837 -1.0331  0.1323
 5792TIP3    H138791   6.567   0.819   2.777  1.4489  0.0978 -1.0608
 5792TIP3    H238792   6.591   0.948   2.853  0.5689  1.2066 -2.6401
 5793TIP3   OH238793   1.335   0.136  16.406  0.5450  0.5624 -0.3454
 5793TIP3    H138794   1.292   0.187  16.474  0.7893  0.3908 -0.0606
 5793TIP3    H238795   1.423   0.174  16.399  1.7499 -1.6433  1.9069
 5794TIP3   OH238796   6.106   4.429  14.965  0.0863 -0.5620 -0.1354
 5794TIP3    H138797   6.108   4.473  14.880  4.2646 -0.1824  0.0661
 5794TIP3    H238798   6.096   4.500  15.029  0.6534 -0.5162 -0.1032
 5795TIP3   OH238799   3.298   0.831  13.931 -0.4550  0.1746  0.0088
 5795TIP3    H138800   3.220   0.864  13.975  0.6539  1.7035  0.8680
 5795TIP3    H238801   3.368   0.892  13.956  0.8703 -0.7634 -1.3053
 5796TIP3   OH238802   1.512   2.667   5.750  0.2201  0.5874  0.0904
 5796TIP3    H138803   1.493   2.759   5.767 -0.3345  0.4221  0.3913
 5796TIP3    H238804   1.426   2.628   5.733  0.7358  0.7601 -3.3032
 5797TIP3   OH238805   5.047   1.079  15.967 -0.0823  0.2244 -0.0176
 5797TIP3    H138806   5.135   1.047  15.946  0.0985  1.1337 -0.6780
 5797TIP3    H238807   5.016   1.120  15.886 -1.1888 -0.2440  0.1549
 5798TIP3   OH238808   6.179   0.655   5.175 -0.7494 -0.4368 -0.1343
 5798TIP3    H138809   6.091   0.683   5.199 -0.6786  0.1096 -0.5006
 5798TIP3    H238810   6.183   0.667   5.080 -0.4696 -1.0025 -0.1959
 5799TIP3   OH238811   2.323   4.995   4.609 -0.0081 -0.1822  0.2205
 5799TIP3    H138812   2.416   4.996   4.586  0.2206 -0.7663  1.0839
 5799TIP3    H238813   2.308   5.078   4.654 -0.1996  0.4669 -1.0219
 5800TIP3   OH238814   3.733   1.200   2.329 -0.0861 -0.3187  0.3947
 5800TIP3    H138815   3.657   1.207   2.388 -0.0819  2.6139  0.1256
 5800TIP3    H238816   3.695   1.182   2.243 -0.4688  0.6115  0.3606
 5801TIP3   OH238817   4.189   0.116   4.359 -0.9534  0.1737  0.0614
 5801TIP3    H138818   4.259   0.107   4.424 -0.9754 -0.2158  0.0296
 5801TIP3    H238819   4.235   0.111   4.275 -0.8420  1.3300  0.0511
 5802TIP3   OH238820   5.792   2.302  10.952 -0.0483 -0.1750  0.1489
 5802TIP3    H138821   5.760   2.345  10.872 -1.1366 -2.2853 -0.5773
 5802TIP3    H238822   5.867   2.250  10.923  2.0828  2.1401  1.2592
 5803TIP3   OH238823   3.902   6.502  13.779 -0.4702 -0.2828  0.4110
 5803TIP3    H138824   3.898   6.432  13.845  0.2765 -0.9223 -0.2134
 5803TIP3    H238825   3.846   6.471  13.708 -0.3520 -0.1266  0.2505
 5804TIP3   OH238826   4.022   1.701   4.788 -0.0672  0.7076 -0.1177
 5804TIP3    H138827   3.982   1.756   4.855 -1.0659  0.4457 -0.4895
 5804TIP3    H238828   3.960   1.704   4.715 -0.0705 -0.8305 -0.1748
 5805TIP3   OH238829   2.939   1.933  16.749 -0.3196  0.3965  0.0954
 5805TIP3    H138830   3.031   1.937  16.724 -0.1746 -0.9013  0.4056
 5805TIP3    H238831   2.892   1.950  16.667  0.1859  1.4824  0.0208
 5806TIP3   OH238832   0.243   6.211   2.929 -0.1697 -0.1064 -0.3151
 5806TIP3    H138833   0.187   6.234   3.004 -0.2340  0.2198 -0.4602
 5806TIP3    H238834   0.184   6.164   2.870  0.3211 -1.9468  0.6334
 5807TIP3   OH238835   2.722   6.311  10.470 -0.0108  0.0851  0.3043
 5807TIP3    H138836   2.644   6.367  10.476  0.2419  0.5012 -0.1974
 5807TIP3    H238837   2.693   6.226  10.503 -1.3229 -0.4297 -2.0358
 5808TIP3   OH238838   1.686   4.981  13.228  0.1125 -0.1658 -0.3238
 5808TIP3    H138839   1.619   4.917  13.204  0.6176 -0.9210  0.2565
 5808TIP3    H238840   1.647   5.066  13.207 -1.1186 -0.5799  0.2300
 5809TIP3   OH238841   6.415   3.066  16.894 -0.2155 -0.5465 -0.0973
 5809TIP3    H138842   6.493   3.072  16.840 -0.6772 -0.1410 -0.7308
 5809TIP3    H238843   6.343   3.087  16.834 -1.0044 -2.9535 -0.0477
 5810TIP3   OH238844   1.914   4.170   0.659 -0.4509  0.2109 -0.0556
 5810TIP3    H138845   1.852   4.179   0.731 -1.0088  1.9887 -0.7455
 5810TIP3    H238846   1.906   4.251   0.609  2.1954  0.3373 -0.3433
 5811TIP3   OH238847   4.426   0.855   2.033 -0.1937 -0.3784 -0.1143
 5811TIP3    H138848   4.432   0.762   2.054 -0.7293 -0.7459 -1.4968
 5811TIP3    H238849   4.340   0.864   1.990 -1.8602  1.4628  3.4411
 5812TIP3   OH238850   0.048   3.476   2.793  0.3383  0.5407  0.3394
 5812TIP3    H138851   0.121   3.417   2.811  0.8488  1.3921  1.1216
 5812TIP3    H238852  -0.027   3.436   2.838 -0.0897 -1.2086 -1.8456
 5813TIP3   OH238853   1.783   3.980   6.463  0.5343 -0.2473  0.1984
 5813TIP3    H138854   1.711   4.025   6.419  0.3762 -1.1704 -0.5194
 5813TIP3    H238855   1.767   3.887   6.445  0.6418 -0.6204  1.9724
 5814TIP3   OH238856   6.536   3.336  12.390 -0.2696  0.6648 -0.1821
 5814TIP3    H138857   6.601   3.389  12.345 -2.2737  1.2542 -2.5064
 5814TIP3    H238858   6.476   3.399  12.430 -1.5329  0.2038 -1.2844
 5815TIP3   OH238859   5.782   4.989  13.404  0.5618 -0.0040 -0.0805
 5815TIP3    H138860   5.839   4.978  13.328  1.4967  0.5083  0.5269
 5815TIP3    H238861   5.719   4.917  13.398  0.3189  0.3322 -1.5962
 5816TIP3   OH238862   2.745   1.068  13.661 -0.2444 -0.1751 -0.1980
 5816TIP3    H138863   2.816   1.063  13.597 -1.5444  0.2935 -1.7253
 5816TIP3    H238864   2.735   1.161  13.678 -0.9875 -0.1823 -0.5763
 5817TIP3   OH238865   0.441   5.685   2.103  0.1881  0.1677 -0.0712
 5817TIP3    H138866   0.494   5.704   2.181  0.2294 -1.0130  0.1901
 5817TIP3    H238867   0.356   5.657   2.138  0.9245 -2.5558 -0.3918
 5818TIP3   OH238868   5.090   1.469   5.657  0.2464  0.7513  0.1319
 5818TIP3    H138869   5.151   1.543   5.669  0.8818  0.0226  1.6264
 5818TIP3    H238870   5.012   1.508   5.620  0.9037  2.0447  0.0689
 5819TIP3   OH238871   3.668   2.198   4.896 -0.1396  0.1315 -0.3333
 5819TIP3    H138872   3.763   2.191   4.899 -0.2359 -1.3047 -0.4889
 5819TIP3    H238873   3.639   2.157   4.977 -0.5233  2.8294  0.9468
 5820TIP3   OH238874   0.953   3.236   3.928  0.5641  0.5499  0.0634
 5820TIP3    H138875   0.887   3.167   3.925  0.8056  0.3375 -0.4046
 5820TIP3    H238876   0.907   3.315   3.900  0.6392  0.2953 -0.8028
 5821TIP3   OH238877   4.710   2.431  12.347 -0.8339  0.0104  0.2984
 5821TIP3    H138878   4.723   2.349  12.298 -1.4810  0.6814 -1.0293
 5821TIP3    H238879   4.616   2.437  12.359 -0.8839  1.0508 -0.4977
 5822TIP3   OH238880   3.913   2.852  11.982  0.0970  0.1586  0.3634
 5822TIP3    H138881   3.977   2.782  11.996  1.3310  1.2245  0.1184
 5822TIP3    H238882   3.925   2.911  12.056 -0.6843  0.3189  0.3705
 5823TIP3   OH238883   2.619   3.785   4.524  0.0730  0.4389 -0.4613
 5823TIP3    H138884   2.713   3.801   4.534 -0.1024  1.8861 -1.1842
 5823TIP3    H238885   2.613   3.717   4.457  0.6776 -1.1203  0.9935
 5824TIP3   OH238886   3.115   5.382  11.597 -0.5539 -0.1870 -0.0623
 5824TIP3    H138887   3.027   5.419  11.606 -0.1649  0.2969  1.9583
 5824TIP3    H238888   3.162   5.412  11.675  0.2479 -3.5473  0.8592
 5825TIP3   OH238889   0.954   6.197  14.561  0.2676  0.0323  0.0809
 5825TIP3    H138890   0.892   6.142  14.610  1.1671 -0.6176  0.4962
 5825TIP3    H238891   0.899   6.243  14.497 -0.9923  1.2269  1.9733
 5826TIP3   OH238892   6.229   1.413   5.103  0.5820 -0.2367 -0.0379
 5826TIP3    H138893   6.286   1.357   5.051 -0.3776 -0.2299 -1.1224
 5826TIP3    H238894   6.245   1.502   5.070  0.2768 -0.1802 -0.0421
 5827TIP3   OH238895   6.116   3.233  15.593 -0.1138 -0.4591 -0.6355
 5827TIP3    H138896   6.175   3.243  15.519 -0.0331  0.5096 -0.4481
 5827TIP3    H238897   6.031   3.263  15.561 -0.0971 -0.1161 -0.3663
 5828TIP3   OH238898   5.853   6.261  17.201  0.1505  0.6735  0.0474
 5828TIP3    H138899   5.784   6.278  17.136 -0.3604 -2.6298 -0.3471
 5828TIP3    H238900   5.816   6.292  17.284 -1.9038 -1.1629 -0.1357
 5829TIP3   OH238901   2.690   4.324  12.135  0.0081  0.6973 -0.5837
 5829TIP3    H138902   2.750   4.358  12.202  0.3048  1.1636 -1.0756
 5829TIP3    H238903   2.670   4.235  12.163  0.9952  0.5125 -0.4468
 5830TIP3   OH238904   1.171   3.066  15.305 -0.0480  1.0436 -0.0689
 5830TIP3    H138905   1.216   3.105  15.380 -0.1303  1.0554 -0.0256
 5830TIP3    H238906   1.164   3.138  15.242  3.0125  0.1835 -1.4524
 5831TIP3   OH238907   4.898   1.685  14.498  0.3820  0.4576  0.1537
 5831TIP3    H138908   4.935   1.597  14.498  0.6510  0.5705  0.4514
 5831TIP3    H238909   4.872   1.700  14.589 -0.1520  0.4812 -0.0007
 5832TIP3   OH238910   4.572   0.987   0.343 -0.1294 -0.3294  0.5911
 5832TIP3    H138911   4.508   0.930   0.384  1.1439 -1.4497  1.0236
 5832TIP3    H238912   4.642   0.996   0.407  0.5839  0.1549 -0.2395
 5833TIP3   OH238913   0.938   1.902  12.611  0.4198 -0.0716 -0.5202
 5833TIP3    H138914   0.911   1.903  12.520 -0.8577  2.0009 -0.1285
 5833TIP3    H238915   0.950   1.994  12.634  0.2675 -0.5424  1.5335
 5834TIP3   OH238916   0.624   5.652   2.754  0.0096  0.1954  0.0222
 5834TIP3    H138917   0.544   5.610   2.786 -0.4976  0.8448 -0.3734
 5834TIP3    H238918   0.612   5.745   2.774  1.2264  0.1318  1.1000
 5835TIP3   OH238919   1.681   5.213   1.629  0.0413 -0.0060  0.1782
 5835TIP3    H138920   1.740   5.138   1.631 -0.9244 -0.7927 -0.0507
 5835TIP3    H238921   1.601   5.182   1.672  0.0652  1.2783  1.1663
 5836TIP3   OH238922   6.417   4.848   4.713 -0.6396  0.3789  0.5269
 5836TIP3    H138923   6.424   4.828   4.620  0.5746 -0.9717  0.8811
 5836TIP3    H238924   6.396   4.941   4.717  1.3543  0.9107 -1.0438
 5837TIP3   OH238925   6.205   4.175  14.195 -0.8147 -0.4054  0.2138
 5837TIP3    H138926   6.260   4.250  14.174  0.0212 -1.4170 -1.3504
 5837TIP3    H238927   6.116   4.205  14.177 -0.5286  0.3753  0.0833
 5838TIP3   OH238928   1.689   0.742  11.951 -0.1789  0.6399 -0.9672
 5838TIP3    H138929   1.749   0.685  11.903 -1.5920  0.9061 -3.1038
 5838TIP3    H238930   1.700   0.828  11.911 -0.9918  0.9884 -0.4484
 5839TIP3   OH238931   5.134   1.645   4.779 -0.5430 -0.0520 -0.0918
 5839TIP3    H138932   5.101   1.621   4.693 -0.8382 -3.7190  0.9766
 5839TIP3    H238933   5.156   1.562   4.821  1.8479  1.8038  2.4966
 5840TIP3   OH238934   5.691   6.222  14.746 -0.0528  0.5027  0.6797
 5840TIP3    H138935   5.769   6.237  14.800  0.3692 -1.3853  0.6525
 5840TIP3    H238936   5.724   6.178  14.668 -0.9620  1.1192 -0.0659
 5841TIP3   OH238937   0.058   0.261   3.792  0.4127  0.3553 -0.1883
 5841TIP3    H138938   0.124   0.195   3.771  0.0784  0.2864 -1.0568
 5841TIP3    H238939   0.069   0.277   3.886  1.4426  0.1126 -0.2612
 5842TIP3   OH238940   6.027   0.591  12.003  0.0617  0.3300 -0.4302
 5842TIP3    H138941   5.937   0.603  12.032  0.4571  0.2533  0.8689
 5842TIP3    H238942   6.046   0.499  12.022  0.8770  0.7079  0.6571
 5843TIP3   OH238943   5.445   4.911  16.575  0.2701  0.6021 -0.2667
 5843TIP3    H138944   5.506   4.970  16.618 -0.6035  2.1185 -1.0811
 5843TIP3    H238945   5.386   4.968  16.527 -0.4098 -0.9489 -1.3132
 5844TIP3   OH238946   4.754   4.968   2.387  0.1044  0.6835  0.4187
 5844TIP3    H138947   4.816   4.927   2.447  0.5743  0.4558 -0.2128
 5844TIP3    H238948   4.674   4.915   2.396  0.5306 -0.0349  0.0191
 5845TIP3   OH238949   5.395   1.073  16.547 -0.0191  0.2564 -0.4426
 5845TIP3    H138950   5.347   1.155  16.532 -0.2958 -0.1329 -1.7688
 5845TIP3    H238951   5.438   1.086  16.631 -1.3876  1.1280  0.1502
 5846TIP3   OH238952   5.720   6.312  16.714  0.0343 -0.1655 -0.7946
 5846TIP3    H138953   5.752   6.402  16.722 -1.7806  0.5052 -0.6731
 5846TIP3    H238954   5.708   6.298  16.620  0.2981 -0.2668 -0.8107
 5847TIP3   OH238955   4.546   6.486  11.981 -0.2506  0.2673  0.2101
 5847TIP3    H138956   4.483   6.488  12.053 -0.3699 -0.3929  0.1265
 5847TIP3    H238957   4.528   6.565  11.931 -0.5522  0.4346  0.5836
 5848TIP3   OH238958   1.180   5.772  12.538 -0.0806 -0.7103  0.7856
 5848TIP3    H138959   1.260   5.813  12.506 -0.8766  0.8299  0.7187
 5848TIP3    H238960   1.155   5.711  12.469  0.0368  0.1478 -0.0263
 5849TIP3   OH238961   5.117   2.501  15.393 -0.1114 -0.2006 -0.0280
 5849TIP3    H138962   5.117   2.533  15.303 -0.8474 -0.3417 -0.0845
 5849TIP3    H238963   5.024   2.492  15.414  0.0615 -0.1878  0.7368
 5850TIP3   OH238964   6.348   2.828  10.751 -0.3855 -0.3938  0.0835
 5850TIP3    H138965   6.375   2.903  10.699 -0.0137  0.6190  1.6767
 5850TIP3    H238966   6.387   2.753  10.707  1.0551  0.5687 -0.3562
 5851TIP3   OH238967   3.675   6.366   4.598  0.6926  0.2124  0.1251
 5851TIP3    H138968   3.726   6.442   4.628  0.3747 -0.0757  1.4422
 5851TIP3    H238969   3.618   6.345   4.672  1.3441 -1.8194  0.0794
 5852TIP3   OH238970   1.742   1.993   5.840  0.5364 -0.1980  0.3075
 5852TIP3    H138971   1.648   1.990   5.823  0.5525 -1.2671  0.3993
 5852TIP3    H238972   1.750   1.994   5.935  0.6287 -0.4205  0.3016
 5853TIP3   OH238973   1.429   1.740   0.584  0.2288 -0.6376 -0.3011
 5853TIP3    H138974   1.502   1.764   0.642  0.5503 -2.4069  0.0600
 5853TIP3    H238975   1.353   1.734   0.643  0.3107 -1.2687 -0.2607
 5854TIP3   OH238976   2.589   6.563   0.640 -0.1283 -0.2685 -0.2413
 5854TIP3    H138977   2.612   6.614   0.718  1.2007 -1.0123 -0.1216
 5854TIP3    H238978   2.672   6.552   0.593 -0.5769 -1.4254 -0.7855
 5855TIP3   OH238979   2.376   5.625   2.378  1.3291  0.6306  0.3336
 5855TIP3    H138980   2.420   5.691   2.325  1.3283  0.3988  0.0361
 5855TIP3    H238981   2.293   5.665   2.404  1.5505  0.9283  0.5753
 5856TIP3   OH238982   4.784   6.742   1.418 -0.0659  0.3860 -0.0032
 5856TIP3    H138983   4.774   6.671   1.481  1.2682 -1.8275 -2.1754
 5856TIP3    H238984   4.730   6.716   1.343  0.7123  1.4841 -0.9737
 5857TIP3   OH238985   2.182   6.459   1.364  0.0853 -0.2330  0.2516
 5857TIP3    H138986   2.263   6.427   1.322  0.8812 -0.1124  1.6772
 5857TIP3    H238987   2.201   6.456   1.457 -1.1031  1.0684  0.5444
 5858TIP3   OH238988   3.722   1.886   0.036 -0.1773  0.2822  0.2804
 5858TIP3    H138989   3.798   1.925   0.078 -0.5303 -0.2665  1.4377
 5858TIP3    H238990   3.673   1.961   0.001  0.8473  0.6374 -0.4265
 5859TIP3   OH238991   4.974   5.196  14.262 -0.2940 -0.0269 -0.3116
 5859TIP3    H138992   4.943   5.109  14.240 -0.4447 -0.0737  0.0976
 5859TIP3    H238993   5.054   5.182  14.312 -0.4578  0.0633 -0.0232
 5860TIP3   OH238994   0.669   3.767   0.850 -0.6216 -0.3026  0.2055
 5860TIP3    H138995   0.694   3.798   0.763  2.7775  1.5888  1.7451
 5860TIP3    H238996   0.681   3.672   0.846 -2.2592 -0.4559 -1.8778
 5861TIP3   OH238997   6.334   2.738   6.296  0.2779 -0.1601 -0.3317
 5861TIP3    H138998   6.321   2.659   6.244  0.1788 -0.9843  0.9378
 5861TIP3    H238999   6.367   2.803   6.233 -1.2510 -0.7027 -1.7076
 5862TIP3   OH239000   3.643   4.229   3.487  0.3226  0.3822 -0.4316
 5862TIP3    H139001   3.706   4.237   3.415 -2.0667  1.6240 -2.4806
 5862TIP3    H239002   3.657   4.142   3.523  0.2891 -1.0333 -3.7214
 5863TIP3   OH239003   0.854   1.101   0.733  0.1636 -0.0938 -0.1181
 5863TIP3    H139004   0.805   1.019   0.725  0.1441  0.0452 -1.6806
 5863TIP3    H239005   0.801   1.156   0.791  0.1064 -1.1341  0.8209
 5864TIP3   OH239006   4.015   2.395  14.799 -0.0409 -0.0195 -0.0871
 5864TIP3    H139007   3.985   2.434  14.880 -1.3420 -0.7580 -0.2071
 5864TIP3    H239008   3.971   2.445  14.730 -0.3926 -0.5851 -0.2805
 5865TIP3   OH239009   6.568   2.627  13.096  0.1534  0.0272  0.5752
 5865TIP3    H139010   6.562   2.532  13.097 -1.7199  0.0540 -1.7084
 5865TIP3    H239011   6.631   2.649  13.164  0.3437 -2.8209  1.3528
 5866TIP3   OH239012   5.723   1.372  12.530  0.4449  0.2138 -0.2283
 5866TIP3    H139013   5.728   1.425  12.610  0.2847  0.5618 -0.4522
 5866TIP3    H239014   5.670   1.296  12.555 -0.9351  1.0964 -0.4389
 5867TIP3   OH239015   4.778   5.026   6.546  0.0528  0.2765 -0.1883
 5867TIP3    H139016   4.788   5.079   6.625 -0.4281 -0.6407  0.5001
 5867TIP3    H239017   4.764   5.090   6.475 -0.4079  1.0713  0.6103
 5868TIP3   OH239018   3.303   2.227  16.292 -0.4444 -0.0202  0.1184
 5868TIP3    H139019   3.275   2.181  16.213  0.4919 -0.6976  0.1799
 5868TIP3    H239020   3.245   2.194  16.361 -1.6121  0.9587 -0.3671
 5869TIP3   OH239021   3.276   2.301   3.672 -0.4251  0.9747 -0.0392
 5869TIP3    H139022   3.291   2.241   3.599  0.5683  0.0898  0.8853
 5869TIP3    H239023   3.183   2.321   3.668 -1.1360 -2.0154  0.6994
 5870TIP3   OH239024   6.716   3.985   3.436 -0.2220 -0.4338 -0.4783
 5870TIP3    H139025   6.749   4.062   3.483 -0.4639  0.1850 -1.3115
 5870TIP3    H239026   6.746   3.996   3.346 -0.7706 -1.0074 -0.7405
 5871TIP3   OH239027   4.509   6.529  11.492  0.2197  0.2658  0.2143
 5871TIP3    H139028   4.427   6.481  11.501  0.6383 -0.5852 -0.4984
 5871TIP3    H239029   4.576   6.472  11.529  0.7124  0.3102 -0.5913
 5872TIP3   OH239030   0.078   5.496  15.109  0.3517 -0.1518 -0.1826
 5872TIP3    H139031   0.030   5.431  15.058 -1.5723  1.3920 -0.3727
 5872TIP3    H239032   0.105   5.561  15.044  0.2405  0.4359  0.3579
 5873TIP3   OH239033   1.620   4.572   4.641 -0.2247  0.2313  0.1470
 5873TIP3    H139034   1.541   4.613   4.604 -0.3871  0.0758  0.3153
 5873TIP3    H239035   1.691   4.632   4.619 -0.3687  0.2996 -0.1385
 5874TIP3   OH239036   5.781   6.563   1.172  0.3196  0.1537 -0.6286
 5874TIP3    H139037   5.860   6.568   1.225 -1.2807  2.7059  1.6757
 5874TIP3    H239038   5.781   6.643   1.120 -1.5325  1.0148  0.6248
 5875TIP3   OH239039   0.384   0.167  11.901 -0.0713 -0.7770  0.2470
 5875TIP3    H139040   0.470   0.135  11.875 -0.1620 -0.6285 -0.2521
 5875TIP3    H239041   0.395   0.261  11.909 -0.0426 -0.8267  0.7533
 5876TIP3   OH239042   3.383   4.206  15.202  0.5714 -0.5132  0.4083
 5876TIP3    H139043   3.434   4.215  15.283 -1.1588  2.1867  1.2824
 5876TIP3    H239044   3.398   4.288  15.155 -0.5078 -0.9703 -0.7782
 5877TIP3   OH239045   5.655   4.693  14.514 -0.0181  0.4794  0.3765
 5877TIP3    H139046   5.672   4.726  14.425 -1.4451  1.1667  0.3472
 5877TIP3    H239047   5.709   4.614  14.520  2.6277  2.1649  0.0376
 5878TIP3   OH239048   2.165   2.488  13.753 -0.0928 -0.0831 -0.0151
 5878TIP3    H139049   2.184   2.581  13.746 -0.1645 -0.0938 -0.3886
 5878TIP3    H239050   2.115   2.468  13.674 -0.6474 -0.3020  0.3884
 5879TIP3   OH239051   2.432   1.883  16.880  0.0955  0.0643 -0.0777
 5879TIP3    H139052   2.527   1.885  16.896  0.2876  1.0580 -1.2792
 5879TIP3    H239053   2.413   1.793  16.857  0.4796 -0.5088  1.7096
 5880TIP3   OH239054   3.170   3.063   3.804 -0.2282  0.0371  0.3252
 5880TIP3    H139055   3.107   2.998   3.836 -0.1862 -0.3073 -0.2945
 5880TIP3    H239056   3.145   3.079   3.713  0.3097  0.2267  0.2092
 5881TIP3   OH239057   1.631   2.920  14.518 -0.3385  0.3370  0.3374
 5881TIP3    H139058   1.606   3.012  14.527 -0.0755  0.7657 -2.7617
 5881TIP3    H239059   1.715   2.923  14.473 -0.3551 -1.4363  0.1657
 5882TIP3   OH239060   1.158   1.018   3.223  1.1344 -0.0310 -0.4653
 5882TIP3    H139061   1.129   1.063   3.144  1.8565  0.3394 -0.5269
 5882TIP3    H239062   1.078   1.002   3.273  0.6519 -0.4667 -1.3774
 5883TIP3   OH239063   1.176   6.523   4.476 -0.0422 -0.2990 -0.1755
 5883TIP3    H139064   1.202   6.444   4.523  0.0492 -0.1635  0.0037
 5883TIP3    H239065   1.115   6.492   4.409 -1.9298 -0.2019  1.4805
 5884TIP3   OH239066   0.841   0.801   3.105  0.5921  1.1897 -0.2589
 5884TIP3    H139067   0.766   0.783   3.162 -0.1742  1.6058 -1.1298
 5884TIP3    H239068   0.848   0.896   3.102  3.0877  1.1723  2.2944
 5885TIP3   OH239069   1.979   2.164   0.538  0.2167  0.2977 -0.6613
 5885TIP3    H139070   2.026   2.121   0.610  0.3005  1.9004  0.2560
 5885TIP3    H239071   1.897   2.116   0.531  0.0755  0.3138  0.7149
 5886TIP3   OH239072   2.729   1.163   2.558 -1.4465 -0.3458  0.5056
 5886TIP3    H139073   2.820   1.174   2.587 -1.3007 -1.1930  0.3986
 5886TIP3    H239074   2.692   1.251   2.562 -0.3709  0.1645 -0.2717
 5887TIP3   OH239075   5.171   0.024  15.187  0.8349 -0.3320  0.1004
 5887TIP3    H139076   5.168  -0.061  15.143  0.6463 -0.4604  0.3611
 5887TIP3    H239077   5.080   0.042  15.210  0.7264  0.4324 -0.8878
 5888TIP3   OH239078   3.035   2.376  15.871  0.2328 -0.0815 -0.0378
 5888TIP3    H139079   2.944   2.362  15.844 -0.4390  1.3350  1.3962
 5888TIP3    H239080   3.075   2.290  15.865 -1.8628 -1.2214  1.6300
 5889TIP3   OH239081   4.077   6.685  15.511  0.0725 -0.3292  0.1267
 5889TIP3    H139082   4.043   6.652  15.428 -0.1343 -0.0911  0.1161
 5889TIP3    H239083   4.022   6.760  15.532  0.1675 -0.3471  0.4470
 5890TIP3   OH239084   4.987   1.722  12.619 -0.0210 -0.2226  0.2811
 5890TIP3    H139085   4.980   1.630  12.593 -0.0162  0.3829 -1.9849
 5890TIP3    H239086   4.930   1.768  12.558  1.9820  1.5713 -0.3001
 5891TIP3   OH239087   0.738   1.978   3.160 -0.3033 -0.2664 -0.1624
 5891TIP3    H139088   0.753   1.965   3.253  0.0941 -1.7695 -0.4193
 5891TIP3    H239089   0.643   1.980   3.150 -0.3461  0.5217  0.3447
 5892TIP3   OH239090   4.470   6.118   5.840  0.3532 -0.0022  0.0456
 5892TIP3    H139091   4.494   6.211   5.850 -0.8916  0.1416  2.0759
 5892TIP3    H239092   4.417   6.115   5.761 -0.1357  1.1393  0.3182
 5893TIP3   OH239093   5.299   4.782  13.137  0.3043 -0.0612  0.4475
 5893TIP3    H139094   5.336   4.693  13.136  2.4150  0.6266 -5.5255
 5893TIP3    H239095   5.205   4.769  13.127  0.6578 -1.6884 -1.0949
 5894TIP3   OH239096   5.137   2.065  11.612  0.3127 -0.1202  0.2597
 5894TIP3    H139097   5.226   2.095  11.596  0.3412  0.1442  0.8949
 5894TIP3    H239098   5.127   2.069  11.707  0.4309 -2.4422  0.4057
 5895TIP3   OH239099   4.284   6.532  14.033 -0.3794  0.5512  0.5550
 5895TIP3    H139100   4.208   6.487  14.069 -0.4624  0.7489  0.6262
 5895TIP3    H239101   4.260   6.553  13.943 -0.5623  0.9667  0.6982
 5896TIP3   OH239102   2.090   5.027   1.077  0.0767  0.6866  0.0162
 5896TIP3    H139103   2.169   5.071   1.046 -0.1245  3.5057  3.3059
 5896TIP3    H239104   2.021   5.092   1.068 -0.5656  0.5452  3.3532
 5897TIP3   OH239105   2.777   0.198  14.774  0.1003  0.4464  0.8423
 5897TIP3    H139106   2.719   0.234  14.707 -0.4444 -0.1287  0.9993
 5897TIP3    H239107   2.803   0.274  14.826  0.9442  0.9803 -0.3323
 5898TIP3   OH239108   0.573   5.921   4.346  0.2158 -0.8131 -0.4720
 5898TIP3    H139109   0.628   5.844   4.335  3.9770  1.8168 -0.9744
 5898TIP3    H239110   0.591   5.951   4.435 -1.1850 -0.4500 -0.2932
 5899TIP3   OH239111   2.568   1.768   2.550  0.4411 -0.3688 -0.0797
 5899TIP3    H139112   2.620   1.692   2.575  1.5176 -0.1276 -1.4966
 5899TIP3    H239113   2.573   1.770   2.454 -1.7681 -0.0372 -0.2065
 5900TIP3   OH239114   0.703   5.823   2.164  0.2497 -0.2363  0.1303
 5900TIP3    H139115   0.768   5.762   2.201  0.9924 -0.2134 -1.1051
 5900TIP3    H239116   0.749   5.865   2.091 -0.4089  1.4897  0.7043
 5901TIP3   OH239117   1.705   2.200  12.651 -0.0367  0.1587  0.8079
 5901TIP3    H139118   1.615   2.223  12.671 -0.0389  0.9784 -0.0738
 5901TIP3    H239119   1.742   2.279  12.612  1.2031 -0.0162  1.5893
 5902TIP3   OH239120   5.195   1.454   5.072  0.2613  0.2314 -0.5706
 5902TIP3    H139121   5.172   1.417   4.987  1.7328 -2.9741  0.3662
 5902TIP3    H239122   5.286   1.483   5.061 -0.1860  1.6695 -0.6430
 5903TIP3   OH239123   5.606   5.874  10.767 -0.0404 -0.0394  0.0469
 5903TIP3    H139124   5.701   5.871  10.778  0.1818  0.6049 -1.4998
 5903TIP3    H239125   5.585   5.799  10.711 -0.1925  0.8617 -1.1282
 5904TIP3   OH239126   3.539   3.402  13.040  0.2607  0.4525 -0.0165
 5904TIP3    H139127   3.457   3.369  13.076  0.4672  0.7981  0.7812
 5904TIP3    H239128   3.528   3.395  12.945 -0.0825 -0.9572  0.1199
 5905TIP3   OH239129   5.924   2.435   4.915  0.1953  0.3647  0.3283
 5905TIP3    H139130   5.931   2.514   4.970 -0.6863  1.4633 -1.0883
 5905TIP3    H239131   5.966   2.366   4.966  3.4214  2.3421  0.4733
 5906TIP3   OH239132   1.420   6.272   1.934  0.5433  0.1307  0.3841
 5906TIP3    H139133   1.370   6.213   1.878  1.3233 -0.6595  0.5003
 5906TIP3    H239134   1.423   6.354   1.886 -1.8046  0.5334  0.8823
 5907TIP3   OH239135   3.515   5.609  11.249 -1.1769  0.4979  0.0239
 5907TIP3    H139136   3.509   5.679  11.314 -0.9593  0.6725 -0.1426
 5907TIP3    H239137   3.566   5.540  11.292 -1.0696  0.5963  0.0539
 5908TIP3   OH239138   3.568   2.117  15.628  0.0257  0.5869 -0.0217
 5908TIP3    H139139   3.538   2.061  15.557 -0.6180  0.1364  0.5931
 5908TIP3    H239140   3.653   2.150  15.599  0.1778 -0.3071 -0.6086
 5909TIP3   OH239141   5.521   0.743  10.944 -0.2230 -0.2778  0.4617
 5909TIP3    H139142   5.440   0.694  10.931 -0.2931 -0.7456  2.4937
 5909TIP3    H239143   5.533   0.791  10.862 -1.0545 -2.3614 -0.9152
 5910TIP3   OH239144   6.344   0.922   4.385 -0.2883  0.0938  0.4928
 5910TIP3    H139145   6.355   0.978   4.307 -0.1098 -0.2773  0.2486
 5910TIP3    H239146   6.263   0.874   4.369  0.2033 -0.6266  0.1295
 5911TIP3   OH239147   4.221   3.050   3.888 -0.1745 -0.7487 -0.3195
 5911TIP3    H139148   4.189   3.140   3.889  1.7539 -0.0060 -1.6967
 5911TIP3    H239149   4.258   3.037   3.976  1.9653  0.7724 -0.9370
 5912TIP3   OH239150   1.855   1.489  15.941 -0.3990  0.2273  0.0271
 5912TIP3    H139151   1.799   1.422  15.902 -1.5670  1.0801  0.2154
 5912TIP3    H239152   1.822   1.572  15.906  1.0462  0.7131 -0.2307
 5913TIP3   OH239153   0.267   2.092  11.999  0.0793  0.3055  0.3885
 5913TIP3    H139154   0.280   2.008  12.042  0.6378 -0.0307 -0.4378
 5913TIP3    H239155   0.201   2.075  11.932 -0.3117  0.6831  0.6708
 5914TIP3   OH239156   3.734   1.361   5.832 -0.4107 -0.5148 -0.4053
 5914TIP3    H139157   3.820   1.367   5.873 -0.6523 -1.1721  0.2103
 5914TIP3    H239158   3.733   1.273   5.792  0.0860  0.3597 -2.4444
 5915TIP3   OH239159   3.832   4.571   1.359  0.4421  0.0704  0.0593
 5915TIP3    H139160   3.751   4.622   1.356  0.5395  0.2099 -0.2602
 5915TIP3    H239161   3.850   4.551   1.267  0.0943 -1.0340  0.2223
 5916TIP3   OH239162   2.107   0.942  10.372  0.4054 -0.3331 -0.9214
 5916TIP3    H139163   2.193   0.937  10.414 -0.0069  0.9743  0.1195
 5916TIP3    H239164   2.056   0.872  10.412  0.4956 -0.0942 -0.3907
 5917TIP3   OH239165   1.559   3.333   2.934 -0.3526  0.2176 -0.5615
 5917TIP3    H139166   1.548   3.370   2.846  0.6985  0.9178 -0.4168
 5917TIP3    H239167   1.523   3.399   2.993 -1.3565 -0.3967 -0.4818
 5918TIP3   OH239168   0.424   0.003   5.879 -0.5565 -0.3316 -0.3872
 5918TIP3    H139169   0.328   0.006   5.885 -0.6075  0.2788 -1.4969
 5918TIP3    H239170   0.444  -0.089   5.864 -1.0504 -0.2745 -1.4163
 5919TIP3   OH239171   1.111   4.150  12.626  0.5647  0.0279 -0.4413
 5919TIP3    H139172   1.072   4.175  12.542 -0.4519 -0.1686 -0.0410
 5919TIP3    H239173   1.093   4.056  12.633 -1.7508  0.5623  1.2275
 5920TIP3   OH239174   4.621   0.771  15.156  0.5020  0.2257  0.2627
 5920TIP3    H139175   4.645   0.850  15.205  0.7571  0.5036 -0.2987
 5920TIP3    H239176   4.695   0.758  15.096  0.5837 -0.5923  0.5335
 5921TIP3   OH239177   0.877   5.511  15.711 -0.6063 -0.2334  0.4108
 5921TIP3    H139178   0.833   5.591  15.739  2.6692  0.8461  2.7310
 5921TIP3    H239179   0.939   5.540  15.645 -0.7467 -1.1668 -0.1364
 5922TIP3   OH239180   1.817   5.654  16.245  0.2476  0.0297 -0.1372
 5922TIP3    H139181   1.840   5.728  16.188  1.1001  0.8316  1.2091
 5922TIP3    H239182   1.824   5.690  16.334 -1.4056 -1.1056  0.4673
 5923TIP3   OH239183   6.021   3.932   4.672  0.1618  0.0977  0.3704
 5923TIP3    H139184   6.054   3.848   4.702  1.4356  0.6717  0.6342
 5923TIP3    H239185   6.078   3.955   4.598  0.5152  1.2059  0.9708
 5924TIP3   OH239186   2.256   2.354  12.739 -0.5961  0.0091  0.2336
 5924TIP3    H139187   2.253   2.399  12.655  2.1276 -1.1117 -0.5221
 5924TIP3    H239188   2.169   2.315  12.749 -1.0097  0.3119 -1.9675
 5925TIP3   OH239189   4.638   2.676   1.268  0.5624 -1.0458 -0.3142
 5925TIP3    H139190   4.680   2.736   1.208 -0.6909 -0.5959 -0.7661
 5925TIP3    H239191   4.625   2.726   1.348 -1.6365 -0.2628 -1.1089
 5926TIP3   OH239192   5.867   1.625   3.877 -0.7456 -0.2449  0.3828
 5926TIP3    H139193   5.929   1.554   3.897 -0.6501 -0.4245 -0.4939
 5926TIP3    H239194   5.810   1.630   3.954 -2.0316 -2.6530 -0.3361
 5927TIP3   OH239195   1.441   2.280  12.718  0.2588  0.2516  0.3945
 5927TIP3    H139196   1.463   2.349  12.781  0.0447  0.1495  0.5803
 5927TIP3    H239197   1.390   2.325  12.650  0.6829  0.4081  0.1712
 5928TIP3   OH239198   3.381   0.061   4.793  0.8946 -0.3086  0.3822
 5928TIP3    H139199   3.351   0.143   4.755 -1.6730  0.1605  3.1932
 5928TIP3    H239200   3.354  -0.006   4.731  0.0843  0.7190 -0.3901
 5929TIP3   OH239201   6.311   6.492  13.651  0.3997 -0.0817 -0.5910
 5929TIP3    H139202   6.250   6.565  13.638  0.2004 -0.0202  0.6784
 5929TIP3    H239203   6.255   6.415  13.664  0.6047 -0.2761 -0.8391
 5930TIP3   OH239204   5.304   1.415  14.082 -0.0876 -0.6497 -0.5628
 5930TIP3    H139205   5.272   1.475  14.015  0.0513 -0.4918 -0.4863
 5930TIP3    H239206   5.270   1.450  14.164 -0.6180 -1.0830 -0.5939
 5931TIP3   OH239207   0.671   5.400   1.808  0.1675  0.2783 -0.4463
 5931TIP3    H139208   0.681   5.325   1.867  0.7356 -0.3194 -1.2926
 5931TIP3    H239209   0.677   5.477   1.865  0.6053 -0.2977  0.2883
 5932TIP3   OH239210   0.201   1.447   1.369 -0.3019 -0.1901  0.4919
 5932TIP3    H139211   0.122   1.397   1.348 -1.3764  1.1238  1.3137
 5932TIP3    H239212   0.193   1.527   1.316 -0.0477  0.4255  1.3809
 5933TIP3   OH239213   0.636   0.292   1.590  0.6750 -0.2113  0.8697
 5933TIP3    H139214   0.577   0.288   1.665  0.3184  1.2940  0.6805
 5933TIP3    H239215   0.623   0.209   1.544 -2.9888  0.9837 -0.4431
 5934TIP3   OH239216   1.569   3.057   2.174 -0.3561 -0.1405  0.1466
 5934TIP3    H139217   1.578   3.065   2.079 -0.7387 -2.2277 -0.0947
 5934TIP3    H239218   1.556   3.147   2.205 -1.0928  0.4733 -1.8629
 5935TIP3   OH239219   3.027   1.894  13.642 -0.2736  0.2772 -0.1337
 5935TIP3    H139220   3.030   1.964  13.577  0.1484  0.1778 -0.2228
 5935TIP3    H239221   3.108   1.845  13.628 -0.2908  0.1192  0.3143
 5936TIP3   OH239222   0.731   6.335   5.600 -0.1182  0.1497  0.0543
 5936TIP3    H139223   0.636   6.324   5.600 -0.0925 -0.0549 -0.1563
 5936TIP3    H239224   0.744   6.430   5.607 -0.3350  0.1539  0.4270
 5937TIP3   OH239225   5.698   0.079  11.663  0.0420 -0.3308  1.3001
 5937TIP3    H139226   5.723   0.129  11.740 -0.9616  2.1794  0.0323
 5937TIP3    H239227   5.636   0.013  11.695 -0.1311  0.4954  2.6732
 5938TIP3   OH239228   4.587   2.956   5.371  0.1092  0.4771  0.1976
 5938TIP3    H139229   4.565   2.893   5.439  0.6551  1.8073  1.6218
 5938TIP3    H239230   4.674   2.929   5.341 -0.0680 -0.0197  0.1250
 5939TIP3   OH239231   2.471   3.652   4.747 -0.3193 -0.0537  0.1607
 5939TIP3    H139232   2.481   3.704   4.668 -0.1629  1.2878  1.0377
 5939TIP3    H239233   2.388   3.607   4.737 -1.0831  1.3926 -0.0428
 5940TIP3   OH239234   3.807   6.367  11.890 -0.0051  0.2111 -0.0996
 5940TIP3    H139235   3.789   6.455  11.924  0.1767  0.5956 -0.9795
 5940TIP3    H239236   3.879   6.380  11.828  0.0032 -0.5559 -0.2531
 5941TIP3   OH239237   0.316   0.836   2.879  0.6026 -0.3261 -0.3682
 5941TIP3    H139238   0.361   0.903   2.930 -0.0629 -0.8059  0.8660
 5941TIP3    H239239   0.358   0.840   2.793  0.3644  1.8880 -0.4250
 5942TIP3   OH239240   5.050   1.008  15.459 -0.4925  0.5804 -0.7055
 5942TIP3    H139241   4.983   0.942  15.443 -1.0609  1.3284 -1.4541
 5942TIP3    H239242   5.080   1.034  15.372 -1.0630  2.0973 -0.4704
 5943TIP3   OH239243   3.797   3.926  13.355  0.1954  0.1149  0.0413
 5943TIP3    H139244   3.723   3.939  13.296  0.3820  1.2068  0.0243
 5943TIP3    H239245   3.760   3.879  13.430 -0.6074  0.9485  0.1906
 5944TIP3   OH239246   3.894   4.173  16.567 -0.2868 -0.0031 -0.0701
 5944TIP3    H139247   3.965   4.142  16.512  0.7916 -1.5679  2.1583
 5944TIP3    H239248   3.827   4.104  16.562 -0.4184  0.1067  0.1343
 5945TIP3   OH239249   2.159   5.902  15.586 -0.1292  0.0694  0.4207
 5945TIP3    H139250   2.078   5.943  15.556 -0.2776  0.5418  1.4434
 5945TIP3    H239251   2.226   5.937  15.527 -0.7328 -0.7531 -0.7845
 5946TIP3   OH239252   6.689   0.213   3.332  0.1735 -0.1637  0.4148
 5946TIP3    H139253   6.753   0.280   3.306 -0.7698  0.3778 -0.5710
 5946TIP3    H239254   6.741   0.144   3.372  1.1488  1.2644  1.6730
 5947TIP3   OH239255   0.580   4.895   4.403  0.3105 -0.0138  0.5286
 5947TIP3    H139256   0.632   4.815   4.399  1.2206  0.6339 -1.1081
 5947TIP3    H239257   0.570   4.913   4.497  0.2173 -1.9531  0.9007
 5948TIP3   OH239258   6.692   0.482   5.739 -0.5604 -0.0825 -0.2764
 5948TIP3    H139259   6.634   0.422   5.691  0.9799 -0.0143 -2.2475
 5948TIP3    H239260   6.780   0.458   5.711  0.1030  2.9893 -0.9327
 5949TIP3   OH239261   4.877   3.245   3.450 -0.0648  0.0547 -0.3738
 5949TIP3    H139262   4.795   3.195   3.452  0.2718 -0.5261 -1.1802
 5949TIP3    H239263   4.912   3.237   3.539 -0.0484 -1.0620 -0.4801
 5950TIP3   OH239264   4.668   4.899   3.781 -0.1443  0.5338  0.2667
 5950TIP3    H139265   4.591   4.842   3.787  0.6594 -0.4862  1.0507
 5950TIP3    H239266   4.660   4.942   3.695  1.1964 -3.6005 -2.0272
 5951TIP3   OH239267   2.099   5.406   6.650 -0.0996  0.1184 -0.5097
 5951TIP3    H139268   2.107   5.498   6.627  1.1537  0.0047 -0.5193
 5951TIP3    H239269   2.119   5.402   6.743  0.3027 -0.2163 -0.6101
 5952TIP3   OH239270   6.363   5.469   4.133 -0.1856 -0.0027 -0.2956
 5952TIP3    H139271   6.345   5.446   4.224 -0.8966 -1.3746 -0.7725
 5952TIP3    H239272   6.387   5.562   4.136 -1.6855  0.3733  1.1050
 5953TIP3   OH239273   1.783   6.773   2.226  0.3226  0.1773 -0.1524
 5953TIP3    H139274   1.795   6.866   2.205  1.0915  0.0847 -0.1499
 5953TIP3    H239275   1.842   6.758   2.300 -0.4719 -0.1013  0.4199
 5954TIP3   OH239276   3.393   3.436  16.352 -0.7400 -0.2548  0.4113
 5954TIP3    H139277   3.330   3.500  16.319 -2.0580 -1.2023  1.0756
 5954TIP3    H239278   3.437   3.481  16.424  0.0051  0.7319 -0.6363
 5955TIP3   OH239279   3.079   6.461   5.071 -0.0914 -0.0522 -0.3322
 5955TIP3    H139280   3.030   6.528   5.023 -2.4550 -1.2358  0.3269
 5955TIP3    H239281   3.126   6.509   5.139  0.1989  1.1969 -1.4093
 5956TIP3   OH239282   6.046   3.767   3.268 -0.0387  0.0332 -0.6969
 5956TIP3    H139283   6.061   3.760   3.174  0.0382  0.8491 -0.7465
 5956TIP3    H239284   5.972   3.828   3.275  1.4019  1.7283 -0.1268
 5957TIP3   OH239285   2.518   3.699   3.172  0.1837  0.0097  0.3017
 5957TIP3    H139286   2.500   3.643   3.096  0.0699  0.3608  0.0709
 5957TIP3    H239287   2.540   3.784   3.135  3.3804 -0.6646  0.5224
 5958TIP3   OH239288   1.606   0.675   4.374  0.1027 -0.0307 -0.7857
 5958TIP3    H139289   1.580   0.586   4.394  0.1322  0.3801  1.1266
 5958TIP3    H239290   1.665   0.667   4.299  0.2350 -1.6241 -0.5151
 5959TIP3   OH239291   3.620   4.365   5.750  0.1015 -0.4297  0.0550
 5959TIP3    H139292   3.556   4.417   5.799  0.3431  0.2584 -0.3493
 5959TIP3    H239293   3.624   4.281   5.797 -1.3309 -0.6012 -0.0952
 5960TIP3   OH239294   3.101   0.588  12.526 -0.7211  0.4193  0.1016
 5960TIP3    H139295   3.063   0.550  12.605 -0.3974 -0.1754 -0.0268
 5960TIP3    H239296   3.130   0.675  12.553 -1.2937  0.5012  0.4447
 5961TIP3   OH239297   6.384   0.360  12.847 -0.6358 -0.5602 -0.5277
 5961TIP3    H139298   6.442   0.288  12.823 -0.6430 -1.2398  1.4405
 5961TIP3    H239299   6.413   0.387  12.934 -0.8531  1.5974 -1.1103
 5962TIP3   OH239300   2.497   2.051  16.002  0.9216  0.7722  0.0946
 5962TIP3    H139301   2.517   2.035  16.095 -0.3670  2.1141  0.6207
 5962TIP3    H239302   2.512   2.145  15.991  2.8420  0.3095 -1.5192
 5963TIP3   OH239303   5.243   1.068   3.709  0.7874  0.0625  0.6964
 5963TIP3    H139304   5.230   1.046   3.617  0.2256  2.1243  0.2435
 5963TIP3    H239305   5.305   1.141   3.707  1.2156 -0.2533  1.9885
 5964TIP3   OH239306   2.754   4.836  15.885 -0.2390 -0.0838  0.5550
 5964TIP3    H139307   2.711   4.863  15.804 -1.2615  0.9676  1.4176
 5964TIP3    H239308   2.743   4.741  15.888  0.8057 -0.2744 -1.0821
 5965TIP3   OH239309   5.629   1.193  14.995 -0.2383 -0.0653 -0.3505
 5965TIP3    H139310   5.662   1.121  15.048  1.7675  0.3777 -0.9593
 5965TIP3    H239311   5.693   1.202  14.924 -0.7226  1.9730 -0.5593
 5966TIP3   OH239312   4.126   4.292  13.530  0.6315  0.2960 -0.0821
 5966TIP3    H139313   4.059   4.224  13.522  0.1063  0.8695 -0.6994
 5966TIP3    H239314   4.207   4.250  13.501 -0.1910  0.6890 -3.1392
 5967TIP3   OH239315   4.467   1.135  11.751  0.5612  0.1466  0.1422
 5967TIP3    H139316   4.554   1.130  11.710 -0.7733 -0.3318 -2.7818
 5967TIP3    H239317   4.478   1.089  11.834  3.5058  1.4769  0.5673
 5968TIP3   OH239318   1.345   3.767  16.982 -0.4498 -0.2108 -0.1901
 5968TIP3    H139319   1.436   3.761  16.956 -0.6257 -2.1491 -0.3948
 5968TIP3    H239320   1.295   3.753  16.902 -0.9433 -2.5131  0.4815
 5969TIP3   OH239321   2.709   3.772  13.227 -0.7333  0.0456  0.1963
 5969TIP3    H139322   2.664   3.689  13.243 -1.7552  0.1135 -2.0576
 5969TIP3    H239323   2.650   3.821  13.169  1.2290  1.0676 -1.0107
 5970TIP3   OH239324   4.904   5.330  13.464  0.2206 -0.2874  0.3525
 5970TIP3    H139325   4.864   5.253  13.423 -1.2032 -0.4431  1.9760
 5970TIP3    H239326   4.846   5.352  13.537  2.6543 -0.0172  2.2984
 5971TIP3   OH239327   4.788   3.611  16.339  1.0331  0.6519  0.2399
 5971TIP3    H139328   4.796   3.687  16.281  1.2111  0.6296  0.2353
 5971TIP3    H239329   4.816   3.537  16.285  2.4831  0.8078  0.7539
 5972TIP3   OH239330   1.681   0.716   6.447 -0.9780 -0.2563 -0.3707
 5972TIP3    H139331   1.653   0.770   6.521 -2.8230 -2.8742  0.9160
 5972TIP3    H239332   1.620   0.738   6.376 -1.3268 -0.1958 -0.0510
 5973TIP3   OH239333   2.220   0.849   3.768  0.1946 -0.2801  0.0437
 5973TIP3    H139334   2.158   0.897   3.823  1.0864  0.7154  0.1940
 5973TIP3    H239335   2.257   0.783   3.826 -0.3853 -0.5732  0.0784
 5974TIP3   OH239336   5.749   3.846  12.702  0.5735 -0.0470 -0.2835
 5974TIP3    H139337   5.711   3.788  12.636  1.2752  0.0795 -0.8049
 5974TIP3    H239338   5.844   3.835  12.692  0.7141  1.0729 -0.2827
 5975TIP3   OH239339   4.835   1.980   4.896 -0.3699  0.2089 -0.1491
 5975TIP3    H139340   4.877   2.066   4.900 -0.2141  0.1565 -0.5980
 5975TIP3    H239341   4.787   1.973   4.978  0.7387  0.1394  0.4998
 5976TIP3   OH239342   4.370   2.757  12.377 -0.3439 -0.2438  0.5142
 5976TIP3    H139343   4.465   2.763  12.363 -0.0247 -4.0346  0.5235
 5976TIP3    H239344   4.333   2.747  12.289 -0.8755  2.0896  0.4346
 5977TIP3   OH239345   1.525   4.861  11.309  0.3173 -0.0332  0.4501
 5977TIP3    H139346   1.602   4.908  11.341  0.1708  0.8715 -0.5016
 5977TIP3    H239347   1.458   4.929  11.298  0.1573 -0.4120 -1.0930
 5978TIP3   OH239348   6.620   1.862  16.556 -0.1117 -0.2413  0.3754
 5978TIP3    H139349   6.625   1.857  16.460  2.4464 -1.7662  0.5128
 5978TIP3    H239350   6.628   1.771  16.585  2.7899  0.4858  2.1019
 5979TIP3   OH239351   4.092   2.479   1.163 -0.5879 -0.1745  0.3588
 5979TIP3    H139352   4.151   2.450   1.232  0.2550 -0.5477 -0.5146
 5979TIP3    H239353   4.030   2.407   1.152 -1.1146  0.1563  1.1740
 5980TIP3   OH239354   4.456   0.299  16.706  0.6117  0.1478 -0.0471
 5980TIP3    H139355   4.480   0.290  16.614 -1.2115  1.5096 -0.6792
 5980TIP3    H239356   4.406   0.380  16.710 -1.0252 -0.9065  1.7832
 5981TIP3   OH239357   2.680   1.585   2.067 -0.2673  0.5892 -0.1585
 5981TIP3    H139358   2.697   1.494   2.044 -1.0891 -0.1591  2.0469
 5981TIP3    H239359   2.690   1.633   1.985 -2.0369 -1.7896 -1.8132
 5982TIP3   OH239360   3.223   4.798  16.027  0.4457 -0.2597 -0.3643
 5982TIP3    H139361   3.286   4.776  16.096  0.7092  1.8208  0.0891
 5982TIP3    H239362   3.278   4.819  15.951  0.2454  0.1113 -0.4047
 5983TIP3   OH239363   4.807   1.081  15.802 -0.1447 -0.0843  0.1421
 5983TIP3    H139364   4.862   1.137  15.746 -0.8360 -0.1749 -0.6319
 5983TIP3    H239365   4.830   0.992  15.777 -1.2512 -0.1156 -0.7781
 5984TIP3   OH239366   4.666   5.501  13.470  0.5427 -0.1220  0.5395
 5984TIP3    H139367   4.622   5.427  13.427  0.3158 -0.5103  1.4362
 5984TIP3    H239368   4.681   5.564  13.399 -0.0120 -0.6730 -0.0764
 5985TIP3   OH239369   2.988   5.811   5.850  0.2259 -0.4519  0.3516
 5985TIP3    H139370   2.949   5.897   5.864  4.4476  1.7264 -0.4344
 5985TIP3    H239371   2.947   5.755   5.916 -1.4890  2.5119  1.9227
 5986TIP3   OH239372   0.792   3.671  13.141 -0.0171  0.0606 -0.3409
 5986TIP3    H139373   0.757   3.730  13.075 -1.0213 -1.8483 -1.5940
 5986TIP3    H239374   0.856   3.618  13.094 -0.1931 -0.8093  0.3757
 5987TIP3   OH239375   6.260   5.048   2.878  0.0031 -0.0739  0.2574
 5987TIP3    H139376   6.173   5.036   2.840 -0.0676  2.6304 -0.5465
 5987TIP3    H239377   6.246   5.106   2.952  0.7515 -1.9077  1.8646
 5988TIP3   OH239378   3.351   6.048  13.949 -0.2657 -0.0946  0.3847
 5988TIP3    H139379   3.425   6.109  13.955 -0.4708 -0.0273  2.7266
 5988TIP3    H239380   3.391   5.964  13.929  0.6065 -0.2689  2.6612
 5989TIP3   OH239381   1.317   5.406  14.211 -0.2715 -0.3534 -0.2531
 5989TIP3    H139382   1.241   5.462  14.223 -0.0572 -0.1303  0.0834
 5989TIP3    H239383   1.392   5.460  14.237  0.1122 -0.2138 -1.5983
 5990TIP3   OH239384   0.917   3.637   0.448 -0.3690  0.4373  0.2454
 5990TIP3    H139385   0.988   3.691   0.484 -0.4190 -1.1555  2.8331
 5990TIP3    H239386   0.837   3.675   0.485 -0.4860 -0.7129  1.2055
 5991TIP3   OH239387   6.513   4.871  14.167  0.2626 -0.1078  0.8106
 5991TIP3    H139388   6.535   4.780  14.187 -0.3988 -0.1564  1.3097
 5991TIP3    H239389   6.468   4.904  14.245 -0.8323  0.1973  0.0620
 5992TIP3   OH239390   3.430   4.223   3.221  0.3932  0.0282  0.3782
 5992TIP3    H139391   3.526   4.225   3.220  0.3699  0.7664 -0.8774
 5992TIP3    H239392   3.408   4.203   3.312  1.7135  1.5394  1.0530
 5993TIP3   OH239393   1.006   6.183   3.773 -0.0701 -0.3770  0.6725
 5993TIP3    H139394   0.947   6.108   3.763  1.3080 -1.6078  1.6225
 5993TIP3    H239395   0.958   6.243   3.831 -1.4858 -0.1658 -0.6852
 5994TIP3   OH239396   5.351   3.373  15.619 -0.1782 -0.2013  0.1044
 5994TIP3    H139397   5.263   3.386  15.583  0.2498 -0.4459 -1.0742
 5994TIP3    H239398   5.336   3.345  15.709 -1.2603  2.1012  0.6923
 5995TIP3   OH239399   2.211   1.195  12.372  0.1067 -0.0575  0.2489
 5995TIP3    H139400   2.151   1.242  12.431 -0.9227 -1.9040  0.7057
 5995TIP3    H239401   2.166   1.193  12.288  1.8843  3.2059 -0.9003
 5996TIP3   OH239402   0.546   5.200   0.763  0.3671  0.0626 -0.3213
 5996TIP3    H139403   0.536   5.163   0.675 -2.0046  0.3588 -0.2223
 5996TIP3    H239404   0.558   5.294   0.748 -4.1309  0.7549 -0.2743
 5997TIP3   OH239405   1.416   1.712   3.802  0.3093 -0.1705  0.1436
 5997TIP3    H139406   1.321   1.723   3.799  0.1893 -1.4566 -1.8560
 5997TIP3    H239407   1.451   1.793   3.764  0.0248  0.4836  1.2794
 5998TIP3   OH239408   0.510   4.171   0.822 -0.6008 -0.0343 -0.0590
 5998TIP3    H139409   0.509   4.169   0.727 -0.9759 -0.5518 -0.0483
 5998TIP3    H239410   0.603   4.169   0.846 -0.5076  0.1513 -0.4141
 5999TIP3   OH239411   3.136   3.713  12.720 -0.6185  0.1835 -0.4558
 5999TIP3    H139412   3.086   3.760  12.653 -2.5391 -1.3415 -0.1116
 5999TIP3    H239413   3.164   3.632  12.678 -1.5259 -0.6176  0.4755
 6000TIP3   OH239414   2.264   2.807  11.138  0.1698 -0.2496  0.4588
 6000TIP3    H139415   2.300   2.837  11.055  0.5813 -0.8821  0.4011
 6000TIP3    H239416   2.199   2.741  11.113 -1.0455  0.8988  0.5620
 6001TIP3   OH239417   3.032   3.158   2.861  0.3253 -0.3304 -0.3969
 6001TIP3    H139418   3.074   3.194   2.939 -0.2856  0.2107 -0.3127
 6001TIP3    H239419   3.097   3.169   2.792  0.6152 -0.1993 -0.1044
 6002TIP3   OH239420   2.625   1.127   4.411  0.8527  0.4180  0.0109
 6002TIP3    H139421   2.664   1.163   4.490 -0.6186  0.1445  0.8794
 6002TIP3    H239422   2.669   1.043   4.398  0.8409  0.2969  0.7550
 6003TIP3   OH239423   6.218   4.618   3.706  0.1399 -0.3071  0.5098
 6003TIP3    H139424   6.127   4.600   3.681  0.7095 -2.5424  0.0140
 6003TIP3    H239425   6.242   4.546   3.764  1.2982  0.8105  1.4643
 6004TIP3   OH239426   3.797   6.587   0.074 -0.5001 -0.3555 -0.2762
 6004TIP3    H139427   3.803   6.665   0.128 -1.0074 -0.8102  0.4613
 6004TIP3    H239428   3.778   6.516   0.136  1.2771 -1.2919 -0.7615
 6005TIP3   OH239429   0.235   2.722  10.670  0.5191  0.1549 -0.3565
 6005TIP3    H139430   0.266   2.636  10.697  0.0862 -0.5230 -1.9281
 6005TIP3    H239431   0.313   2.765  10.634  1.1405  1.1410  2.1156
 6006TIP3   OH239432   3.160   3.887  13.658 -0.3655 -0.2589 -0.2243
 6006TIP3    H139433   3.197   3.907  13.744 -0.0809  1.6081 -0.7551
 6006TIP3    H239434   3.222   3.824  13.620  2.7382  3.3079 -1.3592
 6007TIP3   OH239435   5.642   5.910   6.181  0.0524 -0.0566 -0.6350
 6007TIP3    H139436   5.737   5.904   6.187  0.1442  0.9364 -1.0900
 6007TIP3    H239437   5.614   5.819   6.168  0.9979 -0.2517 -1.3913
 6008TIP3   OH239438   1.540   1.253  17.112  0.0678  0.0040 -0.5718
 6008TIP3    H139439   1.449   1.245  17.141  0.8206 -2.5133  1.2802
 6008TIP3    H239440   1.534   1.295  17.026 -2.9462 -1.4894 -1.1594
 6009TIP3   OH239441   6.425   5.315   2.903 -0.3573  0.0892  0.2265
 6009TIP3    H139442   6.352   5.350   2.955 -0.0129  1.5459 -0.2408
 6009TIP3    H239443   6.479   5.392   2.883  0.8817 -0.8482 -0.1138
 6010TIP3   OH239444   3.114   2.580   0.627  0.2539  0.5877 -0.6485
 6010TIP3    H139445   3.102   2.562   0.534 -0.6800  0.0777 -0.4278
 6010TIP3    H239446   3.150   2.499   0.663 -0.2670  0.4690 -0.3920
 6011TIP3   OH239447   4.665   0.491  11.251  0.2173  0.1745 -0.1691
 6011TIP3    H139448   4.751   0.469  11.288 -0.1492 -1.5810 -0.3576
 6011TIP3    H239449   4.680   0.490  11.156  0.0338  0.0881 -0.1951
 6012TIP3   OH239450   0.440   6.175  13.843  0.5828  0.1919  0.7749
 6012TIP3    H139451   0.481   6.139  13.921 -0.2737 -2.6711 -0.0391
 6012TIP3    H239452   0.346   6.170  13.861  0.4257  1.0460  0.2150
 6013TIP3   OH239453   2.585   0.107  16.777 -0.5122  0.0234 -0.3626
 6013TIP3    H139454   2.590   0.186  16.724  0.5791 -0.0923 -0.4365
 6013TIP3    H239455   2.516   0.125  16.840 -0.0563  1.1547 -0.1800
 6014TIP3   OH239456   4.175   2.620   2.611 -0.4745 -0.3706  0.5678
 6014TIP3    H139457   4.231   2.547   2.588 -0.0960  0.2477 -0.5043
 6014TIP3    H239458   4.121   2.634   2.533 -0.2721  0.7317  0.6178
 6015TIP3   OH239459   2.676   4.723  12.396 -0.1890 -0.3547  0.0596
 6015TIP3    H139460   2.692   4.717  12.491  1.4587 -0.0845 -0.1854
 6015TIP3    H239461   2.702   4.638  12.361 -0.3190 -0.2798 -0.2221
 6016TIP3   OH239462   4.316   6.031  13.394  0.3835 -0.1165 -0.4315
 6016TIP3    H139463   4.333   5.991  13.308  0.5436 -0.7659 -0.0958
 6016TIP3    H239464   4.317   6.125  13.376  1.3332 -0.2203 -0.9699
 6017TIP3   OH239465   6.772   1.803   3.189  0.2757 -0.1331 -0.9804
 6017TIP3    H139466   6.775   1.840   3.277 -1.5445 -0.3229 -0.8140
 6017TIP3    H239467   6.863   1.782   3.168  0.6178 -0.9367  1.2141
 6018TIP3   OH239468   4.873   6.399   1.657  0.2462  0.5250 -0.1028
 6018TIP3    H139469   4.798   6.458   1.649  0.2605  0.6914  0.8679
 6018TIP3    H239470   4.945   6.456   1.686  0.8191  0.4093 -1.2501
 6019TIP3   OH239471   3.876   2.453   0.431  0.3772 -0.0097 -0.4765
 6019TIP3    H139472   3.930   2.376   0.449 -0.1928  0.1422  2.0746
 6019TIP3    H239473   3.850   2.484   0.518 -1.4234  1.6160 -1.5764
 6020TIP3   OH239474   2.073   1.587   5.787  0.0208  0.0964 -0.0903
 6020TIP3    H139475   2.162   1.623   5.783  0.0118  0.2030  0.6376
 6020TIP3    H239476   2.081   1.501   5.746  0.2551  0.5047 -0.9160
 6021TIP3   OH239477   3.029   5.693   3.660  0.0643 -0.4387 -0.3117
 6021TIP3    H139478   3.054   5.601   3.666 -0.6790 -0.7434 -1.5649
 6021TIP3    H239479   3.112   5.739   3.647  0.2490 -1.1664 -1.8371
 6022TIP3   OH239480   6.598   5.706   0.131 -0.2204  0.3383  0.4201
 6022TIP3    H139481   6.545   5.776   0.170 -1.3234 -1.0403  1.4544
 6022TIP3    H239482   6.581   5.630   0.186  2.3234 -0.3251  0.3274
 6023TIP3   OH239483   1.486   5.806   0.652 -0.6130  0.2503  0.4298
 6023TIP3    H139484   1.417   5.840   0.594 -2.0669  0.4487  2.2203
 6023TIP3    H239485   1.541   5.883   0.670  2.0427 -0.5604 -3.5454
 6024TIP3   OH239486   6.686   1.081  14.705 -0.3965  0.0343 -0.1852
 6024TIP3    H139487   6.751   1.151  14.713 -0.8820  0.3539  1.1420
 6024TIP3    H239488   6.728   1.004  14.742 -0.0991 -0.2338 -1.0596
 6025TIP3   OH239489   3.481   2.734  14.948 -0.1452  0.0246 -0.5442
 6025TIP3    H139490   3.478   2.789  14.869 -1.3477  0.8049  0.0387
 6025TIP3    H239491   3.526   2.654  14.920 -1.8291 -0.2981 -2.3707
 6026TIP3   OH239492   4.453   2.155  14.156  0.0831 -0.0978  0.0846
 6026TIP3    H139493   4.462   2.075  14.208 -1.1695 -0.7594 -0.6905
 6026TIP3    H239494   4.461   2.126  14.065  0.7691  0.8294 -0.1587
 6027TIP3   OH239495   5.100   0.965   1.555  0.6595 -0.1326 -0.4169
 6027TIP3    H139496   5.132   0.910   1.484  0.1839  0.1927 -0.8846
 6027TIP3    H239497   5.025   0.916   1.591  1.7755 -0.9802  0.7938
 6028TIP3   OH239498   6.704   1.498   2.025  0.0285 -0.0409 -0.0976
 6028TIP3    H139499   6.620   1.474   1.986 -0.7095  2.1512  0.0988
 6028TIP3    H239500   6.710   1.445   2.104 -0.7406 -0.8802 -0.5897
 6029TIP3   OH239501   0.887   2.873  13.503  0.2844 -0.1420 -0.2676
 6029TIP3    H139502   0.820   2.941  13.509 -0.0695 -0.6014  1.1098
 6029TIP3    H239503   0.950   2.894  13.572  0.1106 -1.2774  0.2501
 6030TIP3   OH239504   2.317   1.096  15.497  0.3533 -0.2859 -0.1150
 6030TIP3    H139505   2.312   1.100  15.592  0.5204 -2.8985  0.0373
 6030TIP3    H239506   2.288   1.183  15.468 -0.6862  0.2118  2.2665
 6031TIP3   OH239507   5.063   5.685   1.298  0.2971 -0.0399 -0.1498
 6031TIP3    H139508   5.049   5.762   1.354  2.2355 -1.5696  2.5640
 6031TIP3    H239509   5.157   5.683   1.284  0.3362 -2.2375  0.3280
 6032TIP3   OH239510   3.599   0.269   5.754 -0.1384 -0.8223  0.4303
 6032TIP3    H139511   3.677   0.310   5.715  0.2843 -0.6718  1.4372
 6032TIP3    H239512   3.579   0.197   5.694  0.7965 -0.8906  0.1818
 6033TIP3   OH239513   4.779   1.244  11.924  0.2901 -0.2216  0.4717
 6033TIP3    H139514   4.817   1.163  11.892  1.0399  0.8232 -1.3385
 6033TIP3    H239515   4.748   1.289  11.846 -1.6509  0.4795  1.6090
 6034TIP3   OH239516   1.881   4.866   2.421  0.1096  0.0980 -0.3739
 6034TIP3    H139517   1.960   4.815   2.439 -1.0696 -1.1513  1.5039
 6034TIP3    H239518   1.810   4.801   2.426 -1.0537  1.2353 -1.8039
 6035TIP3   OH239519   6.123   2.301  16.998  0.5162  0.0013 -0.9872
 6035TIP3    H139520   6.215   2.318  17.018  0.4710  0.5949 -1.2582
 6035TIP3    H239521   6.120   2.209  16.971  0.7723 -0.4620  0.5238
 6036TIP3   OH239522   5.006   3.864   2.053 -0.1307 -0.1534 -0.3386
 6036TIP3    H139523   4.942   3.793   2.052 -0.8294  0.4636  0.3816
 6036TIP3    H239524   4.992   3.910   1.971 -1.6050  0.8454  0.4475
 6037TIP3   OH239525   0.174   4.233   2.853 -0.0572  0.0815  0.4064
 6037TIP3    H139526   0.120   4.292   2.906 -3.4607 -1.0805 -1.6690
 6037TIP3    H239527   0.220   4.291   2.792  0.3125  0.9913  1.5281
 6038TIP3   OH239528   4.980   5.225   0.784  0.2130 -0.2101 -0.3490
 6038TIP3    H139529   4.970   5.147   0.730  1.6850 -0.0068 -0.9466
 6038TIP3    H239530   4.996   5.296   0.721  0.5704  0.2743  0.2830
 6039TIP3   OH239531   0.559   1.242  13.428  1.0433 -0.3411  0.4784
 6039TIP3    H139532   0.573   1.158  13.384  1.4909 -0.5411  0.9824
 6039TIP3    H239533   0.571   1.221  13.521 -0.9224 -0.1488  0.7857
 6040TIP3   OH239534   1.260   1.884   3.104 -0.1058  0.1297  0.5797
 6040TIP3    H139535   1.342   1.873   3.057 -0.8698  0.5190 -0.8767
 6040TIP3    H239536   1.252   1.806   3.158  1.9372  0.7852  1.8613
 6041TIP3   OH239537   6.724   1.038  14.029 -0.4279  0.0760  0.0541
 6041TIP3    H139538   6.784   1.050  14.102 -1.0571  1.7832  0.3182
 6041TIP3    H239539   6.709   0.944  14.026  1.0288 -0.2042  0.9657
 6042TIP3   OH239540   1.031   6.159   4.321  0.1413 -0.6295  0.2738
 6042TIP3    H139541   0.987   6.099   4.262  0.1882 -0.2049 -0.1958
 6042TIP3    H239542   0.986   6.148   4.405 -1.7473  0.7265 -0.5154
 6043TIP3   OH239543   6.483   0.225  15.900 -0.1104 -0.1390  0.3253
 6043TIP3    H139544   6.510   0.313  15.925 -0.0821  0.4546 -1.7337
 6043TIP3    H239545   6.443   0.236  15.814 -0.9433 -2.0047  0.4566
 6044TIP3   OH239546   2.989   6.486   4.238  0.5424  0.3706 -0.1890
 6044TIP3    H139547   3.053   6.480   4.167  1.5930 -0.3035  0.7900
 6044TIP3    H239548   2.949   6.399   4.240 -0.6786  0.9012 -1.0353
 6045TIP3   OH239549   6.647   0.213  14.640  0.6483 -0.6418 -0.2887
 6045TIP3    H139550   6.610   0.254  14.562  1.5031  0.9255  0.1141
 6045TIP3    H239551   6.741   0.209  14.623  0.8974  0.1225  0.8415
 6046TIP3   OH239552   4.799   2.750   5.381 -0.0115  0.2716  0.6986
 6046TIP3    H139553   4.856   2.745   5.458  2.5613  0.3205 -1.1102
 6046TIP3    H239554   4.826   2.676   5.327  0.2555  1.8783 -1.4556
 6047TIP3   OH239555   5.501   3.989   2.153 -0.5397  0.6034  0.4514
 6047TIP3    H139556   5.426   3.977   2.095  0.0907 -1.1304 -0.0308
 6047TIP3    H239557   5.542   4.070   2.122 -1.4887  0.8917 -0.0790
 6048TIP3   OH239558   3.731   4.008  12.591  0.0803 -0.2530  0.5870
 6048TIP3    H139559   3.796   3.938  12.591  0.2668 -0.0895 -0.1846
 6048TIP3    H239560   3.735   4.045  12.502 -1.2219 -0.3939  0.4581
 6049TIP3   OH239561   6.765   2.774   1.558  0.4498  0.5018  0.7758
 6049TIP3    H139562   6.839   2.831   1.538 -0.5884  1.3003 -0.8702
 6049TIP3    H239563   6.803   2.687   1.564  1.1457  0.5217 -2.6484
 6050TIP3   OH239564   5.258   3.390   2.115 -0.2600 -0.3680 -0.3052
 6050TIP3    H139565   5.175   3.387   2.163  0.1171  0.2222  0.4017
 6050TIP3    H239566   5.308   3.459   2.159  0.4912 -0.5214 -0.9152
 6051TIP3   OH239567   2.872   0.112  13.795  0.5991  0.6941  0.3511
 6051TIP3    H139568   2.821   0.092  13.716  0.9766 -2.4685  0.8579
 6051TIP3    H239569   2.906   0.200  13.779  0.3397  0.2733 -2.8598
 6052TIP3   OH239570   5.169   6.658  12.827 -0.4706 -0.1497 -0.0046
 6052TIP3    H139571   5.152   6.737  12.879  3.3253  0.3145  0.6929
 6052TIP3    H239572   5.124   6.588  12.873  1.4425  0.5471  3.0366
 6053TIP3   OH239573   4.054   0.200   0.928  0.3958 -0.8044  0.3361
 6053TIP3    H139574   4.091   0.163   1.009 -0.9693  4.4157  3.6054
 6053TIP3    H239575   4.122   0.259   0.895 -1.0271  1.1055  0.7101
 6054TIP3   OH239576   3.426   0.589  12.973  0.0691  0.3522  0.4875
 6054TIP3    H139577   3.369   0.660  12.944  0.4442  0.6853  0.5536
 6054TIP3    H239578   3.466   0.556  12.893 -0.9631 -0.5447  0.3274
 6055TIP3   OH239579   4.437   1.001  14.966  0.0130  0.4242  1.0544
 6055TIP3    H139580   4.479   0.942  14.904  1.1686  2.3060  0.0035
 6055TIP3    H239581   4.494   0.998  15.044 -0.8742 -1.1348  1.6712
 6056TIP3   OH239582   1.204   0.593  14.405  0.3782 -0.1646 -0.3025
 6056TIP3    H139583   1.121   0.629  14.435  1.7391 -2.0525  6.4895
 6056TIP3    H239584   1.180   0.512  14.360 -1.4857 -0.9825  2.0812
 6057TIP3   OH239585   4.028   0.165   3.772 -0.0957 -0.6695 -0.5472
 6057TIP3    H139586   4.069   0.135   3.691  0.3001  1.4967 -1.1783
 6057TIP3    H239587   4.089   0.230   3.807 -1.4092  0.1784  0.2223
 6058TIP3   OH239588   4.259   2.724   1.804  0.5583 -0.1664  0.2975
 6058TIP3    H139589   4.175   2.769   1.794  0.9166  0.0823 -1.7486
 6058TIP3    H239590   4.294   2.756   1.887 -1.7158 -0.8518  1.5593
 6059TIP3   OH239591   5.204   2.297  13.456  0.0524  0.6799  0.3847
 6059TIP3    H139592   5.216   2.233  13.526  1.5900 -0.8111 -1.1971
 6059TIP3    H239593   5.292   2.313  13.423 -0.5323  2.2013 -0.4981
 6060TIP3   OH239594   2.607   1.328  12.788 -0.2363 -0.1334 -0.0655
 6060TIP3    H139595   2.564   1.366  12.864 -1.6974 -0.9439 -0.4700
 6060TIP3    H239596   2.639   1.403  12.738  0.2744  0.4181  1.0700
 6061TIP3   OH239597   0.261   1.496  11.980 -0.1554  0.2600 -0.1907
 6061TIP3    H139598   0.167   1.513  11.982 -0.2747 -0.4014  0.2728
 6061TIP3    H239599   0.267   1.401  11.966  0.4482  0.3940 -0.8324
 6062TIP3   OH239600   2.419   4.046  14.913 -0.1816 -1.2008  0.0839
 6062TIP3    H139601   2.395   3.956  14.934  0.1625 -0.7409  2.5867
 6062TIP3    H239602   2.484   4.069  14.979 -0.2037  0.8732 -0.5890
 6063TIP3   OH239603   4.846   0.418  14.706  0.4472 -0.6460 -0.0737
 6063TIP3    H139604   4.778   0.380  14.761  0.0091  0.7251  0.3518
 6063TIP3    H239605   4.859   0.354  14.636 -0.3365 -1.5240  0.5726
 6064TIP3   OH239606   4.083   2.812   0.015  0.1295  0.3110 -0.5233
 6064TIP3    H139607   4.050   2.729   0.048 -2.9315  1.5765 -0.2102
 6064TIP3    H239608   4.096   2.866   0.094 -0.4496  0.9682 -0.8618
 6065TIP3   OH239609   6.609   1.698  14.464 -0.0415  0.2597  0.1780
 6065TIP3    H139610   6.544   1.767  14.480 -1.0431 -0.6448  0.0718
 6065TIP3    H239611   6.585   1.661  14.380  0.4774 -0.2487  0.2490
 6066TIP3   OH239612   3.328   3.303   4.388 -0.7128  0.1470 -0.3791
 6066TIP3    H139613   3.414   3.330   4.420  0.2295 -3.4047  0.2950
 6066TIP3    H239614   3.347   3.255   4.307 -2.0938 -0.3119 -0.4477
 6067TIP3   OH239615   3.422   3.895  15.906  0.4371  0.1103 -0.3380
 6067TIP3    H139616   3.371   3.880  15.826 -1.7103  0.8518  0.8584
 6067TIP3    H239617   3.503   3.937  15.875  1.0802 -2.5098 -2.4228
 6068TIP3   OH239618   1.827   5.443   1.705  0.2368 -0.4166  0.5746
 6068TIP3    H139619   1.869   5.359   1.686  1.1736  0.4611 -1.4458
 6068TIP3    H239620   1.776   5.427   1.784  0.5629 -2.8244  0.3454
 6069TIP3   OH239621   3.336   3.830  12.870 -0.0980  0.1106  0.2611
 6069TIP3    H139622   3.306   3.855  12.958 -0.4547  0.0352  0.1617
 6069TIP3    H239623   3.263   3.781  12.833  0.6732 -1.2684  0.5353
 6070TIP3   OH239624   0.388   2.907   5.203  0.1036  0.2891 -0.4491
 6070TIP3    H139625   0.308   2.862   5.178  0.5685 -0.3820 -0.7260
 6070TIP3    H239626   0.371   2.939   5.292  0.4304 -1.9557  0.4319
 6071TIP3   OH239627   3.014   6.251  12.588  0.4727  0.2082  0.3513
 6071TIP3    H139628   3.066   6.314  12.537  1.1454 -0.6668 -0.0605
 6071TIP3    H239629   2.995   6.181  12.527 -0.0351 -0.1213  0.8888
 6072TIP3   OH239630   0.085   0.016  11.505 -0.4376 -0.1426 -0.1428
 6072TIP3    H139631   0.020   0.078  11.537  0.1167  0.6656 -0.5700
 6072TIP3    H239632   0.142  -0.000  11.581 -0.0795  0.5329 -0.2615
 6073TIP3   OH239633   1.457   5.471   4.663 -0.0354 -0.5598  0.3532
 6073TIP3    H139634   1.435   5.447   4.753 -2.4643 -2.0516 -0.5721
 6073TIP3    H239635   1.383   5.525   4.633  0.6206 -0.2755 -0.8116
 6074TIP3   OH239636   2.173   2.255   0.336  0.0379  0.2997  0.0915
 6074TIP3    H139637   2.171   2.230   0.243  1.8915  1.3399 -0.2604
 6074TIP3    H239638   2.193   2.174   0.382  1.0068  0.1247 -0.6043
 6075TIP3   OH239639   1.549   5.458   1.597 -0.2294 -0.0965 -0.4450
 6075TIP3    H139640   1.534   5.476   1.690  2.4999  1.0747 -0.1757
 6075TIP3    H239641   1.624   5.397   1.597  1.0503  1.4287 -1.9045
 6076TIP3   OH239642   0.380   1.076   3.336 -0.0810 -0.4884  0.1455
 6076TIP3    H139643   0.306   1.097   3.393 -0.7233  1.0450 -1.2290
 6076TIP3    H239644   0.447   1.140   3.360 -0.2764  0.0229 -0.6433
 6077TIP3   OH239645   4.514   1.270  14.763 -0.1392  0.2496 -0.0786
 6077TIP3    H139646   4.435   1.215  14.759  0.5315 -0.6505 -1.2373
 6077TIP3    H239647   4.482   1.359  14.748 -0.5623 -0.4696 -4.0925
 6078TIP3   OH239648   1.432   0.878  16.718 -0.1655 -0.3002  0.0189
 6078TIP3    H139649   1.379   0.931  16.778 -0.7603 -1.6204  0.6626
 6078TIP3    H239650   1.470   0.810  16.774 -0.5343 -1.4013 -1.0794
 6079TIP3   OH239651   2.109   3.878   3.233  0.0874  0.2991 -0.0282
 6079TIP3    H139652   2.163   3.882   3.154  0.7730  0.5108  0.4469
 6079TIP3    H239653   2.113   3.966   3.269  0.2128  0.0607  0.5401
 6080TIP3   OH239654   3.598   3.718   0.339 -0.6838  0.2301  0.1202
 6080TIP3    H139655   3.556   3.725   0.425  0.3419  1.2714  0.5346
 6080TIP3    H239656   3.637   3.631   0.339  0.0980  0.5735  1.0661
 6081TIP3   OH239657   4.252   3.107   1.334  0.7973  0.0043  0.1835
 6081TIP3    H139658   4.185   3.119   1.401  1.7681 -0.1411  1.2107
 6081TIP3    H239659   4.322   3.060   1.379  2.2358  1.4792 -0.4477
 6082TIP3   OH239660   6.507   1.719   1.823  0.2651 -0.2302  0.1165
 6082TIP3    H139661   6.581   1.738   1.881  0.7919  3.1147 -1.5143
 6082TIP3    H239662   6.457   1.801   1.820 -1.2278 -1.1703 -1.9881
 6083TIP3   OH239663   6.732   5.261  16.447  0.0673 -0.4663 -0.2244
 6083TIP3    H139664   6.821   5.294  16.431  0.3236 -1.2031 -0.3225
 6083TIP3    H239665   6.689   5.265  16.362  0.3222 -1.0496 -0.3829
 6084TIP3   OH239666   0.504   5.769  12.127  0.0250 -0.4919  0.5237
 6084TIP3    H139667   0.527   5.748  12.036  1.5917 -0.7106  0.9466
 6084TIP3    H239668   0.408   5.768  12.128 -0.0310  0.1746 -1.2724
 6085TIP3   OH239669   2.885   4.080   4.422  0.3426 -0.0507 -0.0969
 6085TIP3    H139670   2.830   4.071   4.500  2.3529 -1.7024  1.1742
 6085TIP3    H239671   2.920   4.169   4.428  0.0421  0.0251  0.6027
 6086TIP3   OH239672   4.931   3.874   5.768 -0.2673  0.7211 -0.0954
 6086TIP3    H139673   4.969   3.832   5.845  1.5994  2.3401 -0.1059
 6086TIP3    H239674   4.962   3.821   5.694 -0.6395  0.1886  0.1248
 6087TIP3   OH239675   3.488   2.087  13.505  0.5899 -0.0851  0.1804
 6087TIP3    H139676   3.500   2.022  13.435  0.7725 -0.5451  0.6398
 6087TIP3    H239677   3.576   2.108  13.534  0.6192  1.5342 -1.0199
 6088TIP3   OH239678   2.960   5.662   0.130  0.7529 -0.3472  0.0962
 6088TIP3    H139679   2.992   5.602   0.197  0.8954  0.0679  0.3988
 6088TIP3    H239680   2.956   5.747   0.173  1.8138  0.1247 -0.7062
 6089TIP3   OH239681   3.481   2.826  10.959  0.1059  0.1202  0.5288
 6089TIP3    H139682   3.415   2.769  10.920 -1.0260 -0.2508  2.9672
 6089TIP3    H239683   3.525   2.866  10.883 -0.8720 -1.9112 -1.1611
 6090TIP3   OH239684   0.212   0.414  16.073 -0.1051  0.0001 -0.1959
 6090TIP3    H139685   0.287   0.376  16.028 -0.6972 -0.9715 -0.3874
 6090TIP3    H239686   0.214   0.375  16.160 -0.9087 -0.7357 -0.4996
 6091TIP3   OH239687   6.015   5.219   3.917 -0.2802  0.2227 -0.1206
 6091TIP3    H139688   5.933   5.174   3.899 -0.3382 -0.0634  0.8459
 6091TIP3    H239689   6.025   5.280   3.844 -1.1211 -0.0532 -0.4755
 6092TIP3   OH239690   5.910   5.616  14.920 -0.0714  0.2167 -0.4831
 6092TIP3    H139691   5.858   5.685  14.961 -0.1686  0.3021 -0.7493
 6092TIP3    H239692   5.853   5.580  14.853  0.5458  0.9182 -1.3851
 6093TIP3   OH239693   3.336   2.802   2.406 -0.1646 -0.0204 -0.0526
 6093TIP3    H139694   3.430   2.792   2.394 -0.3443  1.7916 -3.4344
 6093TIP3    H239695   3.328   2.869   2.474  1.1095  3.3968 -3.0927
 6094TIP3   OH239696   4.158   0.621   4.656  0.1491 -0.5095 -0.1126
 6094TIP3    H139697   4.164   0.550   4.593  0.1807  0.6573 -1.4565
 6094TIP3    H239698   4.248   0.636   4.684 -0.0652 -2.1944  1.5646
 6095TIP3   OH239699   3.850   2.818   3.503  0.0724 -0.2882  0.7726
 6095TIP3    H139700   3.812   2.850   3.422  1.7529  0.1260  0.1151
 6095TIP3    H239701   3.902   2.741   3.476  0.3664 -0.3470  1.4968
 6096TIP3   OH239702   4.742   6.149  12.475 -0.0027 -0.0302 -0.4710
 6096TIP3    H139703   4.826   6.131  12.433  0.1549 -0.1136 -0.1232
 6096TIP3    H239704   4.716   6.234  12.440  1.7671  1.5054  1.7711
 6097TIP3   OH239705   4.734   2.090  13.334 -0.2137 -0.7982  0.1802
 6097TIP3    H139706   4.793   2.158  13.366 -0.1882 -0.4165 -0.6797
 6097TIP3    H239707   4.701   2.048  13.414 -3.1106  2.6535  0.9234
 6098TIP3   OH239708   5.170   4.507   6.116  0.4143 -0.3976  0.4223
 6098TIP3    H139709   5.229   4.492   6.190  2.1282  0.1645 -0.8353
 6098TIP3    H239710   5.180   4.430   6.061 -2.5332 -1.8933  1.8257
 6099TIP3   OH239711   3.484   5.884   0.689 -0.4463 -0.0343  0.1863
 6099TIP3    H139712   3.531   5.857   0.610 -4.0142 -3.0037 -1.0474
 6099TIP3    H239713   3.552   5.895   0.755  2.0432 -3.5552 -1.6725
 6100TIP3   OH239714   3.336   6.544   0.349  0.3401 -0.3933 -0.5494
 6100TIP3    H139715   3.355   6.601   0.275 -0.8699  1.0015  0.2024
 6100TIP3    H239716   3.368   6.458   0.321  1.5369  0.4875 -1.9621
 6101TIP3   OH239717   0.798   2.585  15.032  0.2539 -0.2550 -0.6215
 6101TIP3    H139718   0.885   2.553  15.006  0.8747  0.7195  0.1863
 6101TIP3    H239719   0.803   2.680  15.020 -1.1596 -0.3141 -1.8332
 6102TIP3   OH239720   1.525   1.168   1.234  0.2173  0.0571  0.6224
 6102TIP3    H139721   1.581   1.115   1.177 -0.2030 -0.7280  0.9333
 6102TIP3    H239722   1.519   1.119   1.315 -0.2661  0.5296  0.8790
 6103TIP3   OH239723   3.355   6.642  15.434  0.3693 -0.1315 -0.0364
 6103TIP3    H139724   3.334   6.554  15.405 -0.0736 -0.9993  2.8349
 6103TIP3    H239725   3.290   6.662  15.501  0.8931  2.1024 -0.1496
 6104TIP3   OH239726   5.110   6.670  14.393 -0.0167  0.7551  0.8000
 6104TIP3    H139727   5.094   6.624  14.311 -0.4686  0.1283  1.2306
 6104TIP3    H239728   5.204   6.667  14.406 -0.2305 -2.0339  1.9432
 6105TIP3   OH239729   5.060   1.129   4.424 -0.2732  0.6732  0.6805
 6105TIP3    H139730   4.972   1.140   4.460 -0.4224  0.5926  0.3476
 6105TIP3    H239731   5.049   1.064   4.354 -0.6333  3.3076 -1.8131
 6106TIP3   OH239732   0.345   1.205  11.474 -0.5338  0.4242 -0.1789
 6106TIP3    H139733   0.409   1.250  11.418 -0.7325  0.5785 -0.2813
 6106TIP3    H239734   0.260   1.239  11.446 -0.6072  0.8289  0.5158
 6107TIP3   OH239735   0.148   5.537   0.188 -0.2470 -0.2635 -0.0259
 6107TIP3    H139736   0.062   5.499   0.169 -0.4614  0.3440 -0.2577
 6107TIP3    H239737   0.130   5.628   0.212  0.1671 -0.5871  1.5819
 6108TIP3   OH239738   0.211   3.669   0.875 -0.4940 -0.1042  0.6804
 6108TIP3    H139739   0.226   3.724   0.953  1.8052  0.8378 -0.3606
 6108TIP3    H239740   0.232   3.727   0.801  0.7014 -1.9854 -0.4937
 6109TIP3   OH239741   5.654   0.359   4.596  0.1793  0.7285  0.5190
 6109TIP3    H139742   5.615   0.289   4.647  0.6436 -0.3669 -0.6183
 6109TIP3    H239743   5.690   0.419   4.661 -0.7833  0.2339  1.5038
 6110TIP3   OH239744   2.626   5.512  17.037  0.5049  0.4563  0.5006
 6110TIP3    H139745   2.581   5.546  17.114 -0.1529 -1.3688  0.9665
 6110TIP3    H239746   2.716   5.544  17.046  0.5795 -0.1690  2.3420
 6111TIP3   OH239747   0.066   4.898   3.433 -0.6185 -1.0002 -0.1467
 6111TIP3    H139748  -0.007   4.861   3.482 -1.6413  0.6097 -0.4005
 6111TIP3    H239749   0.144   4.861   3.473 -1.4440 -0.1541  2.3352
 6112TIP3   OH239750   4.899   6.170  12.042 -0.3925  0.2404  0.0044
 6112TIP3    H139751   4.986   6.208  12.028 -0.2100 -0.1284  0.1320
 6112TIP3    H239752   4.911   6.109  12.115 -0.5385 -0.5353 -0.6053
 6113TIP3   OH239753   3.306   2.985  12.647  0.1857  0.3564  0.2049
 6113TIP3    H139754   3.373   2.939  12.698 -1.2336 -2.0726  0.0059
 6113TIP3    H239755   3.241   3.012  12.711 -0.3377 -0.4341  0.0307
 6114TIP3   OH239756   5.554   4.914   6.568 -0.4516 -0.1803 -0.1213
 6114TIP3    H139757   5.598   4.993   6.600 -0.4538 -0.3317  0.2585
 6114TIP3    H239758   5.461   4.937   6.568 -0.2456  0.8851 -2.9737
 6115TIP3   OH239759   6.537   2.068   5.126 -0.2856 -0.0842  0.0059
 6115TIP3    H139760   6.564   1.984   5.162  0.6934  0.8117  1.4064
 6115TIP3    H239761   6.514   2.121   5.202  0.9747  1.5583 -0.7170
 6116TIP3   OH239762   1.544   6.358   4.967 -0.1541 -0.6256 -0.4487
 6116TIP3    H139763   1.448   6.349   4.961  0.1111 -4.5315 -0.6525
 6116TIP3    H239764   1.571   6.382   4.879 -1.0237  1.8829 -0.0683
 6117TIP3   OH239765   0.394   5.227   0.271  0.2072 -0.5332 -0.0750
 6117TIP3    H139766   0.324   5.272   0.224  0.7031  0.3721  0.0482
 6117TIP3    H239767   0.395   5.139   0.232 -3.5100 -1.8535  2.5150
 6118TIP3   OH239768   0.068   5.611  14.849  0.2498 -0.4129 -0.0336
 6118TIP3    H139769   0.125   5.571  14.783  0.9593 -0.5392  0.6503
 6118TIP3    H239770  -0.013   5.633  14.801  1.1367  0.4302 -1.1768
 6119TIP3   OH239771   0.031   6.409   0.815 -0.6844 -0.0430 -0.2132
 6119TIP3    H139772   0.014   6.320   0.844  2.4870 -0.5979  0.0673
 6119TIP3    H239773  -0.053   6.438   0.777 -1.8260 -3.0069 -0.0861
 6120TIP3   OH239774   0.245   4.046  16.695  1.0237  0.1640 -0.0958
 6120TIP3    H139775   0.301   3.968  16.688 -0.0864 -0.6170 -0.3942
 6120TIP3    H239776   0.264   4.081  16.782  1.0883 -0.7927  0.2852
 6121TIP3   OH239777   2.126   1.317   5.446 -0.4758  0.0521 -0.1870
 6121TIP3    H139778   2.194   1.380   5.469  0.3953 -1.2975  0.9895
 6121TIP3    H239779   2.064   1.321   5.519  0.9133 -2.2909  1.1889
 6122TIP3   OH239780   5.253   3.866  13.236 -0.0998  0.4437 -1.0273
 6122TIP3    H139781   5.206   3.838  13.315 -1.7273 -1.3598 -2.5538
 6122TIP3    H239782   5.236   3.960  13.230  0.0262  0.5905  0.7541
 6123TIP3   OH239783   0.252   5.190   2.085 -0.1152 -0.1483  0.2222
 6123TIP3    H139784   0.207   5.274   2.084  3.3018  1.7650  0.1962
 6123TIP3    H239785   0.272   5.172   1.994  0.1589 -0.4148  0.3346
 6124TIP3   OH239786   0.623   3.662   3.308  0.1502 -0.1466  0.0503
 6124TIP3    H139787   0.711   3.624   3.318 -0.3614 -1.5403 -0.6549
 6124TIP3    H239788   0.625   3.704   3.223  0.4736  0.7663  0.5032
 6125TIP3   OH239789   4.230   0.626   4.991 -0.1703 -1.0272 -0.2966
 6125TIP3    H139790   4.164   0.593   5.052 -0.5676  1.4793  0.7203
 6125TIP3    H239791   4.267   0.548   4.950 -1.5533 -2.6390  1.4432
 6126TIP3   OH239792   1.873   2.097   3.846  0.2972  0.5565 -0.2828
 6126TIP3    H139793   1.953   2.050   3.822  0.6176  1.4559 -1.0099
 6126TIP3    H239794   1.812   2.077   3.776  0.7360  1.9488 -1.0898
 6127TIP3   OH239795   1.444   5.341  13.880 -0.5451  0.0299  0.3405
 6127TIP3    H139796   1.351   5.336  13.901 -0.9688 -0.9263 -1.6596
 6127TIP3    H239797   1.483   5.266  13.924 -0.3098  1.7035  3.0764
 6128TIP3   OH239798   2.305   3.246  11.622 -0.0008  0.4464  0.0723
 6128TIP3    H139799   2.253   3.312  11.666 -2.0798 -0.6892 -0.6210
 6128TIP3    H239800   2.282   3.255  11.529  0.4435 -0.5983 -0.1473
 6129TIP3   OH239801   6.626   3.086  12.490  0.2697  0.6966  0.5377
 6129TIP3    H139802   6.585   3.170  12.469 -0.8687 -0.2491 -1.1294
 6129TIP3    H239803   6.570   3.048  12.557 -1.5353 -0.4953 -1.5811
 6130TIP3   OH239804   5.669   2.203  13.484 -0.0773 -0.0443 -0.1220
 6130TIP3    H139805   5.628   2.289  13.486 -1.0195 -0.3342 -3.6843
 6130TIP3    H239806   5.600   2.143  13.511 -0.7076 -0.0946 -1.8268
 6131TIP3   OH239807   0.626   0.476  14.737  0.2417 -0.2517  0.6918
 6131TIP3    H139808   0.548   0.483  14.793 -1.9541 -1.4264 -2.1330
 6131TIP3    H239809   0.634   0.563  14.697 -0.7883 -0.7075 -0.5158
 6132TIP3   OH239810   1.179   0.239   1.535 -0.0268  1.3245 -0.0369
 6132TIP3    H139811   1.178   0.290   1.453  0.8239  2.0891  0.4161
 6132TIP3    H239812   1.272   0.231   1.557 -0.3080  2.9464  1.9541
 6133TIP3   OH239813   5.121   4.665   3.102 -0.4231 -0.9178 -0.3647
 6133TIP3    H139814   5.195   4.607   3.115  0.3485  0.2819  0.7441
 6133TIP3    H239815   5.126   4.727   3.175 -2.3829 -0.6909 -0.4007
 6134TIP3   OH239816   5.992   2.798   1.178 -0.2230 -0.1869 -0.0880
 6134TIP3    H139817   5.996   2.848   1.259  1.4615 -0.6457  0.1381
 6134TIP3    H239818   6.070   2.825   1.129  0.0261 -1.6260 -0.5267
 6135TIP3   OH239819   0.696   3.639   2.311 -0.0322  0.0116  0.0280
 6135TIP3    H139820   0.734   3.727   2.311 -0.4621  0.1985 -0.1949
 6135TIP3    H239821   0.772   3.580   2.317  0.2877  0.3808 -0.3315
 6136TIP3   OH239822   6.128   3.058   2.067 -0.0870  0.2028 -0.6816
 6136TIP3    H139823   6.143   3.135   2.014  0.8874 -0.1357 -0.9228
 6136TIP3    H239824   6.060   3.083   2.129  0.1054  1.1902 -0.8728
 6137TIP3   OH239825   4.915   4.616   5.748 -0.2846 -0.4877  0.1483
 6137TIP3    H139826   4.846   4.620   5.814 -0.2854 -0.1408  0.1279
 6137TIP3    H239827   4.987   4.667   5.785 -0.6950  0.6485 -0.5925
 6138TIP3   OH239828   3.488   1.026  16.910  0.1272  0.1904 -0.1632
 6138TIP3    H139829   3.443   1.110  16.914  0.3689  0.2857  0.7060
 6138TIP3    H239830   3.440   0.970  16.972 -1.4857 -1.0387 -2.4231
 6139TIP3   OH239831   5.973   5.732  15.601 -0.4770 -0.9755  0.4026
 6139TIP3    H139832   5.886   5.697  15.584 -0.6480 -0.9694  1.2232
 6139TIP3    H239833   6.033   5.665  15.568 -0.8032 -1.9011  1.6203
 6140TIP3   OH239834   4.429   1.601  11.699  0.3417  0.3129  0.4548
 6140TIP3    H139835   4.444   1.663  11.628  1.5070  0.1945  0.5792
 6140TIP3    H239836   4.412   1.518  11.656  2.0282  0.0225  0.2940
 6141TIP3   OH239837   4.505   5.519  15.960 -0.3445  0.4306 -0.3474
 6141TIP3    H139838   4.521   5.562  15.876  0.0933 -0.7252 -0.8684
 6141TIP3    H239839   4.422   5.472  15.948  1.1303 -2.0765 -1.1147
 6142TIP3   OH239840   3.214   2.491  14.104  0.2521  0.0713 -0.4259
 6142TIP3    H139841   3.194   2.562  14.166  2.0836  0.8549 -0.7121
 6142TIP3    H239842   3.228   2.414  14.158 -1.0260  0.0795 -0.0632
 6143TIP3   OH239843   5.669   0.505   0.696  0.1027  0.2455  0.0183
 6143TIP3    H139844   5.717   0.469   0.622 -1.1432  0.7574 -1.0598
 6143TIP3    H239845   5.588   0.454   0.700 -0.7711  1.5767 -0.2819
 6144TIP3   OH239846   6.566   6.542  16.997  0.0119  0.1534  0.3806
 6144TIP3    H139847   6.570   6.569  17.089  0.2779 -0.3314  0.5121
 6144TIP3    H239848   6.645   6.490  16.984 -0.4302 -0.4607  0.0959
 6145TIP3   OH239849   2.514   3.243  10.650 -0.4012  0.8067 -0.3731
 6145TIP3    H139850   2.540   3.206  10.735  3.6224  2.5072 -0.7094
 6145TIP3    H239851   2.469   3.325  10.673  0.2537  1.0272  0.1702
 6146TIP3   OH239852   1.332   5.762   3.614  0.1319  0.3087 -0.0839
 6146TIP3    H139853   1.262   5.734   3.674  0.9417  1.3648  1.3941
 6146TIP3    H239854   1.323   5.857   3.611 -0.2763  0.2200 -2.1442
 6147TIP3   OH239855   3.635   4.908   6.326 -0.2740 -0.1732 -0.0331
 6147TIP3    H139856   3.639   4.938   6.236  1.6542 -0.3670 -0.0258
 6147TIP3    H239857   3.636   4.988   6.379 -1.6051 -0.0534 -0.1747
 6148TIP3   OH239858   0.798   2.112  14.645 -0.5544 -0.2408 -0.1079
 6148TIP3    H139859   0.816   2.019  14.657  0.2056 -0.1206 -0.2748
 6148TIP3    H239860   0.712   2.125  14.685 -0.7808 -1.0627 -0.3222
 6149TIP3   OH239861   2.699   5.091  13.170 -0.0796 -0.0919  0.3230
 6149TIP3    H139862   2.684   5.051  13.084 -0.5300  0.3990  0.1749
 6149TIP3    H239863   2.794   5.103  13.175  0.0583 -1.0875  0.3298
 6150TIP3   OH239864   4.789   2.035  14.888 -0.4045 -0.1201 -0.1778
 6150TIP3    H139865   4.703   2.074  14.870  0.4547  1.5897 -0.7026
 6150TIP3    H239866   4.850   2.108  14.879  1.0985 -1.3115  0.2680
 6151TIP3   OH239867   5.196   2.221   3.318  0.1526  0.2685 -0.5648
 6151TIP3    H139868   5.230   2.204   3.406 -1.5103  0.1209  0.0788
 6151TIP3    H239869   5.138   2.147   3.300 -1.3151  1.4562 -0.8227
 6152TIP3   OH239870   1.647   2.317   5.167  0.3183  0.5726 -0.2910
 6152TIP3    H139871   1.576   2.366   5.124 -1.1369 -1.0223  0.2168
 6152TIP3    H239872   1.709   2.384   5.195 -0.9844  2.0158 -0.7559
 6153TIP3   OH239873   6.279   3.342  15.407 -0.0415 -0.1401 -0.3903
 6153TIP3    H139874   6.371   3.369  15.406 -0.4094  1.1751 -0.4343
 6153TIP3    H239875   6.234   3.414  15.362 -1.2514 -0.1533  0.8152
 6154TIP3   OH239876   0.897   0.253  10.952  0.6121  0.3431  0.5832
 6154TIP3    H139877   0.808   0.245  10.986  0.4203 -1.4826 -0.2792
 6154TIP3    H239878   0.886   0.265  10.858  1.2639  0.3941  0.5129
 6155TIP3   OH239879   4.757   2.845  13.992  0.5768  0.5972 -0.0206
 6155TIP3    H139880   4.835   2.838  13.937  0.8486 -0.3310  0.4586
 6155TIP3    H239881   4.731   2.754  14.009  0.3158  0.8673  1.1070
 6156TIP3   OH239882   4.621   2.129   1.336 -0.8097  0.5176 -0.4013
 6156TIP3    H139883   4.641   2.203   1.394 -2.3681  1.3073 -0.8269
 6156TIP3    H239884   4.531   2.146   1.306 -1.4077 -1.8727 -0.0493
 6157TIP3   OH239885   5.133   3.732  16.336 -0.2180 -0.2187 -0.2490
 6157TIP3    H139886   5.159   3.667  16.402 -0.3431  1.3088  1.3658
 6157TIP3    H239887   5.209   3.790  16.329 -0.8135  0.5706 -0.2313
 6158TIP3   OH239888   1.615   3.905  15.198  0.1228 -0.1402  0.0991
 6158TIP3    H139889   1.567   3.988  15.195  0.5864  0.1423  0.6178
 6158TIP3    H239890   1.690   3.922  15.254  1.2096 -0.3979 -1.2516
 6159TIP3   OH239891   4.626   6.015   0.381 -0.0780 -0.0403  0.1794
 6159TIP3    H139892   4.562   6.023   0.311 -1.7891 -0.4890  1.6618
 6159TIP3    H239893   4.583   5.961   0.447  1.8682 -0.4429  1.1713
 6160TIP3   OH239894   4.588   0.072   0.656 -0.1933  0.1207  0.6226
 6160TIP3    H139895   4.534   0.083   0.578  0.6814  2.0552  0.2691
 6160TIP3    H239896   4.652   0.005   0.631 -1.0484 -0.5982  0.3178
 6161TIP3   OH239897   5.538   3.567  13.753 -0.0918  0.1011 -0.1078
 6161TIP3    H139898   5.615   3.615  13.782  0.2967  0.0087 -0.9844
 6161TIP3    H239899   5.516   3.605  13.668 -1.7785  0.9941  0.7085
 6162TIP3   OH239900   5.548   5.683   4.915 -0.4318  0.6546  0.3561
 6162TIP3    H139901   5.471   5.717   4.961  0.8613 -1.2518  4.1567
 6162TIP3    H239902   5.618   5.687   4.979  1.7095 -1.3841 -1.7446
 6163TIP3   OH239903   2.682   2.183  11.985  0.4988  0.1424 -0.1622
 6163TIP3    H139904   2.719   2.216  12.067 -0.1193 -1.1766  0.6576
 6163TIP3    H239905   2.596   2.225  11.979  0.2461 -0.3102  0.2358
 6164TIP3   OH239906   1.388   2.690   1.798  0.2355  0.1081 -0.3573
 6164TIP3    H139907   1.394   2.611   1.744  0.7416  0.0688 -0.2469
 6164TIP3    H239908   1.478   2.712   1.819 -0.0032 -0.8917  1.9153
 6165TIP3   OH239909   4.746   4.715  10.933 -0.1110  0.2358 -0.1708
 6165TIP3    H139910   4.836   4.740  10.913  0.1499 -0.3568  0.2553
 6165TIP3    H239911   4.703   4.712  10.847 -0.2350  2.4216 -0.2216
 6166TIP3   OH239912   6.631   1.423  14.896  0.0190 -0.9302  0.4014
 6166TIP3    H139913   6.654   1.516  14.897  1.4497 -1.2821  1.4323
 6166TIP3    H239914   6.701   1.382  14.846  0.9577 -1.8217  2.3817
 6167TIP3   OH239915   3.799   6.376   4.333  0.1420 -0.2266 -0.3238
 6167TIP3    H139916   3.822   6.284   4.320  1.6654 -0.1416  1.4833
 6167TIP3    H239917   3.757   6.378   4.419  1.2207  0.9266  0.1860
 6168TIP3   OH239918   2.802   3.449  16.026  0.1405  0.3160 -0.3286
 6168TIP3    H139919   2.818   3.407  16.111  0.5647  0.2486 -0.4391
 6168TIP3    H239920   2.848   3.394  15.963 -1.3776 -0.4429 -0.7920
 6169TIP3   OH239921   5.646   2.835   5.459  0.1040  0.0240  0.2850
 6169TIP3    H139922   5.556   2.835   5.491 -0.0745 -0.4916 -0.1964
 6169TIP3    H239923   5.662   2.744   5.434  0.5058  0.2533 -0.3200
 6170TIP3   OH239924   0.256   5.219  16.956  0.1975 -0.1730 -0.3542
 6170TIP3    H139925   0.307   5.145  16.924 -0.6825 -0.0880 -1.9758
 6170TIP3    H239926   0.165   5.195  16.939 -0.2154  0.4406  0.9062
 6171TIP3   OH239927   3.723   5.623   2.429  0.3587  0.1852 -0.2402
 6171TIP3    H139928   3.696   5.562   2.361 -0.7942 -0.4030  0.7326
 6171TIP3    H239929   3.802   5.584   2.467 -1.4256 -1.7003  1.6480
 6172TIP3   OH239930   4.177   2.627  14.626  0.1557 -1.0062 -0.0220
 6172TIP3    H139931   4.084   2.627  14.604  0.3857  0.1578 -1.0216
 6172TIP3    H239932   4.221   2.640  14.543  1.2050 -0.9004  0.5438
 6173TIP3   OH239933   2.303   3.781  14.374 -0.2018 -0.1850 -0.3735
 6173TIP3    H139934   2.250   3.701  14.376  0.3256 -0.7910 -4.5011
 6173TIP3    H239935   2.384   3.754  14.331 -0.1471  2.6154 -2.1539
 6174TIP3   OH239936   6.262   6.155  16.965  0.0954  0.0977 -0.5373
 6174TIP3    H139937   6.198   6.171  17.035 -0.7487  0.7446 -1.4332
 6174TIP3    H239938   6.271   6.240  16.921 -0.7369 -0.7009 -2.3138
 6175TIP3   OH239939   1.474   4.085   4.802 -0.2496  0.0004  0.4770
 6175TIP3    H139940   1.467   4.164   4.856  0.6058  2.0399 -2.3008
 6175TIP3    H239941   1.444   4.112   4.715  0.5267 -2.6071 -0.6491
 6176TIP3   OH239942   1.113   6.087   2.499 -0.0289  0.3993  0.2605
 6176TIP3    H139943   1.044   6.114   2.438 -0.1340  0.3432  0.3565
 6176TIP3    H239944   1.183   6.151   2.484  0.2361 -0.0384 -0.4349
 6177TIP3   OH239945   4.738   3.879  13.541  0.4951  0.1975 -0.6026
 6177TIP3    H139946   4.829   3.859  13.563  0.0527  0.1705  1.2798
 6177TIP3    H239947   4.706   3.800  13.498  1.2137  0.0190 -0.8230
 6178TIP3   OH239948   1.182   5.699  13.007 -0.1365 -0.0975 -0.0029
 6178TIP3    H139949   1.117   5.767  12.989  0.4661  0.0491 -1.7406
 6178TIP3    H239950   1.167   5.675  13.099 -1.4873  1.1526  0.1253
 6179TIP3   OH239951   5.495   3.046   1.380 -0.6251 -0.4735  0.1251
 6179TIP3    H139952   5.469   2.997   1.302  2.4055 -0.7281 -0.7804
 6179TIP3    H239953   5.526   3.130   1.347 -0.5106 -0.0887  1.1783
 6180TIP3   OH239954   4.582   2.202  11.907 -0.4899 -0.1402  0.0806
 6180TIP3    H139955   4.560   2.130  11.966 -0.4540  0.5989  1.0117
 6180TIP3    H239956   4.657   2.244  11.949  0.1777 -0.2168 -1.0177
 6181TIP3   OH239957   4.442   4.112  13.919 -0.0461 -0.5387  0.0767
 6181TIP3    H139958   4.401   4.165  13.851 -1.3757 -0.5401  0.8625
 6181TIP3    H239959   4.476   4.175  13.983  0.4056 -0.5647 -0.1365
 6182TIP3   OH239960   0.393   6.550   4.055 -0.1156 -0.6578  0.7257
 6182TIP3    H139961   0.439   6.522   4.134  0.3403 -0.0626  0.6695
 6182TIP3    H239962   0.460   6.591   4.001 -0.8279  0.8161  0.9372
 6183TIP3   OH239963   3.826   6.184   5.779  0.0443  0.0905  0.8136
 6183TIP3    H139964   3.829   6.238   5.858  1.3872  2.1187 -0.5675
 6183TIP3    H239965   3.737   6.197   5.745  0.3753  1.5612  0.4482
 6184TIP3   OH239966   1.706   1.987   0.573  0.1943 -0.2197  0.3611
 6184TIP3    H139967   1.741   1.920   0.632 -0.0382  0.2149  0.9854
 6184TIP3    H239968   1.653   2.043   0.628  0.2997  0.4233 -0.1854
 6185TIP3   OH239969   3.660   1.677  16.086  0.2896 -0.3566 -0.6657
 6185TIP3    H139970   3.658   1.621  16.164 -0.2355  0.5043 -0.0547
 6185TIP3    H239971   3.591   1.742  16.101  1.0946  0.6463 -1.2224
 6186TIP3   OH239972   1.118   2.516  11.642 -0.3088  0.9472  0.2447
 6186TIP3    H139973   1.209   2.545  11.635  0.3165 -0.8802  0.6050
 6186TIP3    H239974   1.122   2.437  11.696 -2.3306  1.8423  1.7566
 6187TIP3   OH239975   0.859   0.640   2.296  0.1967 -0.4460 -0.0318
 6187TIP3    H139976   0.828   0.553   2.317 -0.4356 -0.1136  0.4236
 6187TIP3    H239977   0.812   0.664   2.216  0.0246 -0.3336  0.1044
 6188TIP3   OH239978   1.015   1.969  13.640 -0.4397  0.3606  0.6357
 6188TIP3    H139979   1.084   1.903  13.643  0.6218  1.4889  1.6805
 6188TIP3    H239980   0.940   1.924  13.600  0.1594 -1.5390  1.6132
 6189TIP3   OH239981   1.993   5.576   0.375  0.0016 -0.1512  0.1473
 6189TIP3    H139982   1.978   5.652   0.319 -1.5121 -0.4687  0.0886
 6189TIP3    H239983   2.060   5.525   0.330  0.5591  0.8202 -0.1384
 6190TIP3   OH239984   4.001   1.157   1.648  0.4695  0.5364  0.3420
 6190TIP3    H139985   4.042   1.077   1.679 -1.0930  0.0571  1.2508
 6190TIP3    H239986   3.934   1.176   1.713  1.2628  2.9678  0.4849
 6191TIP3   OH239987   1.803   4.115  11.091 -0.2708 -0.0065 -0.2166
 6191TIP3    H139988   1.870   4.181  11.072 -1.2486  1.0011 -0.2952
 6191TIP3    H239989   1.727   4.144  11.040 -1.0161 -0.6647  0.5055
 6192TIP3   OH239990   5.633   4.764  16.432 -0.3171  1.1180 -0.1188
 6192TIP3    H139991   5.570   4.806  16.489  0.8265  2.1680  0.4009
 6192TIP3    H239992   5.716   4.807  16.452  0.6045 -0.3676 -0.6377
 6193TIP3   OH239993   0.680   5.672  14.365  0.1122  0.5286  0.0372
 6193TIP3    H139994   0.632   5.754  14.362 -0.5871  0.1104 -0.2458
 6193TIP3    H239995   0.768   5.697  14.393  0.1497  1.4822 -0.8968
 6194TIP3   OH239996   0.295   2.162   4.748  0.2584 -0.3287 -0.5553
 6194TIP3    H139997   0.221   2.151   4.808  2.1168  3.4071  2.6217
 6194TIP3    H239998   0.254   2.173   4.662 -2.9017  0.7581  1.0082
 6195TIP3   OH239999   3.040   1.216   2.977 -0.0803  1.0835 -0.5503
 6195TIP3    H140000   3.133   1.240   2.978  0.2728 -0.2948  0.5893
 6195TIP3    H240001   3.016   1.221   2.884  1.2241  1.1045 -0.9044
 6196TIP3   OH240002   1.420   6.667  16.682  0.2510  0.4264  0.2108
 6196TIP3    H140003   1.418   6.592  16.741  1.2019 -0.7488 -1.2266
 6196TIP3    H240004   1.359   6.644  16.611 -1.3033  2.0592  0.9737
 6197TIP3   OH240005   5.244   2.136  13.704  0.1090  0.1572 -0.0018
 6197TIP3    H140006   5.312   2.093  13.755  0.7089 -0.4575 -1.2941
 6197TIP3    H240007   5.185   2.065  13.678  0.0510  0.4023 -0.5351
 6198TIP3   OH240008   5.552   4.409  16.699 -0.2611  0.5874 -0.1223
 6198TIP3    H140009   5.516   4.482  16.749  1.1459  0.2058  1.4950
 6198TIP3    H240010   5.484   4.341  16.703 -0.2775  0.6659  1.0369
 6199TIP3   OH240011   3.814   1.641  12.015 -0.3881 -0.3275  0.3378
 6199TIP3    H140012   3.818   1.594  12.098 -1.9230 -2.3428 -0.7111
 6199TIP3    H240013   3.868   1.590  11.955 -0.6950  0.1547 -0.3628
 6200TIP3   OH240014   3.609   3.910   3.066 -0.5346 -0.5912  0.1557
 6200TIP3    H140015   3.694   3.951   3.050 -0.3990 -0.7337  0.5047
 6200TIP3    H240016   3.587   3.867   2.984  0.3655 -1.7119  0.4891
 6201TIP3   OH240017   2.065   1.840   3.303  0.2462  0.6242 -0.2226
 6201TIP3    H140018   1.989   1.836   3.362  0.2205 -0.2894 -0.3161
 6201TIP3    H240019   2.031   1.807   3.219  0.9137 -0.4264 -0.0872
 6202TIP3   OH240020   6.777   4.634   4.575 -0.7989 -0.2495 -0.0727
 6202TIP3    H140021   6.775   4.548   4.532 -1.1674 -1.1537  1.7343
 6202TIP3    H240022   6.686   4.664   4.573 -0.6929  0.0552 -0.5769
 6203TIP3   OH240023   2.615   4.554   5.858 -0.1264 -0.5555  0.2224
 6203TIP3    H140024   2.694   4.535   5.909 -0.5971 -1.4797  0.6316
 6203TIP3    H240025   2.543   4.526   5.915 -0.7862  0.9370  0.1374
 6204TIP3   OH240026   1.240   1.586  10.892  0.2176  0.3733 -0.2904
 6204TIP3    H140027   1.220   1.640  10.816  0.1426 -0.8872 -1.1746
 6204TIP3    H240028   1.235   1.496  10.860  0.0725 -0.1758  1.2264
 6205TIP3   OH240029   2.918   3.450   0.392  0.5668 -0.2784 -0.1937
 6205TIP3    H140030   2.958   3.413   0.313 -0.4629  1.8216 -1.7446
 6205TIP3    H240031   2.990   3.454   0.455  1.5464 -1.4567 -1.1904
 6206TIP3   OH240032   3.571   6.297   5.787 -0.0064  0.4581  0.5667
 6206TIP3    H140033   3.559   6.380   5.834  0.5511 -0.8505  3.0890
 6206TIP3    H240034   3.483   6.273   5.758 -0.1587  1.9515 -0.2456
 6207TIP3   OH240035   4.092   1.337   3.453  0.0791  0.4231  0.0795
 6207TIP3    H140036   4.056   1.397   3.518 -2.2366 -0.8002  0.0024
 6207TIP3    H240037   4.176   1.375   3.428  0.3248  1.6833  2.6796
 6208TIP3   OH240038   5.596   1.480  15.616  0.8088  0.0332 -0.1969
 6208TIP3    H140039   5.594   1.532  15.697 -0.7443  0.3744 -0.4489
 6208TIP3    H240040   5.531   1.412  15.629  1.4022 -0.6416 -0.6964
 6209TIP3   OH240041   4.951   5.936  11.673 -0.2024  0.2652  0.3884
 6209TIP3    H140042   4.895   5.859  11.672 -1.2256  0.9925  0.8111
 6209TIP3    H240043   4.909   5.995  11.735  1.5972  0.4067  1.5028
 6210TIP3   OH240044   4.177   1.256   4.898  0.5090  0.5597 -0.7563
 6210TIP3    H140045   4.167   1.317   4.971 -1.7526  1.3785 -1.6974
 6210TIP3    H240046   4.117   1.289   4.831  1.5629 -0.9349 -2.4760
 6211TIP3   OH240047   1.739   0.582  14.915  0.2248 -0.1416 -0.0691
 6211TIP3    H140048   1.694   0.498  14.911 -2.7871  1.3960  0.2823
 6211TIP3    H240049   1.792   0.577  14.994  1.2476 -2.2249 -0.8291
 6212TIP3   OH240050   3.404   2.088   3.531 -0.2137 -0.3397 -0.1967
 6212TIP3    H140051   3.428   2.072   3.622  0.0591 -2.0704 -0.5535
 6212TIP3    H240052   3.337   2.022   3.511 -0.9196  0.5891 -0.9921
 6213TIP3   OH240053   5.333   6.595   0.557 -0.3259  0.4862 -0.8228
 6213TIP3    H140054   5.402   6.646   0.600 -1.1666  0.6873  0.2830
 6213TIP3    H240055   5.324   6.637   0.471  0.6473  0.7109 -0.8246
 6214TIP3   OH240056   4.937   5.988  13.963 -0.1114 -0.7909 -0.1560
 6214TIP3    H140057   4.964   6.057  13.903 -1.4240  0.6631  0.8763
 6214TIP3    H240058   4.997   5.915  13.945  0.4871  0.1634 -2.1236
 6215TIP3   OH240059   6.121   4.625  14.774 -0.2493  0.0237  0.6159
 6215TIP3    H140060   6.146   4.624  14.682  1.0232 -0.0781  0.9507
 6215TIP3    H240061   6.046   4.684  14.778  0.7006  1.3162 -0.2342
 6216TIP3   OH240062   1.650   3.691   4.970 -1.0010 -0.3762  0.3005
 6216TIP3    H140063   1.605   3.698   5.055 -0.2386  0.0047  0.6838
 6216TIP3    H240064   1.691   3.777   4.958  0.6167 -1.0994  0.5335
 6217TIP3   OH240065   6.769   0.542  15.272  0.5324 -0.2298  0.5533
 6217TIP3    H140066   6.702   0.514  15.209  1.1317  3.8850 -2.1444
 6217TIP3    H240067   6.719   0.577  15.346 -0.4147  1.7259 -0.9338
 6218TIP3   OH240068   4.576   5.842  16.242  0.2330  0.4291 -0.5340
 6218TIP3    H140069   4.606   5.928  16.213 -1.8196  0.1460 -3.7516
 6218TIP3    H240070   4.520   5.811  16.171 -3.8433 -1.0381  3.1079
 6219TIP3   OH240071   0.351   2.511  12.828  0.3231 -0.2817  0.5152
 6219TIP3    H140072   0.286   2.534  12.760 -0.9085 -1.0357  1.4095
 6219TIP3    H240073   0.309   2.441  12.878  1.0830  0.4974  2.2786
 6220TIP3   OH240074   3.107   4.592  12.482 -0.3341  0.2659  0.1780
 6220TIP3    H140075   3.079   4.645  12.407 -0.1555 -0.0238 -0.0930
 6220TIP3    H240076   3.192   4.628  12.506  0.1769 -0.4547 -0.5431
 6221TIP3   OH240077   3.496   3.815  10.846 -0.3076 -0.1731 -0.3001
 6221TIP3    H140078   3.494   3.884  10.779  2.0494 -2.2888 -2.6778
 6221TIP3    H240079   3.548   3.853  10.917  0.1530  0.8609 -1.1744
 6222TIP3   OH240080   3.981   3.745  16.481 -0.0407  0.4854  0.6317
 6222TIP3    H140081   4.025   3.679  16.428  0.0476  0.7384  0.3936
 6222TIP3    H240082   3.892   3.749  16.444 -0.1461  0.2644  0.8596
 6223TIP3   OH240083   2.391   1.272  16.644  0.0662  0.1593 -0.4058
 6223TIP3    H140084   2.396   1.310  16.556 -1.4973  1.7891  0.1679
 6223TIP3    H240085   2.394   1.178  16.630  2.2674  0.4290 -2.0222
 6224TIP3   OH240086   3.629   0.862  14.679  0.4378 -0.3867  0.2889
 6224TIP3    H140087   3.626   0.957  14.689  0.7740 -0.3823  0.3449
 6224TIP3    H240088   3.631   0.847  14.585  0.0770 -0.3491  0.2737
 6225TIP3   OH240089   6.530   2.369   0.060  0.4368 -0.2111  0.0902
 6225TIP3    H140090   6.609   2.419   0.039 -1.2931  2.1777 -0.9665
 6225TIP3    H240091   6.500   2.407   0.143  0.3090 -1.0353  0.4258
 6226TIP3   OH240092   1.389   2.994   1.179 -0.0056  0.3318 -0.3702
 6226TIP3    H140093   1.376   3.031   1.092 -2.2230 -1.7434 -0.9702
 6226TIP3    H240094   1.312   3.021   1.228  0.8697  0.8472  0.7371
 6227TIP3   OH240095   1.255   5.874  15.322 -0.5607  0.0046  0.1599
 6227TIP3    H140096   1.229   5.943  15.383  1.4129 -0.6918  1.8534
 6227TIP3    H240097   1.202   5.798  15.348 -1.1906  0.2648 -0.3357
 6228TIP3   OH240098   4.755   3.636   0.759 -0.3675  0.4066  0.1052
 6228TIP3    H140099   4.677   3.580   0.754 -0.7654  0.8343  1.3044
 6228TIP3    H240100   4.805   3.614   0.681 -1.7111  0.1484 -0.7077
 6229TIP3   OH240101   1.262   3.262   1.727  0.2169  0.2848 -0.1615
 6229TIP3    H140102   1.181   3.216   1.706 -0.3376  0.8308  0.7379
 6229TIP3    H240103   1.314   3.257   1.647 -1.1021  0.7621 -1.0593
 6230TIP3   OH240104   3.672   2.250   6.456  0.4183 -0.2789 -0.3135
 6230TIP3    H140105   3.730   2.296   6.517 -1.2455 -1.4295  2.2289
 6230TIP3    H240106   3.716   2.166   6.441  0.2234 -0.4940  0.3041
 6231TIP3   OH240107   4.249   6.474   0.095  0.0655 -0.2835 -0.1304
 6231TIP3    H140108   4.202   6.530   0.033 -0.4660 -0.2587  0.2919
 6231TIP3    H240109   4.186   6.405   0.117  1.2159 -1.9249 -1.8177
 6232TIP3   OH240110   0.670   0.264  15.252  0.0869 -0.3553 -0.3821
 6232TIP3    H140111   0.576   0.249  15.263  0.1560 -0.7685 -0.3409
 6232TIP3    H240112   0.681   0.285  15.159 -0.2371  1.1605 -0.0965
 6233TIP3   OH240113   4.512   2.179   0.064 -0.2849 -0.2776  0.5079
 6233TIP3    H140114   4.478   2.177  -0.025  0.1380 -1.9607  0.3628
 6233TIP3    H240115   4.481   2.097   0.104  0.3806 -0.0293  1.5694
 6234TIP3   OH240116   1.833   6.197  13.970 -0.2022 -0.0119 -0.0787
 6234TIP3    H140117   1.832   6.128  14.037 -2.5307  0.3248  0.2556
 6234TIP3    H240118   1.755   6.249  13.987 -0.1503  0.8448 -2.2991
 6235TIP3   OH240119   4.778   3.867   3.405 -0.2238 -0.1182  0.0548
 6235TIP3    H140120   4.759   3.914   3.486 -0.8900 -0.1710 -0.0648
 6235TIP3    H240121   4.855   3.814   3.426 -1.3236 -1.3360  1.1665
 6236TIP3   OH240122   6.508   2.857  15.423  0.0043 -0.4491  0.0688
 6236TIP3    H140123   6.601   2.876  15.420  0.0566  0.0639  3.0501
 6236TIP3    H240124   6.465   2.937  15.392  0.5027  0.7218  2.2864
 6237TIP3   OH240125   3.936   6.404   2.211 -0.3005  0.4750 -0.0555
 6237TIP3    H140126   3.975   6.421   2.297 -2.1520  1.0556  0.6832
 6237TIP3    H240127   3.974   6.320   2.184 -0.5700 -0.2894  1.8486
 6238TIP3   OH240128   1.264   3.507  15.556  0.6757  0.2690 -0.1903
 6238TIP3    H140129   1.346   3.551  15.578  0.7572 -0.1294  0.3333
 6238TIP3    H240130   1.262   3.431  15.615 -0.7912  1.1095  0.8626
 6239TIP3   OH240131   1.973   3.873   2.791  0.2428 -0.3023 -0.1070
 6239TIP3    H140132   1.947   3.842   2.878 -1.3669  1.1159 -0.0480
 6239TIP3    H240133   1.903   3.932   2.765  0.2300 -1.4389 -2.8006
 6240TIP3   OH240134   3.889   1.041  11.947  0.2681  0.1013 -0.2314
 6240TIP3    H140135   3.953   1.109  11.925  1.0926 -0.5182  0.2061
 6240TIP3    H240136   3.805   1.077  11.920  0.7774  1.0279 -0.5993
 6241TIP3   OH240137   1.697   4.278  15.025 -0.8075 -0.0200 -0.6639
 6241TIP3    H140138   1.738   4.265  15.111 -1.7072 -0.5051 -0.3017
 6241TIP3    H240139   1.694   4.373  15.014  1.0701  0.0244 -1.0196
 6242TIP3   OH240140   5.071   0.990  13.720 -0.5727  0.1543 -0.7279
 6242TIP3    H140141   4.999   0.952  13.670 -0.4063  0.4155 -1.1739
 6242TIP3    H240142   5.126   0.915  13.745 -2.9409 -0.4948  2.8198
 6243TIP3   OH240143   4.129   3.391  13.140  0.3064  0.5059 -0.0792
 6243TIP3    H140144   4.157   3.427  13.224  2.4543 -0.3802 -0.3742
 6243TIP3    H240145   4.100   3.468  13.090  0.0076  1.1694  1.0843
 6244TIP3   OH240146   5.664   0.142  16.907 -0.0717  0.5787 -0.1768
 6244TIP3    H140147   5.694   0.231  16.923  0.3476  0.3887  0.0945
 6244TIP3    H240148   5.579   0.153  16.864  1.3717  1.1654 -2.9893
 6245TIP3   OH240149   2.910   4.542  12.663  0.4430  0.5132 -0.0316
 6245TIP3    H140150   2.990   4.558  12.613 -0.0877  0.5141 -0.9044
 6245TIP3    H240151   2.846   4.514  12.597 -0.9291  2.7432  0.3089
 6246TIP3   OH240152   5.975   6.385   0.285 -0.2394  0.0047 -0.0035
 6246TIP3    H140153   5.944   6.434   0.362  0.2708  2.4787 -1.3132
 6246TIP3    H240154   6.022   6.450   0.233  1.0481 -2.0808 -1.5004
 6247TIP3   OH240155   6.646   0.379  12.364  0.3964 -0.1375  0.4429
 6247TIP3    H140156   6.596   0.307  12.324  2.0563 -1.4610  0.7088
 6247TIP3    H240157   6.697   0.337  12.433  0.1718  1.5827  1.6583
 6248TIP3   OH240158   4.526   2.082  15.913  0.0320  0.3773 -0.6955
 6248TIP3    H140159   4.437   2.114  15.919  0.0623  0.7801 -2.2607
 6248TIP3    H240160   4.522   2.013  15.846  0.7052 -0.2880 -0.0677
 6249TIP3   OH240161   2.624   4.661   4.401 -0.1632 -0.0163  0.1704
 6249TIP3    H140162   2.598   4.700   4.318  0.8040  1.0125  0.3427
 6249TIP3    H240163   2.706   4.704   4.424 -0.0484 -0.8016  1.3092
 6250TIP3   OH240164   1.109   2.354   4.097 -0.3901  0.1232  0.0812
 6250TIP3    H140165   1.164   2.396   4.031  1.6171 -1.6845  0.5707
 6250TIP3    H240166   1.131   2.399   4.179  0.0146 -0.2657  0.1889
 6251TIP3   OH240167   6.417   4.397   1.428 -0.5122  0.0766  0.2776
 6251TIP3    H140168   6.380   4.312   1.452 -0.1232  0.1792  1.2668
 6251TIP3    H240169   6.505   4.377   1.397  0.2083  0.2802  2.1331
 6252TIP3   OH240170   6.349   1.312   3.799  0.7422 -0.0240  0.0364
 6252TIP3    H140171   6.419   1.366   3.838  1.2761  0.3030 -1.3600
 6252TIP3    H240172   6.324   1.359   3.720  0.2535 -1.1349 -0.4689
 6253TIP3   OH240173   2.203   3.870  14.111 -0.1462  0.1212  0.3020
 6253TIP3    H140174   2.136   3.810  14.077 -0.9797  0.7495  0.8432
 6253TIP3    H240175   2.213   3.845  14.203 -0.2430  0.5843  0.4368
 6254TIP3   OH240176   5.924   0.846   5.176 -0.4909  0.6152  0.4646
 6254TIP3    H140177   5.887   0.838   5.088 -0.3976  2.2036  0.2688
 6254TIP3    H240178   5.853   0.821   5.235 -0.9141  0.6653 -0.0199
 6255TIP3   OH240179   6.607   0.703  15.419 -0.4276 -0.1548  0.0959
 6255TIP3    H140180   6.629   0.792  15.392 -1.6102 -0.1027 -0.6986
 6255TIP3    H240181   6.542   0.715  15.489  1.3290 -0.3368  1.8206
 6256TIP3   OH240182   1.164   2.953  13.848  0.0693  0.5257 -0.2404
 6256TIP3    H140183   1.095   2.887  13.842 -0.5900  1.0899  0.9947
 6256TIP3    H240184   1.236   2.909  13.892 -0.9482  1.0672  2.0230
 6257TIP3   OH240185   4.284   3.167  13.126  0.6604 -0.5652 -0.3481
 6257TIP3    H140186   4.215   3.231  13.142  1.5429  0.3634 -0.1920
 6257TIP3    H240187   4.302   3.175  13.032  0.3279 -1.0443 -0.4538
 6258TIP3   OH240188   1.903   4.308  11.868  0.3486  0.2000  0.0621
 6258TIP3    H140189   1.921   4.237  11.807  0.9995 -1.6167  2.2939
 6258TIP3    H240190   1.960   4.291  11.943 -0.2816  2.4605  1.1177
 6259TIP3   OH240191   2.214   0.538  11.274  0.0248  0.0689 -0.3452
 6259TIP3    H140192   2.197   0.628  11.304  1.7332 -0.3318  2.0103
 6259TIP3    H240193   2.291   0.545  11.219  1.4183 -0.1966  1.5257
 6260TIP3   OH240194   3.039   5.663   5.523  0.2000  0.3536 -0.4198
 6260TIP3    H140195   2.959   5.625   5.488 -1.5157  2.6094  0.8859
 6260TIP3    H240196   3.089   5.588   5.556 -1.6942 -1.0318 -0.6287
 6261TIP3   OH240197   3.182   2.906  14.375 -0.0686  0.7818 -0.2347
 6261TIP3    H140198   3.125   2.904  14.451  0.4763  1.2951  0.1868
 6261TIP3    H240199   3.221   2.993  14.376  1.1056  0.2640 -0.2338
 6262TIP3   OH240200   5.327   6.618  11.134  0.0402  0.4920 -0.0466
 6262TIP3    H140201   5.395   6.602  11.068  0.7797  1.1598  0.5306
 6262TIP3    H240202   5.283   6.534  11.144  0.9420 -0.0196 -0.2685
 6263TIP3   OH240203   1.025   5.443  16.984  0.5707  0.4935 -0.6174
 6263TIP3    H140204   1.077   5.402  17.053 -0.8309  0.1466  0.2361
 6263TIP3    H240205   1.058   5.404  16.903  1.0814 -0.3297 -0.0120
 6264TIP3   OH240206   5.860   1.632  10.817 -0.0523 -0.5031  0.2840
 6264TIP3    H140207   5.904   1.706  10.859 -0.3003 -0.4157  0.3899
 6264TIP3    H240208   5.896   1.555  10.861  0.3099 -0.4513  0.0751
 6265TIP3   OH240209   3.039   0.713   2.460  0.2204 -0.6766 -0.1761
 6265TIP3    H140210   3.099   0.730   2.387  0.6812  1.0789  0.5593
 6265TIP3    H240211   3.068   0.629   2.496  0.8522 -0.8937 -1.1733
 6266TIP3   OH240212   3.830   4.915  13.235  0.1844 -0.2883  0.1969
 6266TIP3    H140213   3.876   4.997  13.217 -0.7261 -0.1187 -1.4270
 6266TIP3    H240214   3.871   4.851  13.176  0.4005 -0.8495  0.9433
 6267TIP3   OH240215   5.746   0.420  14.266 -0.3289  0.0495 -0.8628
 6267TIP3    H140216   5.748   0.481  14.340  1.3029 -1.2748  0.2349
 6267TIP3    H240217   5.830   0.431  14.223 -0.7712 -0.0967 -1.7855
 6268TIP3   OH240218   4.054   0.008   5.351  0.3605  0.6262 -0.3747
 6268TIP3    H140219   4.056   0.052   5.266  1.1378  0.6442 -0.3435
 6268TIP3    H240220   4.047  -0.085   5.330 -0.0349  0.6677 -0.4460
 6269TIP3   OH240221   1.253   5.918  16.848 -0.2215 -0.0139  0.3212
 6269TIP3    H140222   1.280   5.849  16.789 -0.6220  0.9858 -1.0596
 6269TIP3    H240223   1.207   5.873  16.919  0.1114 -1.2045 -0.2134
 6270TIP3   OH240224   5.227   0.407  13.758  0.2529 -0.4494  0.0061
 6270TIP3    H140225   5.317   0.386  13.732  0.5701  0.5306  0.2917
 6270TIP3    H240226   5.207   0.488  13.711 -0.6436 -0.8889 -0.3939
 6271TIP3   OH240227   5.057   5.855   4.401  0.6096 -0.0887 -0.5966
 6271TIP3    H140228   5.088   5.765   4.393 -0.4630 -0.7638  2.2742
 6271TIP3    H240229   4.962   5.847   4.409  0.7410  1.0552  2.5471
 6272TIP3   OH240230   5.541   2.293   1.836  0.0907  0.5455  0.4663
 6272TIP3    H140231   5.529   2.325   1.747 -0.2880 -1.1185 -0.0935
 6272TIP3    H240232   5.599   2.217   1.826 -0.6480 -0.1677  1.5364
 6273TIP3   OH240233   1.732   3.389   0.241 -0.4974 -0.1326  0.6767
 6273TIP3    H140234   1.755   3.405   0.149  0.0984 -0.5586  0.7439
 6273TIP3    H240235   1.744   3.474   0.284  2.8669 -0.7237  1.0819
 6274TIP3   OH240236   5.294   0.980  15.833 -0.1023 -0.9280 -0.2205
 6274TIP3    H140237   5.363   0.950  15.774 -0.3347 -0.6934 -0.6162
 6274TIP3    H240238   5.340   1.010  15.911  0.2673 -0.4563 -0.6178
 6275TIP3   OH240239   6.327   5.434   4.450  0.1212 -0.3861 -0.3906
 6275TIP3    H140240   6.356   5.361   4.504 -0.8100 -0.4512  0.0266
 6275TIP3    H240241   6.310   5.505   4.512 -0.5125 -0.3167 -0.6427
 6276TIP3   OH240242   5.825   5.614  10.801  0.1679  0.4768  0.1989
 6276TIP3    H140243   5.858   5.700  10.777  0.5237 -0.0015 -1.0737
 6276TIP3    H240244   5.761   5.593  10.733  0.0667 -0.2546  0.5149
 6277TIP3   OH240245   6.397   1.921   1.387 -0.2051 -0.7671 -0.3061
 6277TIP3    H140246   6.362   1.869   1.314 -1.2141 -1.2209  0.5026
 6277TIP3    H240247   6.343   1.897   1.462  0.2061  0.4320  0.3830
 6278TIP3   OH240248   4.243   4.368   5.737 -0.5507 -0.2466  0.6419
 6278TIP3    H140249   4.186   4.426   5.786 -0.7402  0.6471 -0.6163
 6278TIP3    H240250   4.271   4.419   5.662  0.4480 -1.2935  0.2817
 6279TIP3   OH240251   3.998   0.967  16.562 -0.1869  0.2336  0.5859
 6279TIP3    H140252   4.050   0.887  16.565 -1.2049 -0.4304  0.9077
 6279TIP3    H240253   4.028   1.013  16.484 -0.2518 -0.9227 -0.1314
 6280TIP3   OH240254   5.494   0.510  12.039  0.2504  0.2787  0.0586
 6280TIP3    H140255   5.423   0.453  12.069  1.1223 -1.9061 -1.9474
 6280TIP3    H240256   5.467   0.598  12.066 -0.9809 -1.0634  3.4846
 6281TIP3   OH240257   3.884   1.493  13.034  0.0392  0.0591  0.8200
 6281TIP3    H140258   3.923   1.560  12.978  0.2644 -0.3242  0.5125
 6281TIP3    H240259   3.795   1.524  13.050  0.1262  0.4056  0.6428
 6282TIP3   OH240260   5.987   1.010  15.304  0.1928 -0.5146  0.6951
 6282TIP3    H140261   6.040   0.999  15.383  2.3613  0.1073 -0.6112
 6282TIP3    H240262   6.049   0.998  15.232 -1.4050  0.4937 -0.9024
 6283TIP3   OH240263   3.308   5.523  13.458  0.6677 -0.0072 -0.2423
 6283TIP3    H140264   3.237   5.490  13.403  0.6446  0.6021 -0.5775
 6283TIP3    H240265   3.377   5.546  13.396  0.6422  0.6894 -0.0123
 6284TIP3   OH240266   1.129   6.701   4.074 -0.3138  0.2976 -0.2963
 6284TIP3    H140267   1.062   6.656   4.126 -0.6312 -0.8151 -1.6377
 6284TIP3    H240268   1.209   6.694   4.126 -0.7981 -0.1099  0.4049
 6285TIP3   OH240269   0.682   5.104   5.076 -0.2372 -0.3165  0.1303
 6285TIP3    H140270   0.629   5.164   5.023  1.3615  1.3390  0.3572
 6285TIP3    H240271   0.729   5.051   5.012  1.5146  1.5215 -0.1648
 6286TIP3   OH240272   2.700   3.477   4.867  0.7577 -0.1749  0.3382
 6286TIP3    H140273   2.614   3.502   4.834  0.6905 -0.9654 -0.1237
 6286TIP3    H240274   2.740   3.558   4.897  0.9453  0.6384 -2.0022
 6287TIP3   OH240275   2.520   5.324   3.057  0.7424  0.2885 -0.4540
 6287TIP3    H140276   2.543   5.321   2.964 -0.3472  0.0100 -0.7241
 6287TIP3    H240277   2.517   5.232   3.084  1.1559  0.3728 -0.1170
 6288TIP3   OH240278   2.235   0.738  12.853  0.4216  0.2711  0.7619
 6288TIP3    H140279   2.324   0.768  12.872  0.0257  0.9694  1.5504
 6288TIP3    H240280   2.225   0.753  12.759  1.0278  0.4833  0.7255
 6289TIP3   OH240281   6.661   1.828   3.872 -0.2151  0.7820 -0.1539
 6289TIP3    H140282   6.676   1.859   3.961 -2.8899  0.2790  0.5158
 6289TIP3    H240283   6.746   1.839   3.828  0.9423  1.7156  2.2227
 6290TIP3   OH240284   3.366   0.648  15.353 -0.1863 -0.0227 -0.1741
 6290TIP3    H140285   3.343   0.670  15.263 -1.9444  0.0596  0.2819
 6290TIP3    H240286   3.445   0.700  15.370 -0.7582  1.2037 -1.1317
 6291TIP3   OH240287   2.305   1.415  12.664  0.3343 -0.1081  0.1582
 6291TIP3    H140288   2.310   1.509  12.648  1.2038  0.1852  2.0325
 6291TIP3    H240289   2.384   1.380  12.623  0.4097  0.0788  0.1441
 6292TIP3   OH240290   3.212   4.930   5.448 -0.2832  0.4220 -0.4466
 6292TIP3    H140291   3.183   4.925   5.539 -1.9371  1.2091 -0.8974
 6292TIP3    H240292   3.299   4.890   5.447 -0.6456 -0.4314  1.3014
 6293TIP3   OH240293   2.806   2.782  16.428  0.0109 -0.2189  0.5866
 6293TIP3    H140294   2.895   2.762  16.457 -0.6151 -0.9250  2.0349
 6293TIP3    H240295   2.813   2.789  16.333  1.3043 -1.8995  0.5372
 6294TIP3   OH240296   0.281   1.283   5.530 -0.1643  0.6621  0.0565
 6294TIP3    H140297   0.280   1.315   5.440  2.5994  2.1491  0.5034
 6294TIP3    H240298   0.311   1.358   5.582 -0.8730 -0.4313  2.0989
 6295TIP3   OH240299   2.553   5.538  16.160  0.4279  0.0099  0.4188
 6295TIP3    H140300   2.482   5.579  16.111  0.4828 -0.3848  0.0082
 6295TIP3    H240301   2.511   5.467  16.208  0.4341  0.1885  0.6962
 6296TIP3   OH240302   3.065   6.061   5.352 -0.3519 -0.4089 -0.2129
 6296TIP3    H140303   3.111   6.109   5.284  0.0260 -0.4795 -0.0075
 6296TIP3    H240304   3.131   6.004   5.392 -1.0973 -2.1596 -1.4012
 6297TIP3   OH240305   0.680   3.466  15.904 -0.0715  0.4110  0.4632
 6297TIP3    H140306   0.727   3.409  15.842 -0.0600 -0.1255  0.9678
 6297TIP3    H240307   0.597   3.484  15.860 -0.2730 -0.3816  0.5032
 6298TIP3   OH240308   0.277   0.433  17.133 -0.7791 -0.0608  0.9075
 6298TIP3    H140309   0.182   0.429  17.142 -0.6956  0.3554  2.0795
 6298TIP3    H240310   0.307   0.343  17.149 -1.1781 -0.7998 -2.2737
 6299TIP3   OH240311   0.444   1.152   2.431  0.6604 -0.0454  0.3693
 6299TIP3    H140312   0.499   1.218   2.473  0.4991  0.1371  0.3004
 6299TIP3    H240313   0.505   1.085   2.399  0.7920 -0.1190  0.7781
 6300TIP3   OH240314   2.205   5.388   3.501  0.2227  0.2632  0.2012
 6300TIP3    H140315   2.173   5.314   3.552  1.1610  0.9125  1.7530
 6300TIP3    H240316   2.126   5.426   3.461 -0.2339 -1.7116 -0.8340
 6301TIP3   OH240317   6.325   2.832   0.333  0.0109  0.0795  0.1330
 6301TIP3    H140318   6.261   2.893   0.368 -0.2741  0.0594 -0.3454
 6301TIP3    H240319   6.390   2.888   0.290 -0.1185  0.0578 -0.0901
 6302TIP3   OH240320   6.015   1.984   0.668  0.0213 -0.4685 -0.4718
 6302TIP3    H140321   6.069   1.915   0.631 -0.4360 -0.1672 -1.7182
 6302TIP3    H240322   5.999   2.044   0.595  0.5522  1.0492  0.6246
 6303TIP3   OH240323   3.704   3.409  14.335  0.3016  0.0699  0.0549
 6303TIP3    H140324   3.699   3.361  14.253  0.5081 -0.9909  0.6480
 6303TIP3    H240325   3.614   3.440  14.350 -0.3888 -2.2242  0.8705
 6304TIP3   OH240326   0.839   6.184  13.111 -0.5829 -0.3979  0.0693
 6304TIP3    H140327   0.772   6.134  13.158 -2.1393  2.3169  0.8595
 6304TIP3    H240328   0.872   6.245  13.177  1.2679 -0.3661 -0.8773
 6305TIP3   OH240329   1.743   4.104  14.522 -0.7377  0.3099  0.2150
 6305TIP3    H140330   1.653   4.075  14.501 -0.6334  0.8765 -1.0636
 6305TIP3    H240331   1.741   4.120  14.616 -1.4088 -1.7278  0.5819
 6306TIP3   OH240332   4.156   6.145  14.027  0.3867  0.0134  0.2795
 6306TIP3    H140333   4.244   6.173  14.002  1.2314 -1.3244  1.6342
 6306TIP3    H240334   4.167   6.105  14.113 -1.6403  0.2639  0.6808
 6307TIP3   OH240335   3.345   5.296   2.385 -0.2564  0.0081  0.9959
 6307TIP3    H140336   3.294   5.334   2.456 -1.9585 -0.8885  0.2653
 6307TIP3    H240337   3.312   5.337   2.306 -0.3870 -1.1246  0.4451
 6308TIP3   OH240338   2.469   5.724   4.619 -0.0223  0.8566  1.0266
 6308TIP3    H140339   2.389   5.767   4.649 -0.4995 -1.2263  2.8689
 6308TIP3    H240340   2.490   5.662   4.689  2.0997 -0.0164 -0.3540
 6309TIP3   OH240341   5.329   3.452   1.462  0.0239  0.1806  0.1694
 6309TIP3    H140342   5.345   3.530   1.515 -0.2547 -0.2722  0.9290
 6309TIP3    H240343   5.302   3.385   1.526 -0.2160 -0.3926 -0.5310
 6310TIP3   OH240344   3.574   6.649  16.778 -0.0993  0.6151 -0.3385
 6310TIP3    H140345   3.522   6.636  16.857  0.6053 -0.2734 -0.0072
 6310TIP3    H240346   3.516   6.695  16.717 -1.0427  0.2242  0.2612
 6311TIP3   OH240347   2.173   5.398  11.833  0.0398  0.3035 -0.3326
 6311TIP3    H140348   2.178   5.492  11.846 -1.3706  0.3615 -0.1158
 6311TIP3    H240349   2.095   5.385  11.779  0.6665 -0.6823 -1.0469
 6312TIP3   OH240350   0.955   5.315   4.841 -0.2740 -0.6351  0.5779
 6312TIP3    H140351   0.869   5.356   4.841 -0.4704 -0.9940 -1.0209
 6312TIP3    H240352   0.941   5.231   4.798  0.6028 -1.3233  1.6079
 6313TIP3   OH240353   1.712   4.956   0.994  0.4812  0.5843  0.2589
 6313TIP3    H140354   1.690   4.864   1.001  0.0397  0.4455 -2.3821
 6313TIP3    H240355   1.808   4.959   1.003  0.5188 -0.1603  0.1045
 6314TIP3   OH240356   1.221   3.245   5.843 -0.1109  1.2023 -0.4267
 6314TIP3    H140357   1.167   3.213   5.915  0.1393  1.1950 -0.2450
 6314TIP3    H240358   1.238   3.337   5.864  1.2114  0.7983  0.2707
 6315TIP3   OH240359   4.532   3.572  11.931  0.1216  0.2705 -0.3361
 6315TIP3    H140360   4.503   3.640  11.870 -0.4471 -0.0696 -0.4494
 6315TIP3    H240361   4.509   3.607  12.017 -0.6601 -0.0093 -0.4265
 6316TIP3   OH240362   2.286   1.345   0.486  0.1758  0.1211 -0.2394
 6316TIP3    H140363   2.368   1.377   0.523 -1.0480  0.4558  2.2576
 6316TIP3    H240364   2.301   1.251   0.472  0.9159  0.1499  0.3728
 6317TIP3   OH240365   2.632   5.240   3.510 -0.0982 -0.2565 -0.3369
 6317TIP3    H140366   2.559   5.265   3.454  0.5490  2.2048 -0.1265
 6317TIP3    H240367   2.595   5.174   3.569 -1.6339 -0.4459 -1.4770
 6318TIP3   OH240368   4.101   3.734   1.020  0.4291  0.2644  0.5502
 6318TIP3    H140369   4.061   3.821   1.026  0.7286  0.4688 -0.2803
 6318TIP3    H240370   4.137   3.718   1.107 -1.4193  0.0894  1.3119
 6319TIP3   OH240371   0.570   0.687   0.140  0.5789  0.7862 -0.3035
 6319TIP3    H140372   0.630   0.700   0.067  1.3881  2.2140  0.5928
 6319TIP3    H240373   0.587   0.760   0.199  0.7972 -0.9764  1.8999
 6320TIP3   OH240374   0.835   5.097  14.182  0.2658  0.3872 -0.5202
 6320TIP3    H140375   0.747   5.092  14.145  0.6652 -0.5427 -1.3680
 6320TIP3    H240376   0.843   5.018  14.237  0.6262  0.3813 -0.5750
 6321TIP3   OH240377   1.818   1.994  11.677  0.4123  0.1775 -0.2714
 6321TIP3    H140378   1.731   1.998  11.718  1.2731  2.2516  1.4528
 6321TIP3    H240379   1.801   2.011  11.585 -1.0562  0.2604 -0.0035
 6322TIP3   OH240380   0.092   0.921   1.919 -0.2504 -0.1629 -0.4010
 6322TIP3    H140381   0.073   0.943   1.828  0.9467  0.8324 -0.4290
 6322TIP3    H240382   0.186   0.937   1.928 -0.1779 -1.1558  0.7576
 6323TIP3   OH240383   3.916   3.484  15.512 -0.0623  0.1540 -0.5058
 6323TIP3    H140384   3.981   3.488  15.582  1.3630  0.6704 -1.8231
 6323TIP3    H240385   3.944   3.551  15.450 -0.1462 -1.6373 -2.5315
 6324TIP3   OH240386   5.083   6.166   6.345  0.4990  0.1781  0.2167
 6324TIP3    H140387   5.075   6.181   6.250  0.0131 -1.3357  0.0012
 6324TIP3    H240388   4.992   6.169   6.376  0.3413 -2.4350  0.1178
 6325TIP3   OH240389   4.894   1.950  16.602 -0.3960 -0.1794 -0.4120
 6325TIP3    H140390   4.888   1.888  16.529  0.6200  0.1675 -0.7991
 6325TIP3    H240391   4.983   1.984  16.597 -0.9684  1.3774 -0.2473
 6326TIP3   OH240392   5.770   1.961  12.913 -0.3635 -0.2306 -0.3470
 6326TIP3    H140393   5.810   2.015  12.982 -1.1276  0.4086 -0.3927
 6326TIP3    H240394   5.843   1.938  12.855 -0.2113  1.7274 -0.9711
 6327TIP3   OH240395   2.460   4.359  12.512  0.5302 -0.1808  0.0131
 6327TIP3    H140396   2.497   4.271  12.503  1.4691 -0.0807  2.5941
 6327TIP3    H240397   2.497   4.392  12.594 -1.5703  1.7767  0.1994
 6328TIP3   OH240398   5.732   0.296   2.646 -0.2374  0.1135 -0.0961
 6328TIP3    H140399   5.738   0.386   2.676 -0.5011 -0.1657  0.8055
 6328TIP3    H240400   5.674   0.253   2.708 -1.2317 -0.3481 -1.3141
 6329TIP3   OH240401   0.327   6.687   2.675  0.1472  0.2277 -0.0685
 6329TIP3    H140402   0.252   6.724   2.722  0.9674 -0.5498  1.9117
 6329TIP3    H240403   0.309   6.706   2.583 -3.2916 -1.3495  0.1851
 6330TIP3   OH240404   1.331   6.217  13.780  0.0843 -0.3206  0.7682
 6330TIP3    H140405   1.326   6.208  13.685  1.3012  2.1442  0.4560
 6330TIP3    H240406   1.348   6.128  13.811  0.6424 -0.9847 -1.3774
 6331TIP3   OH240407   0.595   1.319   5.978 -0.1085  0.2522 -0.3091
 6331TIP3    H140408   0.503   1.310   5.951 -0.1673  1.3283 -0.4908
 6331TIP3    H240409   0.634   1.376   5.912  0.8371 -0.6458 -0.5378
 6332TIP3   OH240410   3.977   1.308   2.350  0.4112  0.2299  0.1438
 6332TIP3    H140411   4.033   1.234   2.326  1.0101  0.7662 -0.1118
 6332TIP3    H240412   3.888   1.276   2.337  0.7095  0.2726 -2.1188
 6333TIP3   OH240413   3.146   1.277   4.535  0.7855  0.1638  0.0820
 6333TIP3    H140414   3.230   1.231   4.528  1.9366  2.4745 -2.4442
 6333TIP3    H240415   3.155   1.332   4.613  1.5645  0.3122 -0.1133
 6334TIP3   OH240416   3.916   1.695  17.019 -0.9065  0.7571  0.2297
 6334TIP3    H140417   3.917   1.742  16.936 -2.0525  0.8256  0.2397
 6334TIP3    H240418   3.997   1.645  17.020 -0.6794  1.0985 -0.7305
 6335TIP3   OH240419   1.017   1.481   2.100  0.5769 -0.2857  0.0429
 6335TIP3    H140420   1.105   1.464   2.064  0.0758  0.2658 -1.4855
 6335TIP3    H240421   1.033   1.505   2.191  1.9699 -0.7253 -0.0619
 6336TIP3   OH240422   1.591   4.891   4.458 -0.2133 -0.1483  0.3675
 6336TIP3    H140423   1.500   4.914   4.437 -0.1680  1.3804  1.7624
 6336TIP3    H240424   1.591   4.877   4.552  1.0616  0.1383  0.4186
 6337TIP3   OH240425   0.926   1.369  15.958 -0.0262 -0.5960 -0.0238
 6337TIP3    H140426   0.846   1.328  15.991  0.0456 -0.6676  0.0601
 6337TIP3    H240427   0.997   1.327  16.006 -0.0038  0.2439  0.6894
 6338TIP3   OH240428   6.675   1.925   1.552  0.2087 -0.0202 -0.2216
 6338TIP3    H140429   6.585   1.917   1.520  0.3873 -0.0700 -0.7106
 6338TIP3    H240430   6.700   2.015   1.532  0.4598 -0.1709 -0.5890
 6339TIP3   OH240431   1.697   4.732   2.678  0.4323  0.0456 -0.2277
 6339TIP3    H140432   1.713   4.739   2.584 -0.0861  1.7215 -0.2035
 6339TIP3    H240433   1.711   4.821   2.712 -2.1898  0.0961  0.8339
 6340TIP3   OH240434   0.908   6.705   0.840  0.3347 -0.1742  0.4616
 6340TIP3    H140435   0.903   6.645   0.915 -0.7749  0.0312  0.5626
 6340TIP3    H240436   0.844   6.773   0.859  0.1457 -0.0362 -0.5956
 6341TIP3   OH240437   6.216   4.790   0.243 -0.4394 -0.3167 -0.0169
 6341TIP3    H140438   6.145   4.842   0.205  0.0284  1.1384  1.0621
 6341TIP3    H240439   6.229   4.828   0.330  0.8009 -1.4124  0.2867
 6342TIP3   OH240440   0.026   3.443  17.088  0.1315  0.4596 -0.1247
 6342TIP3    H140441  -0.031   3.513  17.054  0.2239 -0.1622 -1.6348
 6342TIP3    H240442   0.114   3.469  17.060  0.4085  0.6642  0.9189
 6343TIP3   OH240443   2.033   2.915   1.531  0.0692  0.0136 -0.0804
 6343TIP3    H140444   2.084   2.982   1.577 -2.3829  2.2556 -0.4783
 6343TIP3    H240445   2.086   2.893   1.455  0.0545  3.0773 -1.0529
 6344TIP3   OH240446   3.267   0.380  15.267  0.3122 -0.6431 -0.1382
 6344TIP3    H140447   3.293   0.448  15.330  0.4564 -0.7841 -0.0437
 6344TIP3    H240448   3.348   0.361  15.218 -0.6706  2.2266 -3.0210
 6345TIP3   OH240449   6.744   2.960  16.599 -0.4363 -0.3405 -0.1669
 6345TIP3    H140450   6.729   2.877  16.646 -0.2161 -0.0619  0.4076
 6345TIP3    H240451   6.672   2.965  16.536 -1.4905 -0.1006  1.0333
 6346TIP3   OH240452   3.120   3.347  11.174  0.0220 -0.1890 -0.0210
 6346TIP3    H140453   3.167   3.271  11.141  1.8336  1.7316 -2.0673
 6346TIP3    H240454   3.029   3.332  11.148  0.5217 -1.2705 -1.1796
 6347TIP3   OH240455   1.095   1.591   5.638  0.1224  0.0620 -0.2833
 6347TIP3    H140456   1.107   1.546   5.554  0.4972 -0.3937  0.0143
 6347TIP3    H240457   1.170   1.564   5.691 -1.0876 -1.1368  0.8626
 6348TIP3   OH240458   4.700   0.236  16.789  0.4806  0.5954 -0.1915
 6348TIP3    H140459   4.741   0.302  16.846  1.7725  1.2050 -1.7948
 6348TIP3    H240460   4.613   0.272  16.771  0.4966  0.9650  0.4451
 6349TIP3   OH240461   2.373   5.349   1.942 -0.0975 -0.2772  0.6733
 6349TIP3    H140462   2.386   5.256   1.921  0.4905 -0.0053 -0.1735
 6349TIP3    H240463   2.296   5.349   2.000  1.4021 -1.5338  2.7551
 6350TIP3   OH240464   0.819   5.746  12.694  0.2992 -0.6720 -0.2922
 6350TIP3    H140465   0.874   5.818  12.664  0.6111  0.0142  1.8196
 6350TIP3    H240466   0.822   5.681  12.623  0.7025  1.0123 -1.8403
 6351TIP3   OH240467   5.580   0.226  13.985 -0.3179  0.1093  0.5635
 6351TIP3    H140468   5.528   0.178  13.921  0.3861  0.9689 -0.6809
 6351TIP3    H240469   5.653   0.167  14.006  0.2766  0.4252 -0.5853
 6352TIP3   OH240470   4.752   3.472  11.087  0.6738 -0.3750 -0.2505
 6352TIP3    H140471   4.737   3.514  11.002  1.4638 -2.2115 -1.3276
 6352TIP3    H240472   4.760   3.545  11.149  0.1576  0.9900 -1.7592
 6353TIP3   OH240473   3.330   6.299   3.510  0.5013  0.3235 -0.1663
 6353TIP3    H140474   3.383   6.314   3.588 -0.1764  0.0782  0.3507
 6353TIP3    H240475   3.239   6.308   3.540  0.1427 -2.2319 -0.3797
 6354TIP3   OH240476   1.151   5.481   2.303 -0.4259 -0.1738 -0.1558
 6354TIP3    H140477   1.117   5.393   2.293 -0.3301 -0.0950 -1.1917
 6354TIP3    H240478   1.100   5.518   2.375 -1.8158 -0.4125 -0.9879
 6355TIP3   OH240479   5.950   6.239   5.760  0.2499 -0.0267 -0.4011
 6355TIP3    H140480   6.042   6.212   5.760  0.2296 -0.1116 -1.1133
 6355TIP3    H240481   5.910   6.189   5.831  0.3527 -1.4196 -1.2895
 6356TIP3   OH240482   2.964   5.122  11.740 -1.0656  0.2308  0.3741
 6356TIP3    H140483   3.027   5.145  11.673 -2.0456  0.9627 -0.3121
 6356TIP3    H240484   2.914   5.202  11.755  0.3717  0.6121  3.3478
 6357TIP3   OH240485   1.529   1.933  10.990  0.2455 -0.0537 -0.0451
 6357TIP3    H140486   1.517   1.871  10.918 -0.9357  1.2253 -0.9679
 6357TIP3    H240487   1.472   2.007  10.968  1.2490  1.1420  1.2859
 6358TIP3   OH240488   0.464   3.214   5.740 -0.6652  0.4274 -0.7781
 6358TIP3    H140489   0.433   3.281   5.678 -1.3006  1.2338  0.4047
 6358TIP3    H240490   0.471   3.260   5.823 -1.7253 -1.1278  0.1941
 6359TIP3   OH240491   3.365   5.484   5.992 -0.1266 -0.2448 -0.2547
 6359TIP3    H140492   3.344   5.536   6.069  1.0766 -0.2104  0.0735
 6359TIP3    H240493   3.449   5.443   6.013  1.2068  1.3041 -2.2961
 6360TIP3   OH240494   6.436   5.066  16.645 -0.2247 -0.0024 -0.7031
 6360TIP3    H140495   6.406   5.150  16.680 -0.5063 -1.3749  2.5467
 6360TIP3    H240496   6.434   5.077  16.550 -0.4078  3.5902 -0.3485
 6361TIP3   OH240497   6.461   0.398  13.579  0.2650  0.2338 -0.2962
 6361TIP3    H140498   6.510   0.480  13.578 -1.4477  1.2707 -0.1589
 6361TIP3    H240499   6.422   0.392  13.492 -0.2469 -0.0368 -0.0551
 6362TIP3   OH240500   5.810   0.299   1.521  0.0245  0.7814 -0.4711
 6362TIP3    H140501   5.846   0.371   1.572 -0.0465 -0.2133  1.0162
 6362TIP3    H240502   5.883   0.269   1.466  0.5961  0.7752  0.2789
 6363TIP3   OH240503   4.812   1.233  13.989 -0.0730  0.1384  0.3746
 6363TIP3    H140504   4.746   1.176  14.029  0.4380 -2.0308 -1.7522
 6363TIP3    H240505   4.869   1.258  14.062 -2.0128  0.3621  1.8673
 6364TIP3   OH240506   5.488   0.314   3.973 -0.1053 -0.3756  0.4829
 6364TIP3    H140507   5.565   0.366   3.997  0.0628 -0.1334 -0.5665
 6364TIP3    H240508   5.419   0.379   3.961  0.1097 -0.3706 -0.8503
 6365TIP3   OH240509   0.809   1.237  16.518  0.3556 -0.6455  0.0620
 6365TIP3    H140510   0.795   1.217  16.426 -2.7967 -0.5639  0.4642
 6365TIP3    H240511   0.830   1.153  16.558  0.1382 -0.9439 -0.4479
 6366TIP3   OH240512   6.514   2.402  11.440 -0.0939  0.1507  0.6778
 6366TIP3    H140513   6.473   2.420  11.356 -1.5425 -1.0809  1.1130
 6366TIP3    H240514   6.455   2.342  11.484  0.7858  0.5640  2.4792
 6367TIP3   OH240515   6.533   2.763   2.257  0.1732  0.2557  0.0741
 6367TIP3    H140516   6.504   2.794   2.343  1.6625  1.0468  0.2956
 6367TIP3    H240517   6.556   2.671   2.271  2.0451  0.8474  0.9080
 6368TIP3   OH240518   4.723   4.912   1.709 -0.3538  0.2127 -0.0851
 6368TIP3    H140519   4.676   4.993   1.726  0.2408  0.2539  1.3981
 6368TIP3    H240520   4.771   4.929   1.628  0.9963  1.9006  1.0316
 6369TIP3   OH240521   4.769   4.549  12.283 -0.1158  0.3410 -0.1357
 6369TIP3    H140522   4.706   4.581  12.347 -0.0486  0.3064 -0.0528
 6369TIP3    H240523   4.726   4.473  12.243  0.8158 -1.1113  1.5608
 6370TIP3   OH240524   4.400   0.422  11.241 -0.1985  0.1799 -0.3837
 6370TIP3    H140525   4.469   0.479  11.209  0.7901  0.3687  1.9918
 6370TIP3    H240526   4.378   0.366  11.166  2.5515  0.0895 -1.1694
 6371TIP3   OH240527   6.135   0.922  13.988 -0.5367 -0.4293 -0.1681
 6371TIP3    H140528   6.190   0.949  13.914  0.1300 -3.5195 -0.8844
 6371TIP3    H240529   6.175   0.963  14.064  0.0870  1.0234 -1.2539
 6372TIP3   OH240530   5.210   1.040  11.228  0.2121 -0.3946  0.2185
 6372TIP3    H140531   5.173   1.016  11.143  1.0558  0.2491 -0.3405
 6372TIP3    H240532   5.299   1.007  11.226  0.9429  1.4932 -0.0197
 6373TIP3   OH240533   1.762   0.331   0.453  0.1454  0.3908 -0.4619
 6373TIP3    H140534   1.768   0.265   0.522 -0.5521 -1.3819 -2.0780
 6373TIP3    H240535   1.827   0.304   0.388  0.3794  1.7222 -0.8067
 6374TIP3   OH240536   3.818   5.078   3.309  0.5966  0.0074 -0.3483
 6374TIP3    H140537   3.879   5.096   3.380 -0.0639 -2.5270  0.9361
 6374TIP3    H240538   3.872   5.044   3.238  1.2889  2.7706 -1.1928
 6375TIP3   OH240539   4.219   1.287  11.362 -0.7787  0.2641 -0.7692
 6375TIP3    H140540   4.267   1.240  11.293 -0.8254 -2.6535  1.1016
 6375TIP3    H240541   4.127   1.275  11.338 -0.7821 -0.4301 -0.4401
 6376TIP3   OH240542   4.925   3.245  16.305  0.3140 -0.2221 -0.6469
 6376TIP3    H140543   4.912   3.317  16.243 -0.9877  1.3398  1.4040
 6376TIP3    H240544   5.011   3.208  16.281  1.5885  2.7887 -0.9011
 6377TIP3   OH240545   0.636   0.992   2.796 -0.1804  0.2146  0.0932
 6377TIP3    H140546   0.612   1.084   2.787 -1.2385 -0.0596  0.0030
 6377TIP3    H240547   0.708   0.992   2.860  0.9836  1.2486 -1.1801
 6378TIP3   OH240548   3.957   5.640   6.804  0.2856 -0.3590 -0.2326
 6378TIP3    H140549   3.947   5.545   6.793  1.8805 -0.6371  0.6454
 6378TIP3    H240550   4.042   5.651   6.846  0.3975  1.5157 -0.9146
 6379TIP3   OH240551   0.928   1.088  12.884  0.0079  0.4883  0.5253
 6379TIP3    H140552   0.852   1.058  12.833 -0.5503  0.5487  1.3052
 6379TIP3    H240553   0.893   1.160  12.937  0.2340 -0.4795  2.0126
 6380TIP3   OH240554   5.471   0.032  13.801 -0.1891 -0.1840 -0.6278
 6380TIP3    H140555   5.404  -0.016  13.850  0.4420  0.0213  0.4470
 6380TIP3    H240556   5.435   0.040  13.713 -0.5995 -2.0426 -0.6448
 6381TIP3   OH240557   6.423   5.963  10.648 -0.0006 -0.2291  0.5797
 6381TIP3    H140558   6.469   6.015  10.714  0.1239 -0.4580  0.6730
 6381TIP3    H240559   6.470   5.983  10.566  0.0479 -0.1971  0.6157
 6382TIP3   OH240560   5.621   0.898  12.734  0.3559  0.2570  0.0838
 6382TIP3    H140561   5.558   0.862  12.671  0.6247  1.1785 -0.7193
 6382TIP3    H240562   5.591   0.866  12.819 -1.9469  1.7651 -0.1355
 6383TIP3   OH240563   4.558   5.936  12.282  0.6134  0.0623 -0.0865
 6383TIP3    H140564   4.581   5.937  12.189  1.0983 -2.1885 -0.0132
 6383TIP3    H240565   4.485   5.998  12.289  0.0560 -0.3193 -2.0906
 6384TIP3   OH240566   0.980   0.699  15.161 -0.9836  0.1275 -0.2675
 6384TIP3    H140567   0.903   0.648  15.188 -0.6068  0.9823  2.6023
 6384TIP3    H240568   1.054   0.650  15.197 -0.5028  1.6667  0.9037
 6385TIP3   OH240569   0.129   3.284   3.643 -0.0111 -0.2634 -0.1936
 6385TIP3    H140570   0.158   3.350   3.706 -0.4695  0.4518 -0.7127
 6385TIP3    H240571   0.159   3.201   3.679  1.6556  0.3381 -0.1331
 6386TIP3   OH240572   4.474   1.663   3.776 -0.4849  0.4006  0.5984
 6386TIP3    H140573   4.549   1.620   3.816 -1.0688 -0.8700  0.3367
 6386TIP3    H240574   4.496   1.668   3.683 -0.8366 -0.2231  0.4788
 6387TIP3   OH240575   3.977   1.536  11.832 -0.3045  0.1467 -0.1359
 6387TIP3    H140576   3.921   1.549  11.756  1.1335  1.2537 -1.0226
 6387TIP3    H240577   4.054   1.489  11.798  0.2641  0.4704  0.6723
 6388TIP3   OH240578   0.471   3.099   2.444 -0.0141  0.2064  0.0785
 6388TIP3    H140579   0.501   3.190   2.448 -3.2980  1.4430 -1.4573
 6388TIP3    H240580   0.493   3.071   2.355  2.1868 -1.0038  0.9605
 6389TIP3   OH240581   5.646   4.065  15.292  0.0570 -0.0678 -0.1081
 6389TIP3    H140582   5.630   4.099  15.381  0.8371  1.0506 -0.3792
 6389TIP3    H240583   5.582   3.995  15.281 -0.5224  0.2608  1.0803
 6390TIP3   OH240584   0.264   2.189   1.016 -0.3163  0.0326  0.8317
 6390TIP3    H140585   0.322   2.262   0.996 -1.1803  0.6513  0.5655
 6390TIP3    H240586   0.176   2.226   1.015 -0.7155 -0.8497  1.4327
 6391TIP3   OH240587   4.588   0.775   2.914 -0.4737 -0.1307 -0.3724
 6391TIP3    H140588   4.628   0.847   2.962 -0.8615 -0.0058 -0.2335
 6391TIP3    H240589   4.522   0.740   2.974  0.9429 -1.7548  0.2493
 6392TIP3   OH240590   3.478   2.058   3.775  0.0900 -0.2831 -0.3082
 6392TIP3    H140591   3.571   2.039   3.775  0.6871  2.3509  1.6664
 6392TIP3    H240592   3.446   2.024   3.859 -1.0029 -2.2982 -1.5125
 6393TIP3   OH240593   6.704   5.007   2.016  0.4191  1.1702 -1.1004
 6393TIP3    H140594   6.792   4.969   2.014  0.4870  1.3633 -2.0428
 6393TIP3    H240595   6.673   4.991   2.105  0.2304 -1.6225 -1.6197
 6394TIP3   OH240596   4.149   2.743   2.852  0.4550 -0.1828 -0.6579
 6394TIP3    H140597   4.089   2.680   2.893  0.1908  0.2007 -0.4430
 6394TIP3    H240598   4.141   2.726   2.758  0.8269 -0.8605 -0.5646
 6395TIP3   OH240599   5.316   0.243  15.203 -0.0822 -0.3553 -0.6274
 6395TIP3    H140600   5.276   0.158  15.221  1.8970 -1.2754 -0.3549
 6395TIP3    H240601   5.243   0.302  15.189 -1.6125 -1.3376  2.6916
 6396TIP3   OH240602   0.318   2.011   3.395 -0.0251 -0.3213  0.4793
 6396TIP3    H140603   0.355   1.934   3.440  1.2467  0.1048  0.2040
 6396TIP3    H240604   0.374   2.021   3.317 -0.0467  1.0054  0.6284
 6397TIP3   OH240605   3.377   0.672  11.591 -0.3919  0.1352  0.0626
 6397TIP3    H140606   3.348   0.751  11.544 -1.2630  0.3500  0.9439
 6397TIP3    H240607   3.363   0.693  11.683  0.5024 -0.6123  0.3682
 6398TIP3   OH240608   0.399   5.000  14.716  0.1062  0.2284 -0.3497
 6398TIP3    H140609   0.384   4.982  14.809  3.0624 -0.2433  0.0815
 6398TIP3    H240610   0.356   4.928  14.671  1.1506 -1.1566  0.8099
 6399TIP3   OH240611   6.534   3.662   2.321  0.6109  0.5261  0.5846
 6399TIP3    H140612   6.502   3.736   2.270  0.3152 -0.3557 -0.5347
 6399TIP3    H240613   6.594   3.616   2.262  0.4309 -0.3875  1.1025
 6400TIP3   OH240614   2.262   2.419   5.839  0.3559 -0.2066  0.3869
 6400TIP3    H140615   2.293   2.414   5.749  0.5818 -0.0456  0.4554
 6400TIP3    H240616   2.203   2.494   5.840  0.4408 -0.1395  0.3977
 6401TIP3   OH240617   5.864   4.504   5.689  0.2433 -0.0328  0.4289
 6401TIP3    H140618   5.915   4.578   5.659 -0.5769  0.1275 -0.6231
 6401TIP3    H240619   5.916   4.464   5.759  1.5876  0.3681 -0.3371
 6402TIP3   OH240620   0.865   0.380  12.263 -0.3046  0.1061 -0.1935
 6402TIP3    H140621   0.923   0.310  12.235 -0.1092  0.3673 -0.4433
 6402TIP3    H240622   0.875   0.383  12.358  0.9805  0.9181 -0.3307
 6403TIP3   OH240623   3.868   6.567   1.564  0.0959  0.0131 -0.4373
 6403TIP3    H140624   3.821   6.638   1.519  2.7259  0.9379 -1.8871
 6403TIP3    H240625   3.868   6.495   1.501 -2.5479 -1.3500  1.0262
 6404TIP3   OH240626   3.816   2.863  14.956 -0.3898  0.3731 -0.7140
 6404TIP3    H140627   3.737   2.917  14.960  0.3201  1.4565 -1.0522
 6404TIP3    H240628   3.806   2.813  14.875 -0.3272  1.1595 -1.2187
 6405TIP3   OH240629   6.062   3.743  14.655 -0.3305 -0.1238 -0.6003
 6405TIP3    H140630   6.071   3.836  14.632 -0.7257 -0.1359 -0.8053
 6405TIP3    H240631   5.974   3.719  14.625 -1.1465  0.0433  1.5956
 6406TIP3   OH240632   4.372   1.926  14.932  0.4133  0.5864 -0.4735
 6406TIP3    H140633   4.284   1.965  14.934  0.0420 -0.2715  0.6654
 6406TIP3    H240634   4.380   1.888  14.845 -0.0286  1.3685 -0.8681
 6407TIP3   OH240635   2.260   4.909  13.899  0.4823 -0.0283  0.5349
 6407TIP3    H140636   2.182   4.916  13.953 -1.4774 -2.3714 -1.8531
 6407TIP3    H240637   2.242   4.965  13.823  1.2860 -0.2822  0.1476
 6408TIP3   OH240638   1.922   1.784   5.617 -0.5406  0.0727  0.6822
 6408TIP3    H140639   1.955   1.713   5.673  0.0803 -2.1041 -2.3018
 6408TIP3    H240640   1.830   1.764   5.604  0.3173 -2.1294 -2.7519
 6409TIP3   OH240641   2.706   4.771   1.634 -0.1391 -0.2801 -0.9344
 6409TIP3    H140642   2.751   4.819   1.703  0.9568 -1.5095 -0.7794
 6409TIP3    H240643   2.759   4.693   1.620 -2.2579 -1.8213 -0.6773
 6410TIP3   OH240644   1.781   5.374  15.839 -0.6210 -0.6672  0.4701
 6410TIP3    H140645   1.707   5.430  15.863 -0.5660  0.0953 -1.1191
 6410TIP3    H240646   1.843   5.432  15.796  0.0453 -1.6911  0.0183
 6411TIP3   OH240647   4.687   0.974  14.403  0.4228  0.3603  0.3480
 6411TIP3    H140648   4.652   0.891  14.370 -0.8662  1.0618 -0.0686
 6411TIP3    H240649   4.781   0.957  14.414  0.3117 -0.8992 -0.4987
 6412TIP3   OH240650   6.726   4.215   4.793 -0.1208  0.6343 -0.8457
 6412TIP3    H140651   6.806   4.265   4.779 -0.3383  1.4209  0.6159
 6412TIP3    H240652   6.756   4.128   4.818  0.2628  0.2223 -2.7104
 6413TIP3   OH240653   6.477   0.808  13.871  0.0062  0.4873  0.8829
 6413TIP3    H140654   6.447   0.792  13.961 -0.6960  1.1343  0.7654
 6413TIP3    H240655   6.451   0.898  13.853  1.8026  0.9811  0.6828
 6414TIP3   OH240656   1.169   1.682   5.230  0.2317 -0.5653  0.1116
 6414TIP3    H140657   1.236   1.644   5.287  1.4219  0.7573 -0.3668
 6414TIP3    H240658   1.168   1.625   5.153 -0.0324 -1.2626  0.6254
 6415TIP3   OH240659   1.217   3.179  10.994  0.2110 -0.2242  0.5581
 6415TIP3    H140660   1.137   3.133  10.969  0.0344  0.2160  0.2940
 6415TIP3    H240661   1.267   3.185  10.913  0.2956 -0.0764  0.6202
 6416TIP3   OH240662   0.141   1.110   3.545  0.0123 -0.2588 -0.0705
 6416TIP3    H140663   0.069   1.105   3.483  0.3987  0.2597 -0.5677
 6416TIP3    H240664   0.116   1.179   3.606 -0.0308 -0.2551 -0.0928
 6417TIP3   OH240665   1.471   4.116  15.161  0.7654  0.8359  0.3458
 6417TIP3    H140666   1.416   4.189  15.190 -1.5956 -0.5152 -0.5496
 6417TIP3    H240667   1.530   4.154  15.097 -0.8849  1.8496 -0.5938
 6418TIP3   OH240668   2.675   4.510   3.639  0.4509 -0.3030 -0.1692
 6418TIP3    H140669   2.722   4.459   3.705  3.9839  0.5306 -1.9086
 6418TIP3    H240670   2.633   4.580   3.689  1.6175 -0.7011  1.4214
 6419TIP3   OH240671   2.075   3.127   3.265 -0.0709  0.3011  0.0633
 6419TIP3    H140672   2.158   3.102   3.306 -1.1606 -0.6594  1.7662
 6419TIP3    H240673   2.081   3.222   3.253  1.7289  0.0758 -0.9097
 6420TIP3   OH240674   5.624   6.514  11.153 -0.5144  0.0858 -0.4304
 6420TIP3    H140675   5.638   6.592  11.099  2.9334 -0.5151 -0.5497
 6420TIP3    H240676   5.582   6.451  11.094 -0.1826  0.6986 -1.3271
 6421TIP3   OH240677   5.808   5.898  13.608  0.5142 -0.0432  0.0501
 6421TIP3    H140678   5.872   5.861  13.669 -0.0665  0.3747  0.9181
 6421TIP3    H240679   5.854   5.970  13.566  0.5884  0.3164  0.7384
 6422TIP3   OH240680   2.505   6.765  14.579 -0.5582  0.0378 -0.3126
 6422TIP3    H140681   2.420   6.777  14.538 -0.5423 -1.4348 -0.8136
 6422TIP3    H240682   2.534   6.679  14.548  1.3616  0.7748 -0.6022
 6423TIP3   OH240683   3.425   4.110  13.594  0.2514  0.0222  0.1033
 6423TIP3    H140684   3.366   4.177  13.630  2.1278  1.1709  1.1691
 6423TIP3    H240685   3.435   4.134  13.502 -0.2448  0.3503  0.1361
 6424TIP3   OH240686   5.677   4.447   0.312  0.4301 -0.1832 -0.1882
 6424TIP3    H140687   5.755   4.463   0.364  0.3434  0.8140 -0.3387
 6424TIP3    H240688   5.701   4.476   0.224 -0.4725  1.2362  0.0128
 6425TIP3   OH240689   0.741   3.926   4.675 -0.2918 -0.0201  0.1635
 6425TIP3    H140690   0.765   4.001   4.729  2.5461  0.1760 -1.2566
 6425TIP3    H240691   0.821   3.872   4.673 -1.7197 -2.1899 -0.2889
 6426TIP3   OH240692   5.813   3.302  12.753 -0.2516 -0.0173 -0.3337
 6426TIP3    H140693   5.835   3.262  12.669 -0.6325  0.7732 -0.8127
 6426TIP3    H240694   5.877   3.265  12.814  0.7820  0.3039 -1.2037
 6427TIP3   OH240695   3.565   3.046  16.124 -0.4739  0.4538  0.5311
 6427TIP3    H140696   3.509   3.080  16.054 -0.6482  0.1869  0.5414
 6427TIP3    H240697   3.557   3.110  16.195 -0.1174  0.8437  0.2243
 6428TIP3   OH240698   5.202   2.122  12.284 -0.6701 -0.2376 -0.1219
 6428TIP3    H140699   5.216   2.031  12.312 -1.6696 -0.2890  0.2383
 6428TIP3    H240700   5.181   2.168  12.365 -0.3799  0.2748 -0.3398
 6429TIP3   OH240701   4.601   3.723   3.103  0.2258 -0.3683  0.5292
 6429TIP3    H140702   4.571   3.696   3.016 -0.0324  0.4406  0.3629
 6429TIP3    H240703   4.528   3.702   3.161 -1.5177  3.3635 -0.1613
 6430TIP3   OH240704   6.230   6.051  16.058 -0.0282 -1.2461 -0.1459
 6430TIP3    H140705   6.196   6.042  15.969  0.9068 -1.7564 -0.4614
 6430TIP3    H240706   6.303   5.989  16.062 -0.3668 -1.5816  1.1313
 6431TIP3   OH240707   3.096   2.753   4.339 -0.0433 -0.3651  0.2281
 6431TIP3    H140708   3.017   2.779   4.386  0.0133 -0.3003  0.2852
 6431TIP3    H240709   3.112   2.663   4.366  0.1440 -0.2377  0.5372
 6432TIP3   OH240710   2.289   5.160   2.493  0.2445 -0.5778  0.4882
 6432TIP3    H140711   2.224   5.229   2.502  1.0028  0.4048 -1.5368
 6432TIP3    H240712   2.242   5.088   2.451 -0.2201 -0.8536  1.4703
 6433TIP3   OH240713   3.634   5.691   1.825 -0.8013 -0.4191  0.4829
 6433TIP3    H140714   3.655   5.708   1.733  1.3933 -0.4205  0.9562
 6433TIP3    H240715   3.603   5.776   1.859  0.6014  0.1824  0.3089
 6434TIP3   OH240716   0.052   3.387  13.597 -0.0973  0.4784 -0.4548
 6434TIP3    H140717  -0.023   3.419  13.546 -1.4697 -0.1086  1.1492
 6434TIP3    H240718   0.058   3.294  13.574  0.0967  0.5090 -0.5261
 6435TIP3   OH240719   2.035   3.662   3.954  0.5555 -0.4254 -0.3085
 6435TIP3    H140720   2.079   3.741   3.988  1.9164 -0.7651 -1.2473
 6435TIP3    H240721   1.953   3.695   3.917  1.8068  0.7761 -2.0725
 6436TIP3   OH240722   1.695   0.906  14.983 -0.0332  0.3488 -0.0936
 6436TIP3    H140723   1.612   0.925  15.028 -0.2178 -1.6879  0.4395
 6436TIP3    H240724   1.753   0.872  15.051  0.0450 -1.7101 -1.1512
 6437TIP3   OH240725   3.098   3.233   2.593  0.0710 -0.3157  1.0414
 6437TIP3    H140726   3.073   3.312   2.641  1.7573  1.7317 -1.3671
 6437TIP3    H240727   3.043   3.234   2.515  0.6178 -1.1210  0.6428
 6438TIP3   OH240728   6.367   5.724  13.548 -0.1699 -0.1183 -0.2259
 6438TIP3    H140729   6.433   5.760  13.608  1.4320  0.8071 -2.4684
 6438TIP3    H240730   6.414   5.714  13.465 -2.3551 -1.3159 -1.3439
 6439TIP3   OH240731   0.903   1.066  15.325 -0.5539 -0.1795  0.2782
 6439TIP3    H140732   0.934   1.086  15.414 -0.3906  0.2911  0.1174
 6439TIP3    H240733   0.968   1.107  15.268 -1.2851  0.5122 -0.0584
 6440TIP3   OH240734   5.724   5.195   4.358 -0.1451  0.5941  0.2732
 6440TIP3    H140735   5.720   5.192   4.453  0.4873  1.2481  0.3202
 6440TIP3    H240736   5.816   5.214   4.338 -0.0399 -0.6183 -0.4891
 6441TIP3   OH240737   1.593   4.121   2.090  0.0423 -0.2791  0.0596
 6441TIP3    H140738   1.502   4.149   2.091  0.3461  0.8095 -1.2682
 6441TIP3    H240739   1.628   4.155   2.007  2.1805  0.9774  1.4200
 6442TIP3   OH240740   3.904   3.257  15.185 -0.0922  0.2319 -0.2913
 6442TIP3    H140741   3.847   3.209  15.245  2.0188 -0.2154  1.4153
 6442TIP3    H240742   3.872   3.348  15.189 -0.6848 -0.0084  0.6505
 6443TIP3   OH240743   2.474   2.023   5.881 -0.1148 -0.2466 -0.1373
 6443TIP3    H140744   2.526   2.037   5.802 -0.8728 -0.6823 -0.7244
 6443TIP3    H240745   2.538   2.014   5.951  0.6254 -1.5397 -0.9635
 6444TIP3   OH240746   6.504   1.365  15.750  0.2888  0.3931 -0.2100
 6444TIP3    H140747   6.580   1.310  15.768  0.1852  0.3600  0.1260
 6444TIP3    H240748   6.464   1.326  15.673  0.1370 -0.0826  0.1087
 6445TIP3   OH240749   3.948   2.588  16.314  0.0538  0.0319  0.1084
 6445TIP3    H140750   4.040   2.603  16.292  0.1333 -0.4502  0.1134
 6445TIP3    H240751   3.945   2.499  16.347 -0.4880 -0.0983 -0.2831
 6446TIP3   OH240752   5.764   1.058   1.792 -0.3897 -0.3961  0.0508
 6446TIP3    H140753   5.801   0.978   1.755 -1.9323 -0.2544 -1.8212
 6446TIP3    H240754   5.762   1.041   1.886  0.1054 -2.2130 -0.2410
 6447TIP3   OH240755   5.669   0.456  16.950  0.0094  0.4817  0.4426
 6447TIP3    H140756   5.722   0.500  17.016  0.2493  1.1907 -0.2107
 6447TIP3    H240757   5.696   0.495  16.867  0.0205 -0.6974 -0.1243
 6448TIP3   OH240758   4.499   0.495  13.633  0.1963 -0.0861 -0.3463
 6448TIP3    H140759   4.429   0.432  13.650 -0.9413  1.1531 -0.4172
 6448TIP3    H240760   4.551   0.495  13.714 -2.8901  2.8352  1.7626
 6449TIP3   OH240761   5.812   1.237   4.999  0.7858  0.4377  0.2798
 6449TIP3    H140762   5.785   1.173   4.934  1.6402 -0.2973  0.6359
 6449TIP3    H240763   5.888   1.281   4.960  0.9244  0.4159  0.5201
 6450TIP3   OH240764   6.353   6.331   3.342  0.0341 -0.0635 -0.1749
 6450TIP3    H140765   6.417   6.268   3.308 -1.9078 -1.0915 -2.0142
 6450TIP3    H240766   6.380   6.415   3.305  1.7456 -0.0328  1.0605
 6451TIP3   OH240767   5.339   1.886  13.117 -0.0427 -0.4905  0.0123
 6451TIP3    H140768   5.255   1.932  13.120 -0.1913 -0.6777 -0.9615
 6451TIP3    H240769   5.404   1.953  13.137 -0.2732  0.1132 -1.2154
 6452TIP3   OH240770   2.151   6.719   2.641  0.2670  0.0144 -0.0877
 6452TIP3    H140771   2.174   6.770   2.719  0.3715  1.5888 -1.1017
 6452TIP3    H240772   2.073   6.763   2.606 -2.2077 -3.1085  1.3110
 6453TIP3   OH240773   2.540   1.621   3.692 -0.4525  0.0848 -0.1804
 6453TIP3    H140774   2.618   1.566   3.704 -0.6794 -0.0349  0.8274
 6453TIP3    H240775   2.468   1.560   3.680 -0.4130  0.1947 -1.0068
 6454TIP3   OH240776   5.454   1.110  15.215  0.3148 -0.1573  0.3689
 6454TIP3    H140777   5.491   1.140  15.298  0.1490 -0.3355  0.5052
 6454TIP3    H240778   5.508   1.154  15.148 -1.0702  1.8814  0.5622
 6455TIP3   OH240779   6.161   1.717  16.939  0.3985 -0.1221  0.6885
 6455TIP3    H140780   6.120   1.681  17.018  0.4846 -0.6317  0.5048
 6455TIP3    H240781   6.178   1.640  16.884 -0.7402  0.3519 -0.3376
 6456TIP3   OH240782   5.552   6.664   3.427 -0.0351  0.0710 -0.1194
 6456TIP3    H140783   5.520   6.650   3.516  0.3539 -0.3612 -0.0491
 6456TIP3    H240784   5.613   6.737   3.435  0.5944 -0.4784  0.1006
 6457TIP3   OH240785   0.762   2.255  16.727 -0.2515  0.2596  0.0185
 6457TIP3    H140786   0.724   2.181  16.680  0.1163  0.9801 -1.4340
 6457TIP3    H240787   0.779   2.321  16.660  1.1717  0.9476  1.0147
 6458TIP3   OH240788   6.463   0.279   3.218  0.2860  0.2633 -0.4502
 6458TIP3    H140789   6.545   0.280   3.269  0.7006  0.6662 -1.1195
 6458TIP3    H240790   6.407   0.218   3.266  0.7324  0.4969  0.3922
 6459TIP3   OH240791   0.155   1.341   0.603  0.1403 -0.6611 -0.1178
 6459TIP3    H140792   0.094   1.277   0.566 -0.3345 -0.2441 -0.0511
 6459TIP3    H240793   0.119   1.426   0.578  0.7432 -0.4128 -0.1586
 6460TIP3   OH240794   2.678   6.461   3.861 -0.0513 -0.3380 -0.1826
 6460TIP3    H140795   2.691   6.390   3.798 -0.4167  0.4786 -1.1917
 6460TIP3    H240796   2.628   6.422   3.932 -0.9051 -0.9012 -1.0883
 6461TIP3   OH240797   5.729   5.144  14.910 -0.0190 -0.2036 -0.2395
 6461TIP3    H140798   5.643   5.181  14.931  0.3237  1.3152 -1.4139
 6461TIP3    H240799   5.762   5.111  14.994 -1.1875  0.3853  0.4631
 6462TIP3   OH240800   3.520   1.981  16.291 -0.3964 -0.8628  0.0907
 6462TIP3    H140801   3.530   1.947  16.380  1.3485  2.2101  1.1308
 6462TIP3    H240802   3.432   2.018  16.289  0.8282  2.3521  1.7902
 6463TIP3   OH240803   6.145   1.566   1.154  0.4071  0.4315 -0.2982
 6463TIP3    H140804   6.132   1.496   1.090  0.1549 -0.5356  0.7929
 6463TIP3    H240805   6.183   1.522   1.230  1.7153  1.7480 -0.1692
 6464TIP3   OH240806   5.384   4.506   5.132 -0.1979  0.3298 -0.1179
 6464TIP3    H140807   5.325   4.441   5.172  1.5934 -1.1529  0.2106
 6464TIP3    H240808   5.372   4.585   5.185 -1.6866 -0.0437  0.1138
 6465TIP3   OH240809   4.534   5.525  11.650 -0.5457  0.5035 -0.0944
 6465TIP3    H140810   4.522   5.440  11.606 -1.0361 -0.2415  1.4597
 6465TIP3    H240811   4.585   5.505  11.728 -0.5457  1.6649  0.2092
 6466TIP3   OH240812   2.301   4.666   5.629  0.3543  0.1813  0.0585
 6466TIP3    H140813   2.382   4.682   5.582  0.8758  0.3469  0.9969
 6466TIP3    H240814   2.318   4.698   5.718 -1.0038  0.9707  0.0596
 6467TIP3   OH240815   3.027   6.535   1.250  0.2224 -0.3862  0.2385
 6467TIP3    H140816   2.990   6.606   1.198  1.8657 -0.0208 -0.4427
 6467TIP3    H240817   3.049   6.467   1.185  1.4717 -0.2774  0.5372
 6468TIP3   OH240818   0.727   3.648  14.868 -0.4094  0.1494 -0.3760
 6468TIP3    H140819   0.781   3.697  14.806 -0.7824  0.2546 -0.6197
 6468TIP3    H240820   0.766   3.666  14.953  1.5969 -1.9276 -0.8087
 6469TIP3   OH240821   1.525   2.338   1.408  0.3824  0.2464 -0.2981
 6469TIP3    H140822   1.588   2.269   1.384  1.8217  1.2686  0.4367
 6469TIP3    H240823   1.499   2.377   1.325  1.9561  0.8508 -0.5376
 6470TIP3   OH240824   5.321   6.724  10.563  0.2512  0.3357  0.1284
 6470TIP3    H140825   5.246   6.750  10.508  0.4058 -0.3191 -0.3953
 6470TIP3    H240826   5.380   6.679  10.503  1.3005  1.2927  0.4398
 6471TIP3   OH240827   0.266   1.929  14.577  0.3844 -0.3758  0.0928
 6471TIP3    H140828   0.241   1.874  14.652 -0.8445  0.2454  0.1515
 6471TIP3    H240829   0.193   1.920  14.516  0.7127  0.2857 -0.3977
 6472TIP3   OH240830   2.785   4.843   3.220  0.8382 -0.5055  0.5735
 6472TIP3    H140831   2.785   4.796   3.136  2.1195 -0.7354  0.6835
 6472TIP3    H240832   2.839   4.920   3.204  0.2438 -0.0202  0.9071
 6473TIP3   OH240833   6.019   0.368  15.248 -0.5247 -0.2363 -0.1653
 6473TIP3    H140834   6.024   0.462  15.231  1.0476 -0.3882 -0.7412
 6473TIP3    H240835   5.972   0.359  15.330  0.1889  1.1251  0.4005
 6474TIP3   OH240836   1.886   5.993  14.171  0.1256  0.3606  0.5050
 6474TIP3    H140837   1.820   5.999  14.240 -0.8163  0.0105 -0.3485
 6474TIP3    H240838   1.969   5.985  14.218 -0.4833  0.3043  1.5961
 6475TIP3   OH240839   6.309   3.900  15.801  0.0841  0.0964 -0.0209
 6475TIP3    H140840   6.393   3.865  15.831 -0.7271 -1.0810  0.8920
 6475TIP3    H240841   6.329   3.990  15.773  1.1417  0.7300  2.6293
 6476TIP3   OH240842   3.970   3.445  16.603 -0.0457 -0.0201 -0.4413
 6476TIP3    H140843   3.966   3.527  16.653  0.6047  0.3149 -0.9324
 6476TIP3    H240844   4.011   3.382  16.663 -0.4853  0.0312 -0.0867
 6477TIP3   OH240845   3.077   2.700  14.193  0.0607 -0.2635 -0.0902
 6477TIP3    H140846   3.143   2.746  14.142  0.1016 -0.1934  0.0246
 6477TIP3    H240847   3.055   2.760  14.264 -0.4446 -0.1064 -0.3749
 6478TIP3   OH240848   6.504   5.961   0.546 -0.2037  0.2575 -0.0817
 6478TIP3    H140849   6.502   6.043   0.594 -2.9807  0.3641 -0.3385
 6478TIP3    H240850   6.414   5.947   0.517  0.8267 -1.2738 -2.7590
 6479TIP3   OH240851   0.422   2.980   0.347  0.4191  0.0507 -0.0679
 6479TIP3    H140852   0.511   2.944   0.354  0.0273 -0.5723  1.8479
 6479TIP3    H240853   0.435   3.074   0.347  1.1799 -0.0257 -1.4542
 6480TIP3   OH240854   5.092   0.196   4.073  0.2589 -0.3968 -0.0183
 6480TIP3    H140855   5.012   0.161   4.113  0.0655  0.7443  0.6281
 6480TIP3    H240856   5.092   0.160   3.985 -0.7036 -0.8266  0.1467
 6481TIP3   OH240857   1.369   5.782   6.015 -0.5914  0.1707 -0.5638
 6481TIP3    H140858   1.326   5.703   5.981  0.4232 -0.5507 -0.1765
 6481TIP3    H240859   1.457   5.754   6.040 -0.0285  1.5401 -0.9239
 6482TIP3   OH240860   4.382   0.199   1.809 -0.9213  0.5620  0.5965
 6482TIP3    H140861   4.422   0.260   1.748  1.0627 -0.5828  0.6973
 6482TIP3    H240862   4.297   0.237   1.830  0.1927  3.1493  0.5068
 6483TIP3   OH240863   3.287   4.525   5.517 -0.3576 -0.2775 -0.2115
 6483TIP3    H140864   3.280   4.595   5.582 -0.7943 -1.9249  1.5720
 6483TIP3    H240865   3.380   4.505   5.514 -0.3666 -0.3730  0.1049
 6484TIP3   OH240866   1.890   2.972  14.692 -0.6152  0.0007  0.3327
 6484TIP3    H140867   1.867   2.890  14.737 -1.9663  0.4796  0.5316
 6484TIP3    H240868   1.886   2.949  14.599 -1.2847 -0.0932  0.3800
 6485TIP3   OH240869   6.019   3.579  16.517 -0.2126 -0.5589 -0.9023
 6485TIP3    H140870   6.031   3.592  16.423 -1.2265 -0.7662 -1.0655
 6485TIP3    H240871   5.989   3.664  16.549 -0.7506 -0.7365 -0.9239
 6486TIP3   OH240872   1.695   4.697   1.615  1.1321  0.3686 -1.0339
 6486TIP3    H140873   1.638   4.770   1.639  1.4704  0.4482 -0.4738
 6486TIP3    H240874   1.637   4.636   1.570  0.9013  1.1101 -1.7726
 6487TIP3   OH240875   2.438   3.719   5.970 -0.3630  0.3786 -0.2585
 6487TIP3    H140876   2.398   3.804   5.953  1.0272  1.4989  1.7420
 6487TIP3    H240877   2.424   3.704   6.064  0.3992 -1.0457 -0.3530
 6488TIP3   OH240878   2.523   5.884   3.992 -0.1308  0.2342  0.1354
 6488TIP3    H140879   2.464   5.817   3.959 -0.5534  0.6757 -0.0217
 6488TIP3    H240880   2.488   5.966   3.956 -0.1970  0.6461  1.1042
 6489TIP3   OH240881   1.181   0.627  15.369  0.8919 -0.6090  0.6942
 6489TIP3    H140882   1.110   0.689  15.387  0.4930 -0.2980 -1.7497
 6489TIP3    H240883   1.160   0.551  15.423 -1.4377 -0.5883 -0.1196
 6490TIP3   OH240884   1.644   4.719   0.430  0.1301  0.4333 -0.4575
 6490TIP3    H140885   1.706   4.740   0.501  1.4359  1.4024 -1.8472
 6490TIP3    H240886   1.577   4.787   0.437 -1.0962 -0.9050  1.3638
 6491TIP3   OH240887   4.679   1.650  14.330 -0.0490 -0.0521 -0.0573
 6491TIP3    H140888   4.752   1.648  14.391 -0.4297  1.1756  0.4698
 6491TIP3    H240889   4.684   1.737  14.290  0.2439 -0.8575 -1.8582
 6492TIP3   OH240890   1.112   4.226  16.976 -0.3953  0.1559  0.4362
 6492TIP3    H140891   1.068   4.156  17.025 -1.5360  0.1959 -0.4999
 6492TIP3    H240892   1.176   4.181  16.921  1.6861  0.2018  2.7500
 6493TIP3   OH240893   2.183   6.359  15.420 -0.2704  0.1666  0.3029
 6493TIP3    H140894   2.087   6.360  15.414 -0.1324  0.1800 -2.4021
 6493TIP3    H240895   2.209   6.451  15.409  0.1540 -0.1555 -1.5867
 6494TIP3   OH240896   2.610   3.552  10.776  0.0731 -0.4831 -0.3921
 6494TIP3    H140897   2.678   3.589  10.719  0.8917 -1.9005 -0.3482
 6494TIP3    H240898   2.541   3.524  10.716 -1.2141  2.3798 -0.3411
 6495TIP3   OH240899   4.661   2.167  12.281 -0.6033 -0.0423  0.0311
 6495TIP3    H140900   4.660   2.140  12.189 -0.9246 -0.9174  0.2871
 6495TIP3    H240901   4.580   2.132  12.317 -0.5755  0.4721  0.6013
 6496TIP3   OH240902   4.636   0.622  11.966  0.2626 -0.1364 -0.0740
 6496TIP3    H140903   4.640   0.564  11.890  2.1981 -0.1742  0.0201
 6496TIP3    H240904   4.659   0.708  11.931 -1.0093  0.2793  0.0842
 6497TIP3   OH240905   2.469   4.938  13.580 -0.3308  0.3350  0.3898
 6497TIP3    H140906   2.447   4.881  13.654 -2.1602  1.4867  0.7516
 6497TIP3    H240907   2.385   4.961  13.541  0.6442 -0.6669 -2.3855
 6498TIP3   OH240908   3.781   4.673   6.620  0.5385  0.1811  0.0483
 6498TIP3    H140909   3.695   4.678   6.580  1.1422  0.6461 -1.2081
 6498TIP3    H240910   3.823   4.598   6.580  0.9131  0.2610  0.2808
 6499TIP3   OH240911   6.434   2.044  15.379 -0.0789 -0.3392  0.6244
 6499TIP3    H140912   6.371   1.975  15.360  0.4879 -0.3305 -1.3904
 6499TIP3    H240913   6.519   2.000  15.378  0.1254  0.0304  1.2722
 6500TIP3   OH240914   2.417   5.831   1.688  0.2384  0.1263  0.5017
 6500TIP3    H140915   2.441   5.770   1.757 -3.1540  0.2660  1.9159
 6500TIP3    H240916   2.394   5.776   1.613 -0.4060 -0.2217  0.9545
 6501TIP3   OH240917   4.832   2.903   3.212  0.2510 -0.1442 -0.1091
 6501TIP3    H140918   4.866   2.856   3.136 -0.9677  0.9698 -1.3519
 6501TIP3    H240919   4.890   2.980   3.221 -0.3941  0.4147 -0.7037
 6502TIP3   OH240920   2.479   0.178   4.898 -0.5125 -0.1914 -0.2489
 6502TIP3    H140921   2.409   0.198   4.836 -1.1978 -0.5565  0.4152
 6502TIP3    H240922   2.442   0.112   4.957  0.7368 -1.1915 -0.5584
 6503TIP3   OH240923   5.518   5.205  12.928 -0.5308 -0.5808  0.1822
 6503TIP3    H140924   5.479   5.256  12.999  1.2215  1.0958 -0.0135
 6503TIP3    H240925   5.512   5.262  12.851 -1.9673 -2.1796 -0.9293
 6504TIP3   OH240926   3.685   5.070  13.411  0.1583 -0.5554  0.1321
 6504TIP3    H140927   3.743   5.002  13.377  0.4160 -0.1678 -0.2076
 6504TIP3    H240928   3.597   5.039  13.390  0.3209 -0.1334 -1.2810
 6505TIP3   OH240929   5.325   0.998   0.816  0.0554 -0.1552 -0.1447
 6505TIP3    H140930   5.305   1.035   0.902 -2.1210  2.4908 -1.7066
 6505TIP3    H240931   5.244   1.010   0.765  2.0463  0.5776 -3.3123
 6506TIP3   OH240932   0.936   1.017   3.386  0.0109 -0.8364 -0.2784
 6506TIP3    H140933   0.858   1.004   3.440 -0.9779 -1.2690 -1.7717
 6506TIP3    H240934   0.992   1.073   3.438 -1.8892  0.5987  0.2819
 6507TIP3   OH240935   3.443   3.507   3.375  0.0850  0.1426  0.1951
 6507TIP3    H140936   3.412   3.576   3.317  2.1911  0.3036 -0.7719
 6507TIP3    H240937   3.502   3.454   3.321  0.2053 -1.1283  1.5250
 6508TIP3   OH240938   5.282   5.851   5.628 -0.7248  0.1776 -0.0146
 6508TIP3    H140939   5.372   5.829   5.605 -0.6453 -0.7761  1.1768
 6508TIP3    H240940   5.290   5.924   5.689 -0.7323 -0.4292  0.7063
 6509TIP3   OH240941   1.242   5.528   3.461  0.1542  0.3004 -0.7687
 6509TIP3    H140942   1.203   5.565   3.382 -2.5273 -0.1609  0.2850
 6509TIP3    H240943   1.304   5.594   3.491 -0.3268  1.3731 -2.0939
 6510TIP3   OH240944   4.056   6.053   6.822  0.4535  0.5543 -0.5363
 6510TIP3    H140945   3.982   6.105   6.853  1.0462  0.1920  1.5434
 6510TIP3    H240946   4.030   6.024   6.734 -2.0051  0.1804  0.2793
 6511TIP3   OH240947   3.920   4.744  12.117 -0.2231 -0.0458 -0.0334
 6511TIP3    H140948   3.968   4.815  12.074  0.0248 -1.2600 -1.8205
 6511TIP3    H240949   3.987   4.683  12.145 -0.5814 -0.6532 -0.4957
 6512TIP3   OH240950   3.821   4.883  14.298  0.1989  0.3073  0.6760
 6512TIP3    H140951   3.728   4.899  14.278 -0.3389 -1.9350  1.2026
 6512TIP3    H240952   3.858   4.853  14.215 -0.0165 -0.6535  0.9169
 6513TIP3   OH240953   0.604   1.296  13.688  0.1851  0.0185  0.3046
 6513TIP3    H140954   0.540   1.320  13.755 -0.2470 -1.8223  0.5882
 6513TIP3    H240955   0.680   1.351  13.706 -0.1291 -0.0599  1.9680
 6514TIP3   OH240956   3.923   4.833  16.846 -0.4073 -0.6284 -0.7166
 6514TIP3    H140957   4.019   4.840  16.846 -0.4518  0.1058 -0.0110
 6514TIP3    H240958   3.904   4.759  16.904 -0.3452  0.8382  1.2475
 6515TIP3   OH240959   4.743   6.254   5.873  0.2393 -0.0612 -0.3976
 6515TIP3    H140960   4.791   6.302   5.940 -2.9126 -2.0532  3.5659
 6515TIP3    H240961   4.797   6.177   5.855  0.3557 -0.4123  1.2948
 6516TIP3   OH240962   2.847   5.749  14.416  0.2198  0.0338  0.4959
 6516TIP3    H140963   2.754   5.727  14.414 -0.0648  1.2992 -0.6002
 6516TIP3    H240964   2.884   5.691  14.483 -1.2293 -0.9373  0.4717
 6517TIP3   OH240965   4.910   3.095   5.427  0.6536 -0.4847  0.4019
 6517TIP3    H140966   4.897   3.033   5.499 -1.4596  0.6520  1.0326
 6517TIP3    H240967   4.880   3.047   5.349  1.0214 -0.9896  0.5650
 6518TIP3   OH240968   2.554   4.721  12.875  0.0743 -0.0302 -0.7632
 6518TIP3    H140969   2.578   4.701  12.965 -1.1885 -0.2994 -0.4855
 6518TIP3    H240970   2.459   4.732  12.876  0.1138  0.5445 -1.9511
 6519TIP3   OH240971   2.617   1.974   0.121  0.1893  0.1110 -0.2439
 6519TIP3    H140972   2.548   2.038   0.101 -1.2804 -0.8229  1.6750
 6519TIP3    H240973   2.587   1.930   0.200  3.0807 -0.2337  0.7394
 6520TIP3   OH240974   4.775   0.547   1.137  0.2428 -0.3871 -0.1176
 6520TIP3    H140975   4.686   0.536   1.104 -0.3007 -1.4438  1.6565
 6520TIP3    H240976   4.811   0.459   1.139  0.6193 -0.2091  1.1468
 6521TIP3   OH240977   2.072   0.706   5.673 -0.0775  0.5882  0.1278
 6521TIP3    H140978   2.166   0.690   5.679 -0.2734 -0.6433 -0.0475
 6521TIP3    H240979   2.065   0.786   5.620  0.8034 -0.2799 -1.3293
 6522TIP3   OH240980   1.764   5.278   3.013 -0.1466 -0.7205  0.2777
 6522TIP3    H140981   1.682   5.317   3.041  0.9710  0.7375  1.6171
 6522TIP3    H240982   1.775   5.308   2.922  0.9280  2.5960  1.4164
 6523TIP3   OH240983   2.147   6.455   1.984 -0.0473  0.1318  0.0061
 6523TIP3    H140984   2.065   6.499   2.009  0.1068  0.1560  0.4586
 6523TIP3    H240985   2.125   6.411   1.901  0.0604  1.8384 -0.9673
 6524TIP3   OH240986   2.638   6.140  16.630 -0.2317 -0.9529 -0.1366
 6524TIP3    H140987   2.608   6.125  16.540 -1.8681  0.2422  0.1853
 6524TIP3    H240988   2.667   6.055  16.660 -2.0478 -1.8932 -0.9565
 6525TIP3   OH240989   4.975   4.376   0.523 -0.2209  0.3920  0.3678
 6525TIP3    H140990   5.033   4.403   0.594  1.2884 -0.0427 -0.6617
 6525TIP3    H240991   4.922   4.452   0.505  1.3570  1.4465  0.0497
 6526TIP3   OH240992   2.046   3.906   2.126 -0.8063 -0.3751  0.2247
 6526TIP3    H140993   1.998   3.868   2.199  1.6018  0.3503  2.2647
 6526TIP3    H240994   2.007   3.992   2.113 -0.4761 -0.0311  1.4637
 6527TIP3   OH240995   2.214   3.978  15.492  0.1375 -0.3330  0.1041
 6527TIP3    H140996   2.153   3.924  15.441 -0.3517  1.9181 -1.7974
 6527TIP3    H240997   2.163   4.007  15.568 -1.1654  1.3284 -1.3500
 6528TIP3   OH240998   1.355   5.876   1.615 -0.4057 -0.1688 -0.3814
 6528TIP3    H140999   1.446   5.859   1.589 -0.7572 -0.6669 -1.2905
 6528TIP3    H241000   1.319   5.926   1.541 -0.9091 -0.0680 -0.0661
 6529TIP3   OH241001   3.325   6.345  16.507  0.1803  0.7947 -0.3830
 6529TIP3    H141002   3.296   6.322  16.419  1.7386 -0.0875 -0.6966
 6529TIP3    H241003   3.416   6.373  16.495  0.4604  0.4957  0.9676
 6530TIP3   OH241004   3.311   2.697  11.590 -0.4436  0.1913  0.2323
 6530TIP3    H141005   3.312   2.702  11.686 -0.0496  0.1151  0.2306
 6530TIP3    H241006   3.228   2.738  11.565  0.0960  1.5010  0.5333
 6531TIP3   OH241007   5.984   5.450   2.025  0.5816  0.2628  0.0335
 6531TIP3    H141008   6.051   5.517   2.039  1.1732 -0.1844 -0.6411
 6531TIP3    H241009   5.920   5.465   2.095  1.2727  0.8275  0.5456
 6532TIP3   OH241010   1.133   4.195   5.185  0.0664  0.0160  0.1899
 6532TIP3    H141011   1.097   4.213   5.098  0.3199 -1.8720 -0.3230
 6532TIP3    H241012   1.055   4.182   5.240 -0.0909  0.9016  0.1801
 6533TIP3   OH241013   3.288   0.790   1.658 -0.5292  0.0498  0.7411
 6533TIP3    H141014   3.222   0.723   1.641  0.2534 -0.6861  0.5715
 6533TIP3    H241015   3.294   0.839   1.576 -0.7580  0.0116  0.7022
 6534TIP3   OH241016   2.286   4.820  11.459 -0.0797  0.4719  0.3192
 6534TIP3    H141017   2.318   4.886  11.397  1.8373  0.2796  1.0696
 6534TIP3    H241018   2.291   4.737  11.412 -0.0975  0.5260  0.2223
 6535TIP3   OH241019   2.580   3.769   2.025  0.2614 -0.0211  0.3124
 6535TIP3    H141020   2.535   3.791   1.943 -1.1487 -4.1132 -0.1283
 6535TIP3    H241021   2.509   3.754   2.088  1.2846  0.7538  1.6839
 6536TIP3   OH241022   5.043   2.506   5.101  0.0602 -0.0516 -0.1950
 6536TIP3    H141023   4.998   2.590   5.112  1.6551  0.7501  0.4776
 6536TIP3    H241024   5.116   2.526   5.043  0.4369 -0.9778 -0.0444
 6537TIP3   OH241025   0.835   0.908  16.314  0.3191  0.1439  0.5979
 6537TIP3    H141026   0.748   0.933  16.346  0.1491 -0.3750  0.5422
 6537TIP3    H241027   0.858   0.978  16.253  0.4156  0.8582  1.4383
 6538TIP3   OH241028   2.047   6.382  13.444  0.5500 -0.3523  0.6931
 6538TIP3    H141029   1.972   6.342  13.490  0.6813  0.7082  1.8537
 6538TIP3    H241030   2.058   6.467  13.486 -0.7572  1.6675 -2.8012
 6539TIP3   OH241031   5.346   2.416   4.599 -0.0289 -0.4397  0.1516
 6539TIP3    H141032   5.285   2.410   4.672 -1.1640 -0.8865 -0.8084
 6539TIP3    H241033   5.327   2.339   4.545 -0.5995  0.9182 -1.6482
 6540TIP3   OH241034   2.910   2.435  14.461 -0.4875  0.3799 -0.1616
 6540TIP3    H141035   2.824   2.458  14.427 -1.0525 -1.3528  0.0352
 6540TIP3    H241036   2.938   2.361  14.408  0.0271 -0.2848  1.0043
 6541TIP3   OH241037   3.829   3.747   1.693 -0.4145  0.1435 -0.0829
 6541TIP3    H141038   3.866   3.764   1.780 -0.3603 -0.3442 -0.0121
 6541TIP3    H241039   3.779   3.666   1.704 -0.8996  0.4066 -0.3585
 6542TIP3   OH241040   4.374   6.621   4.747  0.0676 -0.2340 -0.1487
 6542TIP3    H141041   4.299   6.569   4.775 -0.0852  0.2366  0.3342
 6542TIP3    H241042   4.370   6.700   4.802  0.3035  0.2725 -0.8553
 6543TIP3   OH241043   0.259   0.045  11.306  0.2670  0.3161 -0.3856
 6543TIP3    H141044   0.220   0.035  11.393 -0.5919  0.0001 -0.7962
 6543TIP3    H241045   0.195   0.006  11.247  1.2861 -0.3385 -1.0694
 6544TIP3   OH241046   0.130   4.528   3.699  0.1633  0.2640 -0.3191
 6544TIP3    H141047   0.199   4.480   3.743  0.1607  0.6820  0.1432
 6544TIP3    H241048   0.172   4.608   3.667 -0.4806  1.3485  1.4790
 6545TIP3   OH241049   4.790   3.982  11.533 -0.1350  0.3712 -0.0422
 6545TIP3    H141050   4.834   3.918  11.589 -0.8505  0.3715  0.5266
 6545TIP3    H241051   4.843   3.984  11.453  0.3665 -0.3103  0.2643
 6546TIP3   OH241052   6.462   1.327   0.250 -0.0016 -0.2981  0.2408
 6546TIP3    H141053   6.557   1.329   0.244  0.0170  0.1679  0.6238
 6546TIP3    H241054   6.444   1.278   0.331 -0.0624  0.4042  0.6586
 6547TIP3   OH241055   2.013   5.196   0.805  0.4381  0.7545 -0.3418
 6547TIP3    H141056   2.077   5.215   0.874 -0.0573 -1.9686  0.9373
 6547TIP3    H241057   2.038   5.110   0.772 -2.2441 -0.1117 -0.2038
 6548TIP3   OH241058   3.274   3.017   2.590 -0.3296 -0.3028  0.0636
 6548TIP3    H141059   3.309   3.009   2.678  3.0956 -0.2827 -1.2211
 6548TIP3    H241060   3.209   3.087   2.596  1.1749  0.9764  2.1950
 6549TIP3   OH241061   3.218   4.397  13.042  1.0673 -0.6099 -0.6228
 6549TIP3    H141062   3.166   4.426  13.117  0.3077  1.7955 -2.0148
 6549TIP3    H241063   3.155   4.354  12.984  1.4313 -1.3842 -0.4605
 6550TIP3   OH241064   6.289   0.915   3.031 -0.3070 -0.3307  0.4627
 6550TIP3    H141065   6.368   0.872   2.999  0.0789  1.1890 -0.6937
 6550TIP3    H241066   6.230   0.917   2.955 -0.3493  1.0686  0.5200
 6551TIP3   OH241067   4.064   0.141  11.855  0.1689  0.2591 -0.2947
 6551TIP3    H141068   4.045   0.076  11.923 -0.3718  0.4908 -0.2230
 6551TIP3    H241069   4.089   0.220  11.903  0.9936  0.0612 -0.3824
 6552TIP3   OH241070   1.862   2.366  15.459  0.1347  0.2933  0.1875
 6552TIP3    H141071   1.909   2.439  15.501 -0.5744  0.6813  0.3127
 6552TIP3    H241072   1.840   2.307  15.530  0.7086 -0.0496  0.0850
 6553TIP3   OH241073   4.051   0.310   2.479  0.1651 -0.2236 -0.3629
 6553TIP3    H141074   3.991   0.289   2.408  1.1155  1.0870 -1.5898
 6553TIP3    H241075   3.994   0.335   2.552 -0.8049  0.4529 -1.3306
 6554TIP3   OH241076   3.585   3.429  10.760  0.1515  0.5700 -0.1348
 6554TIP3    H141077   3.655   3.394  10.705 -0.5478 -1.6056  0.3017
 6554TIP3    H241078   3.543   3.496  10.706 -0.2503 -1.2153 -2.1196
 6555TIP3   OH241079   1.308   0.382  12.952 -0.5267 -0.3853 -0.1789
 6555TIP3    H141080   1.244   0.427  12.896 -0.4188 -0.5174 -0.4094
 6555TIP3    H241081   1.392   0.420  12.927 -0.4440 -0.6655 -0.3202
 6556TIP3   OH241082   5.946   2.361  15.858  0.1393 -0.8190 -0.2427
 6556TIP3    H141083   5.888   2.386  15.786  0.2241  1.3277  0.3975
 6556TIP3    H241084   6.022   2.322  15.815  1.7038  3.4423 -1.5669
 6557TIP3   OH241085   5.434   1.611  11.987  0.3440  0.1931  0.1955
 6557TIP3    H141086   5.396   1.648  11.907  0.2397 -0.6563 -0.1518
 6557TIP3    H241087   5.366   1.622  12.053 -0.2031 -0.5633 -0.2254
 6558TIP3   OH241088   0.750   5.504  16.560 -0.0121 -0.7667 -0.2887
 6558TIP3    H141089   0.832   5.469  16.527  0.0249  0.7571 -1.8815
 6558TIP3    H241090   0.748   5.595  16.530 -1.1011 -0.0131  1.9007
 6559TIP3   OH241091   4.773   5.747   5.744  0.6390  0.0267  0.2865
 6559TIP3    H141092   4.691   5.793   5.723  0.3462 -0.9560 -0.8218
 6559TIP3    H241093   4.822   5.749   5.662  0.8359 -1.1845  0.3696
 6560TIP3   OH241094   0.131   4.906   4.750 -0.1416  0.3728 -0.4150
 6560TIP3    H141095   0.097   4.843   4.813  1.3916  0.5414  0.6148
 6560TIP3    H241096   0.063   4.912   4.683 -1.4069 -0.4872  0.7566
 6561TIP3   OH241097   1.343   5.191  10.885  0.6207  0.5797  0.6027
 6561TIP3    H141098   1.390   5.228  10.811  0.0843  1.0935  0.5088
 6561TIP3    H241099   1.253   5.181  10.854  1.1577 -2.7124 -0.0224
 6562TIP3   OH241100   4.345   6.714  12.645 -0.5521 -0.3368  0.2378
 6562TIP3    H141101   4.411   6.694  12.578  0.5683 -0.7542  1.4495
 6562TIP3    H241102   4.298   6.790  12.609 -0.5739 -1.1091 -1.4289
 6563TIP3   OH241103   3.204   5.757   0.055  0.3519 -0.0249 -0.5267
 6563TIP3    H141104   3.119   5.724   0.083  0.3139  0.5780  0.0746
 6563TIP3    H241105   3.206   5.847   0.087  1.0081  0.1226 -0.9814
 6564TIP3   OH241106   2.886   6.128  11.470  0.1211 -0.0024 -0.1019
 6564TIP3    H141107   2.923   6.093  11.389 -0.4707 -0.7397 -0.0580
 6564TIP3    H241108   2.948   6.101  11.538 -0.3671 -1.0437 -0.0588
 6565TIP3   OH241109   3.050   4.382  11.024 -0.1881 -0.9951  0.2130
 6565TIP3    H141110   3.081   4.318  11.087  2.1013 -1.7241 -1.5813
 6565TIP3    H241111   3.127   4.434  11.002 -0.9803 -0.6134 -1.8104
 6566TIP3   OH241112   5.794   6.127   5.950 -0.4757 -0.3917 -0.1055
 6566TIP3    H141113   5.706   6.144   5.916 -0.4834 -1.4301 -0.6230
 6566TIP3    H241114   5.794   6.168   6.037 -1.1348  0.4888 -0.5058
 6567TIP3   OH241115   0.636   1.811  14.852 -0.6275  0.6059 -0.1943
 6567TIP3    H141116   0.675   1.728  14.825 -2.0248 -0.3794  0.7360
 6567TIP3    H241117   0.630   1.862  14.771  1.7145  0.4422 -0.5104
 6568TIP3   OH241118   0.642   2.449   1.604  0.2664 -0.2852  0.6772
 6568TIP3    H141119   0.734   2.425   1.616  0.8557  2.0807  0.9580
 6568TIP3    H241120   0.636   2.472   1.511  0.1960  0.5426  0.8860
 6569TIP3   OH241121   1.357   3.713   6.470 -0.0455 -0.1966  0.7924
 6569TIP3    H141122   1.348   3.643   6.535 -2.0154 -0.5479  0.1736
 6569TIP3    H241123   1.448   3.741   6.478  0.2682 -1.5550  2.3515
 6570TIP3   OH241124   1.044   3.055   1.709 -0.2722 -0.1152  0.0979
 6570TIP3    H141125   0.967   3.078   1.761 -0.2873  0.4585 -0.1769
 6570TIP3    H241126   1.106   3.019   1.773 -0.0341  1.1983  0.6284
 6571TIP3   OH241127   1.972   4.354  16.386 -0.0902  0.2561 -0.2149
 6571TIP3    H141128   1.975   4.292  16.312  2.1836  1.8067 -1.4995
 6571TIP3    H241129   2.031   4.315  16.451  0.6736  0.6265 -0.6754
 6572TIP3   OH241130   5.833   6.241  12.342 -0.2976 -0.7707 -0.0904
 6572TIP3    H141131   5.928   6.229  12.338  0.0569  0.7823  2.8346
 6572TIP3    H241132   5.798   6.159  12.306  2.1414 -2.9481  2.2090
 6573TIP3   OH241133   6.268   4.486  11.343  0.4227  0.1519  0.0898
 6573TIP3    H141134   6.175   4.481  11.322  0.9019 -1.8614 -1.6527
 6573TIP3    H241135   6.276   4.444  11.429 -0.5326  2.1826  1.2197
 6574TIP3   OH241136   6.134   0.160   3.196 -0.0317  0.5606 -0.4986
 6574TIP3    H141137   6.065   0.111   3.241  1.1924 -1.0836 -0.3675
 6574TIP3    H241138   6.214   0.109   3.211  1.0704  1.9804 -1.3659
 6575TIP3   OH241139   4.103   1.118   1.396 -0.0312  0.4980  0.5016
 6575TIP3    H141140   4.197   1.123   1.409  0.1830  0.0800 -0.7969
 6575TIP3    H241141   4.067   1.105   1.484  1.2742 -1.4397  0.7739
 6576TIP3   OH241142   5.806   5.572   5.863  0.2031  0.1375  0.1488
 6576TIP3    H141143   5.797   5.523   5.945 -0.1651 -1.8466 -1.0335
 6576TIP3    H241144   5.756   5.652   5.877 -2.7230 -1.6891  0.7297
 6577TIP3   OH241145   1.599   3.248  10.904  0.5765  0.2274 -0.7091
 6577TIP3    H141146   1.583   3.331  10.948 -1.0928  0.0020 -0.8732
 6577TIP3    H241147   1.519   3.230  10.855  1.5887 -0.5991 -2.1137
 6578TIP3   OH241148   6.603   1.230  17.072  0.3230  0.1713 -0.2251
 6578TIP3    H141149   6.598   1.214  16.978  1.5239 -0.5900 -0.1767
 6578TIP3    H241150   6.673   1.294  17.082  0.0668  0.3978  0.1330
 6579TIP3   OH241151   5.596   5.957  15.415 -0.0243 -0.3295 -0.6159
 6579TIP3    H141152   5.513   5.993  15.382 -0.1087  0.6002  0.5618
 6579TIP3    H241153   5.610   6.003  15.498  1.1524 -1.2329 -0.3076
 6580TIP3   OH241154   2.587   2.746   5.274 -0.1592  0.2703 -0.3284
 6580TIP3    H141155   2.606   2.817   5.213  0.6527  0.1719 -0.1866
 6580TIP3    H241156   2.672   2.710   5.298 -0.4897  0.0956  0.6177
 6581TIP3   OH241157   1.942   1.884  15.554  0.5017  0.0175  0.1559
 6581TIP3    H141158   1.877   1.816  15.534  2.1727 -1.2922 -0.9243
 6581TIP3    H241159   1.978   1.859  15.639  1.6020 -0.8501 -0.5544
 6582TIP3   OH241160   6.329   1.605  14.026  0.1409 -0.1823  0.5080
 6582TIP3    H141161   6.296   1.516  14.038 -1.0516 -0.1009 -1.8223
 6582TIP3    H241162   6.253   1.662  14.043  0.2943  0.2632 -0.2790
 6583TIP3   OH241163   1.778   1.620  11.633  0.0600  0.1127  0.1911
 6583TIP3    H141164   1.685   1.637  11.648 -0.0086 -0.3900  0.3283
 6583TIP3    H241165   1.808   1.578  11.713  0.2479 -0.3610 -0.1318
 6584TIP3   OH241166   6.573   6.168  16.946 -0.2800 -0.1523 -0.1581
 6584TIP3    H141167   6.488   6.126  16.936 -0.6222  0.1312  1.4113
 6584TIP3    H241168   6.598   6.194  16.858 -1.1582 -1.5162 -0.8272
 6585TIP3   OH241169   0.884   3.132   0.851 -0.0267 -0.4069  0.3047
 6585TIP3    H141170   0.811   3.185   0.882  0.6445  1.5064 -1.3005
 6585TIP3    H241171   0.844   3.069   0.791 -0.3904  0.4505 -0.3531
 6586TIP3   OH241172   3.494   3.596   5.822 -0.2352 -0.0134  0.3923
 6586TIP3    H141173   3.499   3.533   5.749  1.5185 -0.2586  0.7044
 6586TIP3    H241174   3.463   3.677   5.781 -0.6824 -0.5514 -0.3631
 6587TIP3   OH241175   6.372   1.375   4.114  1.1151  0.2893  0.1398
 6587TIP3    H141176   6.438   1.363   4.046 -1.3035  1.1910 -2.4227
 6587TIP3    H241177   6.365   1.470   4.124 -0.0231  0.2044  0.1728
 6588TIP3   OH241178   0.528   4.204   2.640  0.3460  0.1879 -0.2023
 6588TIP3    H141179   0.516   4.267   2.569 -1.7702  1.1431  0.9456
 6588TIP3    H241180   0.498   4.121   2.604  0.1524  0.4810 -0.7298
 6589TIP3   OH241181   4.945   2.758   2.997 -0.2194  0.3323  0.8615
 6589TIP3    H141182   5.039   2.745   2.983 -0.5230 -0.4279 -0.5118
 6589TIP3    H241183   4.911   2.670   3.015 -0.6907  0.5917  1.2646
 6590TIP3   OH241184   0.427   0.315   3.836 -0.0145 -0.2151  0.0941
 6590TIP3    H141185   0.478   0.375   3.891 -0.0562  0.7595 -0.9151
 6590TIP3    H241186   0.402   0.367   3.760 -2.9705 -0.5391  0.8025
 6591TIP3   OH241187   6.655   0.498   1.020  0.1699  0.5607  0.5594
 6591TIP3    H141188   6.584   0.497   0.955  1.4711 -0.7189 -0.8802
 6591TIP3    H241189   6.688   0.587   1.018  0.5033  0.4157 -0.8904
 6592TIP3   OH241190   5.224   2.036  10.359 -0.2281 -0.0563  0.3253
 6592TIP3    H141191   5.311   1.999  10.371  0.2939  0.3685 -1.9147
 6592TIP3    H241192   5.169   1.961  10.337 -0.0320 -0.0662 -0.1301
 6593TIP3   OH241193   4.749   2.662  13.326  0.2658 -0.4761  0.3736
 6593TIP3    H141194   4.694   2.736  13.300  0.6008  0.1703  1.4770
 6593TIP3    H241195   4.821   2.702  13.374  1.7971 -1.2989 -1.1856
 6594TIP3   OH241196   0.886   2.200  13.647 -0.4896  0.7501  0.3444
 6594TIP3    H141197   0.932   2.117  13.639  0.1623  1.0892  0.5058
 6594TIP3    H241198   0.804   2.179  13.692 -0.5912  0.1095 -0.1314
 6595TIP3   OH241199   1.890   4.496  15.332 -0.1865  0.5471  0.4306
 6595TIP3    H141200   1.798   4.471  15.325  0.2458 -0.8516 -0.4022
 6595TIP3    H241201   1.918   4.511  15.242  0.8089 -0.5378  0.5523
 6596TIP3   OH241202   4.219   0.471  11.411  0.1634  0.1915 -0.4817
 6596TIP3    H141203   4.228   0.555  11.455 -0.0922  0.7136 -1.4195
 6596TIP3    H241204   4.271   0.480  11.331 -1.9407  0.3528 -1.8606
 6597TIP3   OH241205   0.768   1.200   6.219 -0.0355  0.0516  0.4744
 6597TIP3    H141206   0.796   1.110   6.199 -0.5572  0.4381 -2.2491
 6597TIP3    H241207   0.720   1.227   6.141 -0.5759  2.4346  1.6014
 6598TIP3   OH241208   5.181   4.668  12.165 -0.3955  0.0065 -0.1554
 6598TIP3    H141209   5.169   4.668  12.260  0.9187  2.1593  0.0183
 6598TIP3    H241210   5.102   4.711  12.131 -1.9605 -2.7826 -0.2378
 6599TIP3   OH241211   1.326   5.458   2.726  0.3729 -0.4743 -0.0845
 6599TIP3    H141212   1.248   5.465   2.781 -0.0984 -0.5662 -0.7344
 6599TIP3    H241213   1.379   5.534   2.751 -0.6286  0.4472 -0.7201
 6600TIP3   OH241214   1.969   5.935  14.429 -0.5468  0.0486 -0.4902
 6600TIP3    H141215   2.015   5.861  14.467  0.9238  0.8785 -0.6144
 6600TIP3    H241216   1.877   5.918  14.447 -0.0860 -0.9378  0.9992
 6601TIP3   OH241217   1.646   2.500  13.278  0.2395  0.3846 -0.2618
 6601TIP3    H141218   1.652   2.418  13.327  1.3330 -0.6036 -2.0065
 6601TIP3    H241219   1.735   2.517  13.248 -0.7506 -0.1982 -3.7160
 6602TIP3   OH241220   6.235   6.729  12.784 -0.7643 -0.1662 -0.6697
 6602TIP3    H141221   6.330   6.721  12.777 -0.5131 -0.7262  2.6551
 6602TIP3    H241222   6.220   6.823  12.799 -0.7737 -0.0025 -1.7112
 6603TIP3   OH241223   5.175   1.087  15.198 -0.1636  0.0169  0.3016
 6603TIP3    H141224   5.147   1.035  15.123  0.2274 -0.8808  0.7617
 6603TIP3    H241225   5.269   1.100  15.185  0.0689 -0.8677  1.0629
 6604TIP3   OH241226   4.963   1.873   5.492  0.7271 -0.4805 -0.5792
 6604TIP3    H141227   5.051   1.863   5.455  0.7894  0.4412 -0.6974
 6604TIP3    H241228   4.974   1.938   5.561 -0.0263  0.2926 -1.1823
 6605TIP3   OH241229   5.680   1.293  11.644  0.0286  1.1915  0.0703
 6605TIP3    H141230   5.740   1.344  11.590  0.5664 -0.6959 -1.1571
 6605TIP3    H241231   5.619   1.253  11.581 -0.2398  0.1406  0.9875
 6606TIP3   OH241232   3.545   0.650   5.419  0.2630  0.3076 -0.6558
 6606TIP3    H141233   3.570   0.620   5.506  3.5508 -1.5424 -2.1641
 6606TIP3    H241234   3.610   0.717   5.397 -0.2010  0.3565 -1.9439
 6607TIP3   OH241235   4.517   5.734   6.018 -0.2204  0.4350  0.6368
 6607TIP3    H141236   4.508   5.736   5.923  0.3509 -0.7155  0.5575
 6607TIP3    H241237   4.572   5.809   6.039  0.9605 -0.2242 -0.0851
 6608TIP3   OH241238   3.993   0.440  14.046 -0.1004  0.6688  0.2773
 6608TIP3    H141239   3.978   0.496  14.122 -2.0710  0.3524  0.1420
 6608TIP3    H241240   3.941   0.479  13.976  1.4592  0.7872 -0.8505
 6609TIP3   OH241241   4.851   2.339   1.741  0.1694 -0.0740 -0.6661
 6609TIP3    H141242   4.897   2.348   1.657  0.6309 -0.4183 -0.4489
 6609TIP3    H241243   4.920   2.330   1.806 -0.2093 -1.8899 -0.4881
 6610TIP3   OH241244   2.782   2.363  11.294 -0.1023 -0.4196  0.2575
 6610TIP3    H141245   2.763   2.439  11.350  2.3484  1.1908 -0.9934
 6610TIP3    H241246   2.696   2.334  11.265 -1.1319  1.7508  0.9605
 6611TIP3   OH241247   0.295   3.194  14.134  0.2173  0.0683 -0.4127
 6611TIP3    H141248   0.354   3.250  14.185  0.3732 -0.7561  0.3248
 6611TIP3    H241249   0.346   3.170  14.057  1.5630 -2.1653  1.1137
 6612TIP3   OH241250   1.205   5.255   1.413 -0.1379  0.4406  0.2192
 6612TIP3    H141251   1.164   5.289   1.493  1.7854  1.5746  0.7646
 6612TIP3    H241252   1.264   5.325   1.385  0.4792 -0.6409 -1.2351
 6613TIP3   OH241253   6.065   5.035   0.694 -0.1755 -0.1341  0.7261
 6613TIP3    H141254   6.114   5.086   0.759  0.7632 -2.3189  1.7573
 6613TIP3    H241255   5.978   5.076   0.693  1.4016  3.3821 -0.6785
 6614TIP3   OH241256   2.653   5.528   4.521 -0.2728 -0.5804  0.6307
 6614TIP3    H141257   2.601   5.600   4.557  1.5074  0.8094  0.5224
 6614TIP3    H241258   2.692   5.565   4.442 -0.2349 -2.0513 -0.0476
 6615TIP3   OH241259   1.435   3.325   2.176 -0.1118 -0.4062 -0.1599
 6615TIP3    H141260   1.509   3.377   2.143 -0.5822  0.0175 -0.5615
 6615TIP3    H241261   1.383   3.306   2.098 -0.2170 -1.0395  0.0689
 6616TIP3   OH241262   3.450   2.362   6.340 -0.4336 -0.0237  0.4851
 6616TIP3    H141263   3.394   2.286   6.325  0.9149 -1.1507  1.0728
 6616TIP3    H241264   3.516   2.331   6.401  2.1759  0.6233 -1.9080
 6617TIP3   OH241265   4.452   2.254   3.410 -0.1948 -0.1853  0.3110
 6617TIP3    H141266   4.521   2.297   3.461  0.2650 -2.1393  1.4290
 6617TIP3    H241267   4.484   2.255   3.320  0.9266 -0.3570  0.7024
 6618TIP3   OH241268   0.465   4.869   1.495 -0.3395  0.3953 -0.1621
 6618TIP3    H141269   0.491   4.777   1.489  0.0347  0.5700 -1.5099
 6618TIP3    H241270   0.402   4.880   1.424 -0.1975  1.2383 -0.1605
 6619TIP3   OH241271   0.857   6.466   5.127  0.1973 -0.5716 -0.2874
 6619TIP3    H141272   0.936   6.490   5.175  0.8316 -2.8620 -0.1579
 6619TIP3    H241273   0.786   6.482   5.189  0.8812 -2.1064  0.9172
 6620TIP3   OH241274   4.041   0.297  12.426  0.1411 -0.6610  0.4350
 6620TIP3    H141275   4.009   0.336  12.345 -0.5984 -2.2573 -0.0587
 6620TIP3    H241276   3.983   0.331  12.494 -0.7760 -1.2772 -0.0496
 6621TIP3   OH241277   2.324   3.565  10.975  0.3907 -0.4416  0.0537
 6621TIP3    H141278   2.382   3.575  11.051 -0.0379 -1.6754  0.5482
 6621TIP3    H241279   2.365   3.618  10.907  1.7128 -0.7061  0.6253
 6622TIP3   OH241280   0.440   3.799   0.191  0.1980 -0.2986 -0.0238
 6622TIP3    H141281   0.381   3.755   0.130 -1.8163  2.1152  0.0968
 6622TIP3    H241282   0.524   3.757   0.177 -0.5461 -0.8442 -3.3967
 6623TIP3   OH241283   0.757   6.387  17.146 -0.8128  0.7605  0.2733
 6623TIP3    H141284   0.732   6.371  17.237 -1.2963  1.8801  0.3433
 6623TIP3    H241285   0.809   6.468  17.149 -1.0317  0.9369 -0.4676
 6624TIP3   OH241286   5.616   4.417  12.035  0.0459  0.7002 -0.9111
 6624TIP3    H141287   5.673   4.371  11.973 -1.5039 -1.2262 -0.9728
 6624TIP3    H241288   5.554   4.464  11.980 -0.8193 -0.3550 -0.8721
 6625TIP3   OH241289   6.643   2.872   3.744  0.2452 -0.1406  0.2538
 6625TIP3    H141290   6.551   2.897   3.745 -0.2243 -1.8507  1.7080
 6625TIP3    H241291   6.643   2.779   3.765  2.4000  0.1231  1.5828
 6626TIP3   OH241292   5.392   3.898  16.921 -0.3908 -0.5332 -0.0230
 6626TIP3    H141293   5.370   3.897  17.014  2.3722 -1.3979  0.6680
 6626TIP3    H241294   5.415   3.989  16.902 -3.1346  0.1171 -0.4574
 6627TIP3   OH241295   5.244   2.294  10.652 -0.5223 -0.5263  0.2539
 6627TIP3    H141296   5.319   2.288  10.712  0.9478 -0.0968 -1.4826
 6627TIP3    H241297   5.263   2.372  10.599 -2.5759  0.0047  0.2691
 6628TIP3   OH241298   4.736   0.077   1.004 -0.2658  0.2385 -0.3761
 6628TIP3    H141299   4.818   0.035   0.976  0.0839  1.5076 -1.3037
 6628TIP3    H241300   4.672   0.007   1.004  0.6384 -0.6019 -0.4503
 6629TIP3   OH241301   3.445   6.014  12.208 -0.3969 -0.0224 -0.0967
 6629TIP3    H141302   3.480   6.026  12.296 -1.1939  0.2181  0.1867
 6629TIP3    H241303   3.491   6.079  12.155  1.6112 -1.5345 -0.2938
 6630TIP3   OH241304   1.156   3.843   2.238 -0.0286 -0.2522 -0.4029
 6630TIP3    H141305   1.128   3.908   2.174  4.3770  2.1626 -0.0317
 6630TIP3    H241306   1.128   3.878   2.323  0.3813  0.0587 -0.3958
 6631TIP3   OH241307   2.921   2.555   3.548 -0.1507 -0.2019 -0.3402
 6631TIP3    H141308   2.873   2.489   3.497 -0.1795 -1.3261  1.1161
 6631TIP3    H241309   2.856   2.595   3.605  0.3422 -0.7216  0.6079
 6632TIP3   OH241310   4.987   4.325   2.797 -0.0778  0.6191 -0.3333
 6632TIP3    H141311   4.931   4.375   2.856  0.8793  1.8448 -0.4496
 6632TIP3    H241312   5.076   4.342   2.828  0.3642  0.3899 -1.4567
 6633TIP3   OH241313   1.917   4.804  13.764 -0.2162 -0.2175 -0.6514
 6633TIP3    H141314   1.957   4.861  13.829 -0.6802 -3.1544  2.3319
 6633TIP3    H241315   1.823   4.810  13.782 -0.3750 -0.7657 -1.2842
 6634TIP3   OH241316   0.822   0.270  17.098  0.0119 -0.3344 -0.0630
 6634TIP3    H141317   0.766   0.336  17.139 -0.4914  0.1706 -1.5066
 6634TIP3    H241318   0.764   0.224  17.038  1.0482 -0.0223 -1.3347
 6635TIP3   OH241319   4.101   1.569  13.248 -0.0981  0.5484 -0.4605
 6635TIP3    H141320   4.085   1.503  13.181 -1.2877  0.4541 -0.1025
 6635TIP3    H241321   4.038   1.548  13.317 -0.6172  2.1644 -0.4244
 6636TIP3   OH241322   0.145   6.192   6.065  0.4326  0.1586 -0.1423
 6636TIP3    H141323   0.184   6.152   6.143  2.5684  1.8133 -0.3099
 6636TIP3    H241324   0.206   6.172   5.995  1.2168  3.0931 -0.3552
 6637TIP3   OH241325   5.063   0.863   5.279 -0.4173  0.2911  0.1182
 6637TIP3    H141326   5.029   0.906   5.201 -1.1348 -1.6179 -0.6452
 6637TIP3    H241327   5.013   0.781   5.286 -0.3385  0.4121  2.5517
 6638TIP3   OH241328   0.370   0.135   2.889 -0.4631  0.5714 -0.0700
 6638TIP3    H141329   0.352   0.053   2.934 -0.0344  0.3095 -0.3651
 6638TIP3    H241330   0.462   0.129   2.864 -0.0026  1.7915  1.2389
 6639TIP3   OH241331   1.613   5.266  14.943 -0.0464 -0.4001 -0.6888
 6639TIP3    H141332   1.568   5.212  15.007  0.6672  1.0961  1.1497
 6639TIP3    H241333   1.682   5.210  14.908  0.0114 -1.0184  0.3910
 6640TIP3   OH241334   3.697   0.687  13.718  0.0675 -0.3081  0.3655
 6640TIP3    H141335   3.622   0.640  13.682  0.5299 -0.1386 -0.8445
 6640TIP3    H241336   3.685   0.777  13.688  0.1069 -0.0208  1.2053
 6641TIP3   OH241337   5.106   0.885   1.878  0.2137 -0.3455  0.5508
 6641TIP3    H141338   5.178   0.873   1.940 -0.2685  0.8688  1.3585
 6641TIP3    H241339   5.032   0.838   1.917  0.5272 -1.5575 -0.2590
 6642TIP3   OH241340   4.486   4.598   5.182  0.7907 -0.4194 -0.0671
 6642TIP3    H141341   4.391   4.606   5.167  0.4644 -1.4995  1.2695
 6642TIP3    H241342   4.523   4.677   5.142 -0.5378 -0.5797 -1.6834
 6643TIP3   OH241343   1.933   1.954   6.394  0.4455 -0.0366  0.4400
 6643TIP3    H141344   1.985   2.030   6.421  0.8943  0.5229 -1.8867
 6643TIP3    H241345   1.847   1.968   6.433  0.3256  2.0359 -0.4964
 6644TIP3   OH241346   2.929   3.905   2.506 -0.2882  0.0776  0.4065
 6644TIP3    H141347   2.845   3.865   2.484  0.8072 -1.7224 -0.6071
 6644TIP3    H241348   2.955   3.862   2.587  0.6940 -1.0003 -0.4621
 6645TIP3   OH241349   0.181   4.666   5.201 -0.0377  0.1672 -0.6557
 6645TIP3    H141350   0.199   4.613   5.123 -1.7135 -0.7117 -0.4754
 6645TIP3    H241351   0.163   4.603   5.270 -0.2240  0.9556  0.0264
 6646TIP3   OH241352   5.509   0.455  14.148 -0.2828  0.5109 -0.8391
 6646TIP3    H141353   5.514   0.362  14.123 -0.9644  0.0467  0.6671
 6646TIP3    H241354   5.591   0.471  14.195 -0.1550  0.6788 -1.1208
 6647TIP3   OH241355   0.664   2.971  12.382 -0.1080  0.5656 -0.6236
 6647TIP3    H141356   0.611   2.891  12.374 -1.3951  1.3340  0.0529
 6647TIP3    H241357   0.697   2.968  12.472  2.6016 -0.8733 -1.6278
 6648TIP3   OH241358   2.716   1.343  13.658  0.1731  0.4140 -1.1618
 6648TIP3    H141359   2.750   1.390  13.734 -1.9346 -1.6204  1.1322
 6648TIP3    H241360   2.654   1.405  13.618  3.2805  2.5228 -2.9079
 6649TIP3   OH241361   3.323   1.392   2.011  0.0100 -0.0130  0.0289
 6649TIP3    H141362   3.416   1.379   2.029 -0.0315 -0.4299 -0.0733
 6649TIP3    H241363   3.282   1.398   2.098  0.4312  2.3369  0.1177
 6650TIP3   OH241364   2.291   2.562  16.320 -0.0443  0.8164  0.1196
 6650TIP3    H141365   2.272   2.469  16.333 -1.3066  1.1817  0.8819
 6650TIP3    H241366   2.260   2.605  16.399  0.3877  1.9208 -0.2983
 6651TIP3   OH241367   5.488   6.035   5.329  0.0764  0.2040 -0.3903
 6651TIP3    H141368   5.476   5.942   5.351 -0.7039  0.3138 -0.3402
 6651TIP3    H241369   5.541   6.069   5.401  0.4168 -0.2214 -0.4406
 6652TIP3   OH241370   1.711   2.204  11.982 -0.1663  0.3736 -0.3436
 6652TIP3    H141371   1.682   2.113  11.974  0.6426 -0.1899  2.3520
 6652TIP3    H241372   1.680   2.247  11.903  1.3630 -2.7653 -2.7558
 6653TIP3   OH241373   4.992   1.502  16.755  0.3229 -0.8719 -0.2937
 6653TIP3    H141374   4.978   1.411  16.730  1.2660 -1.1348  0.0961
 6653TIP3    H241375   4.907   1.543  16.746 -0.3679 -2.0693  0.6375
 6654TIP3   OH241376   0.155   2.227   3.094 -0.2603 -0.3797 -0.0893
 6654TIP3    H141377   0.212   2.304   3.095 -0.1490 -0.4607 -0.2997
 6654TIP3    H241378   0.097   2.240   3.169  0.8167 -0.8754  0.8549
 6655TIP3   OH241379   0.483   3.978  14.986  0.5152  0.2933 -0.1203
 6655TIP3    H141380   0.480   3.957  14.892 -0.6967 -0.1120  0.0061
 6655TIP3    H241381   0.399   4.019  15.004  2.0564  3.5737  0.0743
 6656TIP3   OH241382   0.377   1.480   5.669 -0.1893 -0.5569 -0.3029
 6656TIP3    H141383   0.471   1.492   5.686  0.1465 -0.1193 -2.2879
 6656TIP3    H241384   0.344   1.568   5.651 -1.1580 -0.6105  1.1473
 6657TIP3   OH241385   1.490   0.831   6.292 -0.8102  0.1322  0.2735
 6657TIP3    H141386   1.530   0.917   6.301  0.8654 -0.5606 -0.2449
 6657TIP3    H241387   1.460   0.827   6.202 -1.1105  0.2780  0.3697
 6658TIP3   OH241388   1.816   1.063  14.125  0.0239  0.1096  0.5881
 6658TIP3    H141389   1.869   1.108  14.058 -1.3437  0.1036 -0.5258
 6658TIP3    H241390   1.838   1.107  14.207  1.4002  0.4187  0.0745
 6659TIP3   OH241391   4.203   0.535  16.291 -0.0958 -0.2323  0.3498
 6659TIP3    H141392   4.165   0.448  16.275 -0.2432 -0.1401  0.2029
 6659TIP3    H241393   4.159   0.593  16.229 -0.6623  0.1187  1.0635
 6660TIP3   OH241394   3.935   2.485  15.467  0.5890  0.3434 -0.1994
 6660TIP3    H141395   4.023   2.496  15.430 -0.7665  0.4607 -3.4620
 6660TIP3    H241396   3.951   2.475  15.561  4.0755  0.6371 -0.6800
 6661TIP3   OH241397   1.250   4.736  14.505 -0.0377  0.5200 -0.6414
 6661TIP3    H141398   1.219   4.685  14.580 -1.8818 -0.1061 -1.7997
 6661TIP3    H241399   1.253   4.826  14.537 -1.0423  0.2949  0.1013
 6662TIP3   OH241400   5.748   4.292  11.405  1.0070  0.4922 -0.0150
 6662TIP3    H141401   5.697   4.235  11.348  0.2309 -0.4041  1.5506
 6662TIP3    H241402   5.696   4.372  11.412  0.0831 -0.1874  1.0846
 6663TIP3   OH241403   4.070   4.962   2.960 -0.0031  0.1930  0.8388
 6663TIP3    H141404   4.057   4.991   3.051 -0.2259 -0.0950  0.9007
 6663TIP3    H241405   4.157   4.923   2.960 -0.5618 -1.0619  1.2570
 6664TIP3   OH241406   3.532   2.728   3.704 -0.0499 -0.6186  0.1124
 6664TIP3    H141407   3.465   2.796   3.710  1.0112  0.4098  0.5027
 6664TIP3    H241408   3.491   2.650   3.740 -1.8317 -0.6145 -1.8125
 6665TIP3   OH241409   5.195   3.403  13.597 -0.5604  0.0191 -0.0719
 6665TIP3    H141410   5.141   3.389  13.675 -1.0461  1.1074 -0.2196
 6665TIP3    H241411   5.285   3.398  13.630 -0.7354 -1.3389  0.2452
 6666TIP3   OH241412   0.263   5.373   1.681 -0.3241  0.0014  0.4725
 6666TIP3    H141413   0.277   5.467   1.696 -1.2733  0.0613  1.0081
 6666TIP3    H241414   0.313   5.354   1.601  0.4140  0.8182  0.7255
 6667TIP3   OH241415   2.148   2.841   4.303 -0.4488  0.0869 -0.2330
 6667TIP3    H141416   2.233   2.798   4.292  0.7551  2.3893 -0.2748
 6667TIP3    H241417   2.166   2.934   4.284 -3.1268  0.4832 -0.9968
 6668TIP3   OH241418   0.187   5.573  12.524 -0.0638  0.0791  0.6807
 6668TIP3    H141419   0.160   5.552  12.613 -2.5195 -0.2807 -0.1018
 6668TIP3    H241420   0.230   5.658  12.532 -1.3892  0.6526  2.0478
 6669TIP3   OH241421   1.496   0.119  15.536  0.2325  0.2328  0.5852
 6669TIP3    H141422   1.571   0.084  15.584  0.7200  0.5131  0.0253
 6669TIP3    H241423   1.532   0.188  15.481  0.3388 -2.6090 -3.1021
 6670TIP3   OH241424   6.622   1.039   5.707  0.0637  0.1131  0.3765
 6670TIP3    H141425   6.541   1.052   5.756  0.9424 -0.8916  2.1464
 6670TIP3    H241426   6.644   0.947   5.720 -0.7257 -0.7538 -3.6015
 6671TIP3   OH241427   0.420   2.263  13.309 -0.0619 -0.2194  0.5373
 6671TIP3    H141428   0.492   2.244  13.368  1.2106  1.0716 -0.5746
 6671TIP3    H241429   0.445   2.224  13.226  0.5795  2.4122 -0.5660
 6672TIP3   OH241430   2.176   4.903  15.316  0.5485 -0.5118  0.0119
 6672TIP3    H141431   2.118   4.851  15.372  0.0655 -0.2926 -0.2823
 6672TIP3    H241432   2.132   4.988  15.308 -0.4787 -1.2226 -2.4308
 6673TIP3   OH241433   4.362   2.320  13.839 -0.0312 -0.2125 -0.3682
 6673TIP3    H141434   4.331   2.409  13.854  1.0503  0.0778  0.1861
 6673TIP3    H241435   4.403   2.323  13.753  0.7927  0.0443  0.0315
 6674TIP3   OH241436   5.062   6.174  13.786 -0.0905 -0.3618  0.2273
 6674TIP3    H141437   5.140   6.122  13.804  0.8358  0.9207 -0.0245
 6674TIP3    H241438   5.054   6.173  13.690  1.2681  1.8658  0.0712
 6675TIP3   OH241439   0.145   6.206  12.828  0.0688  0.3231  0.2044
 6675TIP3    H141440   0.191   6.238  12.905  1.8402 -0.2812 -0.5686
 6675TIP3    H241441   0.052   6.212  12.850  0.5795 -2.1967  3.3631
 6676TIP3   OH241442   6.759   5.380  16.009 -0.2371 -0.2384  0.7442
 6676TIP3    H141443   6.676   5.417  15.978  0.2379 -0.6752 -1.0607
 6676TIP3    H241444   6.805   5.455  16.048  0.4197  0.9740 -2.2624
 6677TIP3   OH241445   4.970   3.108   1.184  0.0843  0.0001  0.3573
 6677TIP3    H141446   5.036   3.165   1.143  0.7480  0.0500  1.4533
 6677TIP3    H241447   4.969   3.137   1.276  0.9408 -2.2241  1.0854
 6678TIP3   OH241448   2.083   3.685   6.171  0.4756  0.0568 -0.0744
 6678TIP3    H141449   2.106   3.744   6.098  1.8728 -0.5200 -0.1188
 6678TIP3    H241450   1.989   3.697   6.182  0.3844  0.7786 -1.4341
 6679TIP3   OH241451   1.315   1.444   2.996 -0.2714 -0.1970  0.1321
 6679TIP3    H141452   1.345   1.529   2.962 -0.3679 -0.9714 -2.0175
 6679TIP3    H241453   1.388   1.412   3.049  0.6500  0.2584 -0.8353
 6680TIP3   OH241454   6.691   3.972  15.634 -0.2307  0.3012  0.3324
 6680TIP3    H141455   6.744   3.944  15.708  0.0569 -0.4502 -0.1565
 6680TIP3    H241456   6.734   3.934  15.557 -3.0645 -2.7092  0.1396
 6681TIP3   OH241457   3.257   4.616   3.725  0.0829  0.0356  0.2802
 6681TIP3    H141458   3.166   4.620   3.698  0.1192  0.6412  0.2424
 6681TIP3    H241459   3.259   4.655   3.812  0.4861  1.1107 -0.1993
 6682TIP3   OH241460   4.851   5.706   2.984  0.7190 -0.1988  0.1302
 6682TIP3    H141461   4.944   5.705   2.961  0.4461 -1.3416 -0.9662
 6682TIP3    H241462   4.850   5.698   3.079  1.7803  1.3681  0.2955
 6683TIP3   OH241463   2.638   1.353   0.317 -0.0882  0.1294 -0.0250
 6683TIP3    H141464   2.638   1.275   0.372 -0.0793  0.3690  0.3188
 6683TIP3    H241465   2.717   1.400   0.343 -1.2688  1.3768  1.3868
 6684TIP3   OH241466   0.314   5.096  16.107  0.6608  0.0324  0.2095
 6684TIP3    H141467   0.267   5.133  16.032  0.3269  0.2203  0.5101
 6684TIP3    H241468   0.319   5.003  16.088  0.3531  0.0414  0.0755
 6685TIP3   OH241469   0.324   2.449   3.033 -0.4274 -0.1609  0.0002
 6685TIP3    H141470   0.362   2.404   2.958  0.1095 -0.3122  0.3676
 6685TIP3    H241471   0.320   2.541   3.005 -0.5053 -0.2607 -0.3255
 6686TIP3   OH241472   3.068   6.221   3.330 -0.0066 -0.0660 -0.4892
 6686TIP3    H141473   3.091   6.313   3.318 -2.0394  0.5020 -0.1181
 6686TIP3    H241474   3.152   6.178   3.347  0.8778  1.8484  0.1697
 6687TIP3   OH241475   0.928   0.398   2.023 -0.4423  0.3247 -0.0669
 6687TIP3    H141476   0.867   0.455   1.976 -2.2375 -0.8110  0.7810
 6687TIP3    H241477   0.987   0.364   1.956 -2.3155 -0.4849 -1.3413
 6688TIP3   OH241478   5.992   4.038  11.266  0.2251 -0.4638 -0.3279
 6688TIP3    H141479   6.051   4.103  11.227 -0.2908  0.4676  0.4225
 6688TIP3    H241480   5.929   4.019  11.196 -0.2455  0.6417 -0.2228
 6689TIP3   OH241481   1.659   1.774  16.773  0.1750  0.1218 -0.2839
 6689TIP3    H141482   1.702   1.758  16.857  0.3342 -0.4257 -0.4698
 6689TIP3    H241483   1.588   1.835  16.794 -0.9940 -1.5191  0.5937
 6690TIP3   OH241484   1.931   6.044  12.064 -0.6468 -0.3984  0.5075
 6690TIP3    H141485   1.873   6.057  11.988 -0.6800 -0.8286  0.4596
 6690TIP3    H241486   1.871   6.031  12.137 -0.6168  0.5333  0.6990
 6691TIP3   OH241487   3.340   2.867  11.815  0.0117  0.6273 -0.6537
 6691TIP3    H141488   3.380   2.850  11.900  0.6953 -0.2247 -1.1439
 6691TIP3    H241489   3.248   2.842  11.826 -0.3821  2.4252  0.4250
 6692TIP3   OH241490   0.963   0.512   1.383 -0.7768 -0.3153 -0.7363
 6692TIP3    H141491   0.888   0.455   1.403 -1.4906  0.3617 -1.4140
 6692TIP3    H241492   1.024   0.456   1.336 -0.7467 -0.9408  0.0401
 6693TIP3   OH241493   0.525   4.623  16.451  0.2147 -0.5205 -0.0639
 6693TIP3    H141494   0.606   4.626  16.502  1.5548 -0.1489 -2.1355
 6693TIP3    H241495   0.509   4.530  16.437  0.7365 -0.5778 -0.3102
 6694TIP3   OH241496   4.906   5.218   2.779  0.3134 -0.4951 -0.2533
 6694TIP3    H141497   4.828   5.212   2.724 -0.5370  0.1273  0.8645
 6694TIP3    H241498   4.973   5.256   2.722 -0.8095  0.9878 -0.5943
 6695TIP3   OH241499   5.839   3.321  15.466 -0.3806 -0.1108 -0.2209
 6695TIP3    H141500   5.744   3.327  15.456 -0.5760 -0.8314  1.1705
 6695TIP3    H241501   5.866   3.409  15.492 -0.8626 -0.3027  0.9423
 6696TIP3   OH241502   2.993   3.280   4.370  0.3518 -0.6113 -0.1685
 6696TIP3    H141503   2.978   3.370   4.340 -2.6784 -1.1328 -0.3945
 6696TIP3    H241504   3.039   3.290   4.453  0.4443  1.1420 -0.4063
 6697TIP3   OH241505   2.338   1.105  14.170  0.5960 -0.1788 -0.4201
 6697TIP3    H141506   2.423   1.062  14.161  0.5733  0.0380 -1.8795
 6697TIP3    H241507   2.342   1.179  14.110 -0.6892 -0.2782 -0.6570
 6698TIP3   OH241508   6.623   3.603  16.993  0.4185  0.2005 -0.0820
 6698TIP3    H141509   6.561   3.645  17.054 -0.6092 -1.1734 -0.1521
 6698TIP3    H241510   6.608   3.647  16.910 -0.8373 -0.4490 -0.2183
 6699TIP3   OH241511   4.598   0.041   4.380 -0.0366 -0.3017 -0.6361
 6699TIP3    H141512   4.555  -0.036   4.343  0.8467 -0.5863 -1.0984
 6699TIP3    H241513   4.540   0.070   4.451 -0.7270 -0.9656 -0.9237
 6700TIP3   OH241514   1.155   2.943   3.370 -0.3680  0.2927 -0.1111
 6700TIP3    H141515   1.094   2.881   3.330 -0.2705  0.7623 -1.0014
 6700TIP3    H241516   1.117   3.029   3.352  0.5113  0.5865 -0.5931
 6701TIP3   OH241517   1.418   2.501  12.089  0.1543  0.1916 -0.3999
 6701TIP3    H141518   1.325   2.524  12.082 -0.4247 -1.5312  1.2141
 6701TIP3    H241519   1.440   2.461  12.005  0.1123  2.7898 -1.7143
 6702TIP3   OH241520   2.845   0.099  14.234 -0.3904 -0.4854  0.4725
 6702TIP3    H141521   2.763   0.125  14.275 -0.4569 -1.8493  1.2291
 6702TIP3    H241522   2.820   0.063  14.149 -0.3653  1.1710 -0.2494
 6703TIP3   OH241523   0.289   1.187   3.865 -0.3193  0.3319 -0.8929
 6703TIP3    H141524   0.282   1.189   3.961  4.2839 -1.4032 -0.3818
 6703TIP3    H241525   0.235   1.112   3.839 -1.8667  1.0177  0.2722
 6704TIP3   OH241526   2.943   0.878   1.863  0.0040  0.0394 -0.5807
 6704TIP3    H141527   2.870   0.834   1.817  0.4666 -0.0024 -1.2908
 6704TIP3    H241528   2.902   0.918   1.939 -0.5514 -1.0458 -0.2921
 6705TIP3   OH241529   1.798   1.906   1.982 -0.3651  0.3999 -0.1868
 6705TIP3    H141530   1.770   1.844   2.049  0.2377  1.7449  1.3563
 6705TIP3    H241531   1.837   1.852   1.914 -0.3039 -0.9465  0.8890
 6706TIP3   OH241532   3.395   6.308  12.587  0.3128  0.2349 -0.1817
 6706TIP3    H141533   3.361   6.279  12.672  1.0396 -0.9504 -0.2813
 6706TIP3    H241534   3.382   6.233  12.529 -2.1031  1.7545 -1.6810
 6707TIP3   OH241535   2.155   3.668  15.851  0.2169 -0.0919 -0.1621
 6707TIP3    H141536   2.213   3.629  15.917 -1.6594 -0.5645  1.2510
 6707TIP3    H241537   2.095   3.598  15.827  0.0479  0.4652 -1.4174
 6708TIP3   OH241538   5.112   0.247   5.310  0.0146 -0.4098  0.0060
 6708TIP3    H141539   5.074   0.317   5.363  0.5156 -0.0611 -0.0946
 6708TIP3    H241540   5.205   0.248   5.331  0.3939  0.3769 -1.6039
 6709TIP3   OH241541   4.788   3.204  14.401  0.3191 -0.0592  0.2407
 6709TIP3    H141542   4.771   3.167  14.315 -1.0840  2.0572 -0.4302
 6709TIP3    H241543   4.879   3.179  14.420  0.4601 -1.0297 -1.5860
 6710TIP3   OH241544   4.127   5.726  15.377  0.7609  0.0891 -0.2272
 6710TIP3    H141545   4.167   5.642  15.398  0.8993 -0.1333 -1.3429
 6710TIP3    H241546   4.042   5.724  15.419  0.9870 -0.3913  0.2028
 6711TIP3   OH241547   1.349   5.612   4.413  0.1706  0.0308 -0.0188
 6711TIP3    H141548   1.357   5.630   4.319 -1.8044  0.6210 -0.1006
 6711TIP3    H241549   1.267   5.654   4.438  1.0432  0.5169  2.1443
 6712TIP3   OH241550   5.726   1.297   2.128 -0.2520 -0.2975 -0.3769
 6712TIP3    H141551   5.733   1.202   2.119 -2.1990 -0.3905 -1.1106
 6712TIP3    H241552   5.636   1.312   2.156  0.6866  1.1984  2.0590
 6713TIP3   OH241553   6.223   3.536   0.976  0.4143 -0.8142 -0.0911
 6713TIP3    H141554   6.272   3.607   1.018 -0.4970  0.6508 -1.4518
 6713TIP3    H241555   6.152   3.517   1.038 -0.7468  1.1402 -0.7402
 6714TIP3   OH241556   3.001   6.328  10.463 -0.6213 -0.8553 -0.9520
 6714TIP3    H141557   3.018   6.251  10.408 -0.6948 -0.4332 -1.5772
 6714TIP3    H241558   2.907   6.327  10.476 -0.7459 -0.3466 -1.7578
 6715TIP3   OH241559   4.743   5.904   0.678 -0.1449 -0.2355 -0.0745
 6715TIP3    H141560   4.768   5.981   0.628  0.5920 -0.8798 -0.7144
 6715TIP3    H241561   4.814   5.892   0.741  1.4588 -2.3250 -2.1798
 6716TIP3   OH241562   5.923   1.868  16.762  0.0066  0.2685 -0.1396
 6716TIP3    H141563   5.938   1.825  16.847 -0.6601 -1.4119 -0.8512
 6716TIP3    H241564   5.839   1.834  16.732  0.1793  0.9493 -1.4263
 6717TIP3   OH241565   2.232   4.391   1.123 -0.1496  0.0361  0.0495
 6717TIP3    H141566   2.239   4.421   1.032  0.4592  1.7019  0.6155
 6717TIP3    H241567   2.318   4.408   1.160 -0.3275 -0.8518  0.8812
 6718TIP3   OH241568   0.810   5.265  17.191  0.2022  0.2224 -0.3217
 6718TIP3    H141569   0.841   5.307  17.111 -0.7075  0.3835 -0.5964
 6718TIP3    H241570   0.862   5.304  17.261  2.4883 -1.4591 -1.0574
 6719TIP3   OH241571   1.529   1.344  12.415 -0.2186 -0.0613  0.3173
 6719TIP3    H141572   1.598   1.278  12.423  0.5818  0.6429 -0.6208
 6719TIP3    H241573   1.543   1.402  12.491 -0.0322 -0.1625  0.3621
 6720TIP3   OH241574   0.038   6.135   0.828 -0.1932  0.1928 -0.9451
 6720TIP3    H141575   0.083   6.058   0.792 -0.9438  0.3832 -2.3200
 6720TIP3    H241576  -0.043   6.099   0.865  0.5033  0.0204  0.4554
 6721TIP3   OH241577   6.194   1.740  14.519 -0.1647 -0.3941 -0.2617
 6721TIP3    H141578   6.198   1.783  14.433 -2.2695  2.9452  1.2063
 6721TIP3    H241579   6.155   1.654  14.501  2.0415 -0.8842 -2.9779
 6722TIP3   OH241580   6.140   4.131  10.637  0.0359 -0.1767  0.2084
 6722TIP3    H141581   6.070   4.101  10.695 -0.6041 -2.0635 -1.4780
 6722TIP3    H241582   6.125   4.225  10.628 -2.9964 -0.7229 -1.0034
 6723TIP3   OH241583   4.102   4.105   2.254  0.0566  0.1530  0.2952
 6723TIP3    H141584   4.195   4.124   2.266 -0.0784  2.3131 -1.7317
 6723TIP3    H241585   4.069   4.178   2.201 -2.1397 -2.1045 -1.5600
 6724TIP3   OH241586   4.044   2.307   3.901 -0.1217 -0.2044 -0.1701
 6724TIP3    H141587   4.037   2.383   3.844  0.8935 -1.2414 -1.7399
 6724TIP3    H241588   3.958   2.298   3.942 -0.8236  0.6572 -1.4338
 6725TIP3   OH241589   3.449   2.249  17.179 -0.2000  0.0440 -0.3580
 6725TIP3    H141590   3.543   2.235  17.193  0.0921  1.8108 -0.4493
 6725TIP3    H241591   3.418   2.286  17.262 -0.4574  1.1463 -0.9401
 6726TIP3   OH241592   0.145   3.895  12.170  0.3629 -0.5852 -0.3641
 6726TIP3    H141593   0.185   3.977  12.199  1.1636 -1.0187 -0.2058
 6726TIP3    H241594   0.104   3.916  12.086  0.6022 -0.0296 -0.3432
 6727TIP3   OH241595   0.529   0.893   3.547  0.2262 -0.2983  0.7685
 6727TIP3    H141596   0.503   0.983   3.530  0.3153 -0.4905 -0.4808
 6727TIP3    H241597   0.624   0.897   3.560  0.3465 -0.3073 -0.0671
 6728TIP3   OH241598   3.459   1.488   6.212  0.1210 -0.1850  0.0334
 6728TIP3    H141599   3.405   1.464   6.287 -0.8793  0.4377 -0.4846
 6728TIP3    H241600   3.399   1.531   6.152  0.9953 -0.3546 -0.9693
 6729TIP3   OH241601   3.916   1.556  15.195  0.3054 -0.2764  1.2647
 6729TIP3    H141602   3.935   1.636  15.147  2.4909 -1.6626 -0.2799
 6729TIP3    H241603   3.991   1.544  15.253 -0.0489 -1.1445  1.5532
 6730TIP3   OH241604   6.485   0.325   1.659  0.3511  0.0301  0.4346
 6730TIP3    H141605   6.487   0.347   1.566 -1.2096 -3.9131 -0.6105
 6730TIP3    H241606   6.577   0.331   1.687  1.0614 -0.3281 -1.7559
 6731TIP3   OH241607   1.208   1.446   0.455 -0.1787  0.1060  0.3584
 6731TIP3    H141608   1.167   1.532   0.461  1.0069  0.5665  2.2028
 6731TIP3    H241609   1.254   1.448   0.370  0.4138  1.5630  0.6986
 6732TIP3   OH241610   3.944   4.348  14.708 -0.0189  0.1235  0.2303
 6732TIP3    H141611   3.940   4.265  14.756 -0.2727 -0.7222 -1.2261
 6732TIP3    H241612   4.021   4.392  14.743  0.5675 -1.0664  0.4772
 6733TIP3   OH241613   4.178   6.781  16.605 -0.2919 -0.0626  0.2387
 6733TIP3    H141614   4.192   6.687  16.595  1.6548  0.2676 -0.2393
 6733TIP3    H241615   4.083   6.791  16.599 -0.5690 -2.0410  0.7390
 6734TIP3   OH241616   3.592   1.693  14.804  0.0322 -0.7776 -0.1042
 6734TIP3    H141617   3.623   1.770  14.851 -1.0890 -1.6921  2.2021
 6734TIP3    H241618   3.666   1.633  14.804  0.4673 -0.2514 -0.7231
 6735TIP3   OH241619   3.139   3.171  15.671  0.4154 -0.6230  0.1646
 6735TIP3    H141620   3.225   3.208  15.692  0.3029 -0.4595  0.3336
 6735TIP3    H241621   3.105   3.227  15.602 -0.4900  0.6220  1.5955
 6736TIP3   OH241622   5.611   4.525  11.422 -0.1092 -0.2007  0.1331
 6736TIP3    H141623   5.590   4.602  11.475  2.3707  0.2757  0.4902
 6736TIP3    H241624   5.575   4.545  11.335  1.3891  1.8299 -0.0528
 6737TIP3   OH241625   4.401   0.708  12.128  0.3269  0.6039  0.0734
 6737TIP3    H141626   4.312   0.699  12.093 -0.1634 -0.4110  1.5443
 6737TIP3    H241627   4.454   0.650  12.073 -0.3544 -0.6354  0.6987
 6738TIP3   OH241628   0.707   3.583  16.532 -0.2594 -0.0374 -0.7223
 6738TIP3    H141629   0.638   3.556  16.471  0.8588 -1.9091 -1.1864
 6738TIP3    H241630   0.755   3.503  16.551 -0.9469  0.3806  3.1548
 6739TIP3   OH241631   1.868   3.566  12.079 -0.1377 -0.4838  0.2995
 6739TIP3    H141632   1.960   3.565  12.054 -0.1492  0.9104  0.1700
 6739TIP3    H241633   1.851   3.656  12.107 -1.4109 -0.7723  0.5106
 6740TIP3   OH241634   3.595   1.695   3.084  0.2353  0.2626  0.2734
 6740TIP3    H141635   3.671   1.748   3.108  0.4754  0.1849 -0.2868
 6740TIP3    H241636   3.628   1.635   3.017 -0.1621 -0.2291  0.5152
 6741TIP3   OH241637   4.930   1.222  12.446 -0.3952  0.3604  0.0991
 6741TIP3    H141638   4.957   1.137  12.480 -0.5013  1.2772  2.5249
 6741TIP3    H241639   4.876   1.201  12.370  1.5627 -1.6556 -0.7950
 6742TIP3   OH241640   3.492   0.901   2.721 -0.1815  0.2394 -0.1244
 6742TIP3    H141641   3.429   0.967   2.691 -0.3715 -0.1262 -0.5427
 6742TIP3    H241642   3.512   0.927   2.811 -0.2125  0.8985 -0.2994
 6743TIP3   OH241643   0.414   4.853  12.997 -0.2691 -0.7011 -0.3422
 6743TIP3    H141644   0.355   4.779  12.983 -1.4844  0.3087 -0.7054
 6743TIP3    H241645   0.355   4.926  13.018  0.8590  0.3368 -0.7640
 6744TIP3   OH241646   1.503   4.524   5.712 -0.3557  0.1994  0.0053
 6744TIP3    H141647   1.433   4.584   5.737 -0.3688  0.6212 -1.0369
 6744TIP3    H241648   1.558   4.518   5.790  0.5726  2.8363 -0.4112
 6745TIP3   OH241649   3.883   4.797   5.161  0.1593  0.1806  0.0524
 6745TIP3    H141650   3.972   4.829   5.179  0.8876 -1.1083 -1.1540
 6745TIP3    H241651   3.890   4.757   5.074 -1.2540 -1.3046  0.6194
 6746TIP3   OH241652   4.123   0.526   3.821  0.2485 -0.0513  0.4662
 6746TIP3    H141653   4.178   0.449   3.809  0.1482 -0.1114  0.3917
 6746TIP3    H241654   4.106   0.558   3.732  1.4265  0.8575  0.5528
 6747TIP3   OH241655   5.310   1.940  16.472  0.1112  0.0121 -0.3554
 6747TIP3    H141656   5.272   1.935  16.384 -5.1668  1.1046  1.6794
 6747TIP3    H241657   5.293   2.030  16.500 -0.1678 -0.8916  2.5372
 6748TIP3   OH241658   1.226   0.465   4.918  0.4404  0.1702  0.2100
 6748TIP3    H141659   1.265   0.551   4.904  1.0868 -0.3455 -1.2390
 6748TIP3    H241660   1.141   0.483   4.959  0.4956  1.5091 -0.2640
 6749TIP3   OH241661   4.664   2.608   3.280 -0.2401  0.0913  0.1865
 6749TIP3    H141662   4.654   2.595   3.185 -1.5904 -0.7564  0.4255
 6749TIP3    H241663   4.620   2.691   3.297 -1.1914 -0.4178  0.2582
 6750TIP3   OH241664   0.913   3.665   5.819 -0.4205  0.0623  0.0294
 6750TIP3    H141665   0.857   3.687   5.894 -2.7203  1.5666 -2.0431
 6750TIP3    H241666   0.866   3.596   5.773  0.5796 -0.3069 -0.4562
 6751TIP3   OH241667   2.093   5.092  14.919 -0.4806  0.4055  0.0844
 6751TIP3    H141668   2.161   5.109  14.984  0.1988  2.6843 -1.1721
 6751TIP3    H241669   2.021   5.052  14.968  0.5071  0.9413  1.9912
 6752TIP3   OH241670   2.425   6.330  17.012 -0.4274 -0.5694 -0.1852
 6752TIP3    H141671   2.391   6.325  16.923  0.1252  0.9679 -0.4995
 6752TIP3    H241672   2.514   6.296  17.006 -1.6542 -4.1437  0.5467
 6753TIP3   OH241673   3.407   4.562  13.716  0.0404 -0.6620  0.3357
 6753TIP3    H141674   3.355   4.582  13.794 -1.4894 -0.3468 -0.7318
 6753TIP3    H241675   3.402   4.642  13.663  0.0881 -1.2801 -0.6079
 6754TIP3   OH241676   1.376   3.046   5.333 -0.2748  0.4739  0.1054
 6754TIP3    H141677   1.466   3.027   5.308  0.0478  0.9759  0.8815
 6754TIP3    H241678   1.383   3.085   5.420 -1.1776  1.3084 -0.1977
 6755TIP3   OH241679   2.464   2.765  10.743 -0.7800 -0.1699 -0.1018
 6755TIP3    H141680   2.434   2.761  10.653  1.5642 -2.1881 -0.8221
 6755TIP3    H241681   2.417   2.694  10.787 -0.2192 -0.6348 -0.2560
 6756TIP3   OH241682   3.015   2.240  17.209  0.2010  0.7374 -0.0658
 6756TIP3    H141683   3.022   2.258  17.115 -1.4697 -0.8352 -0.5190
 6756TIP3    H241684   2.987   2.149  17.214  1.2962  0.4790  1.9993
 6757TIP3   OH241685   5.938   6.412   3.262 -0.0946 -0.1113  0.0582
 6757TIP3    H141686   5.988   6.339   3.225 -0.8864  0.4880 -2.2865
 6757TIP3    H241687   5.965   6.416   3.354  0.7041 -2.7110 -0.0315
 6758TIP3   OH241688   0.636   3.789  11.881 -0.6546 -0.8944  0.1090
 6758TIP3    H141689   0.560   3.810  11.935 -1.2181 -2.2211 -0.1510
 6758TIP3    H241690   0.605   3.798  11.791  0.4388  1.8803 -0.0394
 6759TIP3   OH241691   3.709   4.289  16.360  0.2772 -0.5045 -0.0564
 6759TIP3    H141692   3.784   4.287  16.420  1.2177 -0.7451 -1.2301
 6759TIP3    H241693   3.748   4.303  16.273 -1.0987  0.1961 -0.5700
 6760TIP3   OH241694   5.980   6.441   1.003 -0.1439  0.2689  0.2654
 6760TIP3    H141695   6.075   6.448   1.012 -0.0080 -0.4209 -0.5682
 6760TIP3    H241696   5.948   6.419   1.090  0.5781 -0.6462  0.3029
 6761TIP3   OH241697   1.561   3.981   3.634  0.0819  0.0371  0.2730
 6761TIP3    H141698   1.550   3.946   3.546 -0.0840 -0.5237  0.5085
 6761TIP3    H241699   1.491   3.940   3.685  0.9206 -0.5970  0.9316
 6762TIP3   OH241700   2.283   5.621  12.238 -0.0179  0.2843 -0.0630
 6762TIP3    H141701   2.277   5.683  12.310  1.0257 -0.2503  0.4921
 6762TIP3    H241702   2.325   5.544  12.275 -0.5795 -0.4675 -0.9431
 6763TIP3   OH241703   2.186   5.970   0.946  0.1294 -0.0558  0.1547
 6763TIP3    H141704   2.135   6.015   0.879 -2.3043 -0.2537  1.8043
 6763TIP3    H241705   2.199   6.035   1.014 -1.7727 -1.2186  1.6971
 6764TIP3   OH241706   0.627   6.350   2.650 -0.0706 -0.4848 -0.2708
 6764TIP3    H141707   0.670   6.308   2.725 -0.4940 -0.2818  0.0944
 6764TIP3    H241708   0.533   6.334   2.664 -0.1344 -0.6694 -0.8986
 6765TIP3   OH241709   0.060   2.339   5.036  0.5525 -0.4478  0.0888
 6765TIP3    H141710   0.122   2.379   4.976 -1.5584  2.2450 -0.3782
 6765TIP3    H241711  -0.026   2.361   5.000 -0.7219 -1.5929  2.3090
 6766TIP3   OH241712   1.693   0.408  12.821 -0.1520 -0.2024  0.1248
 6766TIP3    H141713   1.758   0.340  12.805  1.0722  1.3506 -1.7098
 6766TIP3    H241714   1.692   0.460  12.741 -2.2474  0.9906  0.8668
 6767TIP3   OH241715   3.116   4.179  15.486 -0.5034  0.5707 -0.0237
 6767TIP3    H141716   3.163   4.110  15.438 -0.2620  0.6002  0.1697
 6767TIP3    H241717   3.053   4.213  15.423  0.9141  1.7166 -0.8492
 6768TIP3   OH241718   5.737   2.746   6.292  0.2143 -0.0270  0.0103
 6768TIP3    H141719   5.658   2.787   6.327 -0.1789 -0.2111 -0.6443
 6768TIP3    H241720   5.711   2.715   6.205  0.4957 -1.6485  0.4893
 6769TIP3   OH241721   4.864   5.747   4.785  0.1298 -0.5795  0.2797
 6769TIP3    H141722   4.771   5.724   4.783 -0.0899  0.1010  1.8792
 6769TIP3    H241723   4.867   5.840   4.762  0.7206 -1.3281 -2.8973
 6770TIP3   OH241724   3.906   0.815   3.537 -0.7763  0.4702 -0.5786
 6770TIP3    H141725   3.814   0.832   3.517 -0.7901  1.4468  0.2605
 6770TIP3    H241726   3.948   0.901   3.534  0.4727 -0.1708 -2.6546
 6771TIP3   OH241727   4.014   5.064  15.884 -0.0498  0.4878  0.4152
 6771TIP3    H141728   4.073   5.035  15.954 -0.9385 -3.1153 -0.2023
 6771TIP3    H241729   4.052   5.026  15.805 -2.6747 -1.1618 -0.0974
 6772TIP3   OH241730   3.285   2.624   4.630  0.3139 -0.1525  0.6578
 6772TIP3    H141731   3.333   2.656   4.554  0.5256 -0.1708  0.7834
 6772TIP3    H241732   3.342   2.556   4.667  1.2042  1.3329  2.0881
 6773TIP3   OH241733   2.258   0.907  14.370  0.7168  0.1504 -0.6165
 6773TIP3    H141734   2.178   0.870  14.331  1.0346  0.2803 -1.3962
 6773TIP3    H241735   2.299   0.956  14.299  1.5387  0.0137 -0.2402
 6774TIP3   OH241736   4.988   0.027  11.773 -0.2901  0.0846 -0.3815
 6774TIP3    H141737   5.004  -0.024  11.852 -0.9721  0.2863 -0.1109
 6774TIP3    H241738   4.971  -0.039  11.705 -1.5503 -0.0409  0.0515
 6775TIP3   OH241739   6.652   1.329  13.693  0.1251 -0.1452 -0.0261
 6775TIP3    H141740   6.581   1.289  13.642  0.1762  0.0064 -0.2195
 6775TIP3    H241741   6.698   1.255  13.732  0.1368 -0.2672 -0.2713
 6776TIP3   OH241742   5.541   5.826   3.938  0.0773 -0.5936  0.1116
 6776TIP3    H141743   5.604   5.888   3.975  1.3239 -0.3329 -2.3088
 6776TIP3    H241744   5.550   5.748   3.992  1.0295  0.1385  1.0415
 6777TIP3   OH241745   3.987   1.378  14.405 -0.2880 -0.2837  0.2443
 6777TIP3    H141746   3.906   1.334  14.428  0.2779 -1.5281 -0.1195
 6777TIP3    H241747   4.020   1.412  14.488 -0.4074 -1.0878  0.6202
 6778TIP3   OH241748   1.789   4.541   0.721  0.6186  0.3520  0.1894
 6778TIP3    H141749   1.861   4.568   0.663 -0.7756  2.6297 -0.5235
 6778TIP3    H241750   1.746   4.470   0.674  0.2157  1.4019 -1.0594
 6779TIP3   OH241751   0.877   4.029  11.821 -0.0664 -0.1197  0.4108
 6779TIP3    H141752   0.878   4.092  11.893  0.5632  0.3990 -0.0499
 6779TIP3    H241753   0.816   4.067  11.758  0.9530  0.4595 -0.2421
 6780TIP3   OH241754   1.041   2.429  15.076  0.0809  0.0945 -0.0019
 6780TIP3    H141755   1.034   2.386  15.161 -3.2689  0.3778 -0.0337
 6780TIP3    H241756   1.018   2.360  15.013 -2.0092  0.9945 -0.2820
 6781TIP3   OH241757   2.254   3.409   1.266  0.4835  0.0052 -0.0277
 6781TIP3    H141758   2.310   3.333   1.280 -0.1486 -0.7594 -1.4909
 6781TIP3    H241759   2.165   3.373   1.261  0.1020  0.9232 -0.0928
 6782TIP3   OH241760   0.998   1.010   4.874 -0.1184  0.2982  0.1448
 6782TIP3    H141761   1.004   1.069   4.799  1.2025  1.5584  1.2269
 6782TIP3    H241762   0.932   1.049   4.930  0.3122  0.4133  0.5727
 6783TIP3   OH241763   6.437   6.549   1.227  0.2379  0.6011  0.1377
 6783TIP3    H141764   6.463   6.471   1.277  0.9865  0.7154 -0.0697
 6783TIP3    H241765   6.423   6.616   1.294 -0.6518  0.2277  0.3380
 6784TIP3   OH241766   0.410   2.398  12.512  0.1100  0.3107 -0.4454
 6784TIP3    H141767   0.337   2.370  12.568  1.1487 -0.3702  0.6092
 6784TIP3    H241768   0.487   2.361  12.554  0.9721  0.1736 -2.0990
 6785TIP3   OH241769   6.570   3.166  15.096 -0.0919  1.0453  0.1868
 6785TIP3    H141770   6.664   3.156  15.079 -0.5140  0.6258 -2.0174
 6785TIP3    H241771   6.528   3.109  15.032 -1.8687  1.7265  0.7328
 6786TIP3   OH241772   2.546   0.642   2.354 -0.4220  0.7062 -0.8930
 6786TIP3    H141773   2.550   0.627   2.448 -2.4542 -0.1623 -0.9327
 6786TIP3    H241774   2.535   0.736   2.345  0.0058  0.8203 -0.2792
 6787TIP3   OH241775   0.095   2.026  15.895  0.7099 -0.0593 -0.5883
 6787TIP3    H141776   0.048   1.948  15.867  0.7316 -0.3426  0.1571
 6787TIP3    H241777   0.178   2.024  15.847  1.5111 -1.4792  0.8323
 6788TIP3   OH241778   0.997   3.514   3.525 -0.4035  0.0318 -0.3367
 6788TIP3    H141779   0.938   3.508   3.450  0.5323 -2.1159 -0.9405
 6788TIP3    H241780   0.990   3.429   3.568  0.9002  0.3905  0.6102
 6789TIP3   OH241781   0.874   2.291   0.897  0.3348  0.1815  0.6225
 6789TIP3    H141782   0.938   2.361   0.884 -0.7888  1.0653 -0.2864
 6789TIP3    H241783   0.801   2.314   0.840 -1.3713 -0.1087  2.6190
 6790TIP3   OH241784   0.143   5.463   4.375 -0.1688  0.0986  0.2395
 6790TIP3    H141785   0.076   5.527   4.352 -0.5738 -0.1427  0.7458
 6790TIP3    H241786   0.224   5.514   4.377 -0.4153  0.4968  0.1347
 6791TIP3   OH241787   3.505   1.894   0.696  0.8527 -0.5164  0.1196
 6791TIP3    H141788   3.594   1.887   0.731  1.3973  2.6750 -0.4875
 6791TIP3    H241789   3.516   1.894   0.601 -0.0510 -2.5898 -0.0127
 6792TIP3   OH241790   4.904   2.108   0.682  0.4490 -0.2565 -0.2293
 6792TIP3    H141791   4.991   2.067   0.681  0.5801  0.0075 -2.8971
 6792TIP3    H241792   4.921   2.199   0.708  0.7390 -0.6959  1.1162
 6793TIP3   OH241793   6.046   5.973  16.263  0.1785 -0.6617 -0.6827
 6793TIP3    H141794   6.074   6.004  16.177  0.0128  1.0482 -0.1462
 6793TIP3    H241795   6.118   5.917  16.292  1.8262  1.4370 -0.5120
 6794TIP3   OH241796   0.779   4.479  17.058  0.3293  0.6139 -0.6608
 6794TIP3    H141797   0.819   4.564  17.040  2.9367 -0.1737  1.1213
 6794TIP3    H241798   0.852   4.424  17.087 -1.7070 -1.5213  0.5561
 6795TIP3   OH241799   5.033   6.618  16.872  0.3197  0.8650 -0.1776
 6795TIP3    H141800   5.047   6.707  16.905  0.8885  0.6896  0.0661
 6795TIP3    H241801   5.056   6.623  16.779  0.2942  0.9885 -0.1771
 6796TIP3   OH241802   1.873   3.688  14.274 -0.3729  0.7871 -0.2942
 6796TIP3    H141803   1.954   3.641  14.254 -0.2303  1.4745 -1.3819
 6796TIP3    H241804   1.897   3.753  14.339 -0.3462  0.0962  0.4027
 6797TIP3   OH241805   6.137   3.875  15.596  0.0093 -0.1215 -0.8618
 6797TIP3    H141806   6.186   3.890  15.677 -0.6559 -1.2822 -0.2112
 6797TIP3    H241807   6.048   3.905  15.617  0.0126  0.2526 -1.4006
 6798TIP3   OH241808   1.390   4.176   5.236  0.3443  0.1418 -0.2447
 6798TIP3    H141809   1.449   4.240   5.198  0.5580  0.7938  1.1421
 6798TIP3    H241810   1.307   4.187   5.189  0.8594  0.3032 -1.1177
 6799TIP3   OH241811   4.543   3.673   5.380  0.5803  0.2428  0.0960
 6799TIP3    H141812   4.610   3.737   5.356 -0.0849  0.2489 -1.8120
 6799TIP3    H241813   4.587   3.588   5.369  0.3244  0.2511 -1.0591
 6800TIP3   OH241814   4.029   5.663  12.542  0.7857  0.2823 -0.2438
 6800TIP3    H141815   3.940   5.684  12.513  0.6933  2.7871  1.7390
 6800TIP3    H241816   4.020   5.578  12.587 -0.8153  0.9907  0.8179
 6801TIP3   OH241817   2.056   0.510   3.723 -0.0613  0.4757  0.1526
 6801TIP3    H141818   2.143   0.499   3.763  0.0410 -0.1454 -0.2382
 6801TIP3    H241819   2.065   0.471   3.636 -0.3226  1.7120 -0.4376
 6802TIP3   OH241820   1.178   3.861   5.085  0.3198  0.2575 -0.5192
 6802TIP3    H141821   1.244   3.868   5.016  0.2457  0.8921 -0.5266
 6802TIP3    H241822   1.227   3.873   5.166  0.5212 -1.1827 -0.4157
 6803TIP3   OH241823   5.057   5.351   0.020  0.7309 -0.1142  0.4806
 6803TIP3    H141824   4.970   5.356   0.058 -0.4720 -0.2538 -2.1129
 6803TIP3    H241825   5.117   5.359   0.094 -1.4743  0.1188  2.2803
 6804TIP3   OH241826   3.186   0.624  14.573 -0.6172 -0.0811  0.1933
 6804TIP3    H141827   3.168   0.699  14.630 -0.8323 -0.3997  0.5448
 6804TIP3    H241828   3.263   0.650  14.522 -0.0970 -0.0154  1.0141
 6805TIP3   OH241829   1.516   4.894  16.866 -0.3263 -0.1858 -0.0755
 6805TIP3    H141830   1.518   4.924  16.775  3.0929  1.8643  0.6152
 6805TIP3    H241831   1.438   4.935  16.903  0.7455  2.7254 -0.8915
 6806TIP3   OH241832   5.919   3.933  15.096 -0.6031  0.0714 -0.6365
 6806TIP3    H141833   5.897   4.014  15.052 -0.3892 -0.2721 -1.3856
 6806TIP3    H241834   5.963   3.880  15.029 -1.1741 -0.8493 -0.2968
 6807TIP3   OH241835   4.644   6.000   6.000  0.3043  0.1916 -0.2573
 6807TIP3    H141836   4.729   5.991   5.958  0.7547 -1.0515  0.8708
 6807TIP3    H241837   4.590   6.048   5.937  0.9534 -1.6002 -2.2237
 6808TIP3   OH241838   1.512   3.180   0.484  0.0736  0.2113  0.1971
 6808TIP3    H141839   1.595   3.159   0.527 -0.4971  1.2309  1.8417
 6808TIP3    H241840   1.530   3.167   0.391  1.2520 -2.3466  0.7256
 6809TIP3   OH241841   1.141   5.047   3.120 -0.1502  0.2288 -0.6372
 6809TIP3    H141842   1.191   4.993   3.181  0.1113  0.2931 -0.7970
 6809TIP3    H241843   1.134   4.994   3.041  2.8195  1.6621 -1.9388
 6810TIP3   OH241844   4.691   2.554  14.019  0.6014  0.2981  0.4747
 6810TIP3    H141845   4.721   2.469  13.986 -0.8726 -0.0879  0.0901
 6810TIP3    H241846   4.628   2.584  13.954 -1.7591 -0.1101  2.5002
 6811TIP3   OH241847   5.753   1.296  14.754 -0.0595 -0.2313 -0.1899
 6811TIP3    H141848   5.798   1.352  14.817 -0.7206 -1.7049  1.6123
 6811TIP3    H241849   5.753   1.347  14.673  1.3209  1.4343  0.8297
 6812TIP3   OH241850   4.129   3.880  16.175 -0.1557  0.0871  0.1787
 6812TIP3    H141851   4.216   3.915  16.194  0.0020 -0.2515  0.0783
 6812TIP3    H241852   4.130   3.792  16.211 -0.3342 -0.0501 -0.1491
 6813TIP3   OH241853   5.716   5.635   3.248  0.4393  0.2576  0.1864
 6813TIP3    H141854   5.720   5.731   3.249 -0.4592  0.3116 -0.5495
 6813TIP3    H241855   5.763   5.611   3.168 -1.7229  0.2341 -1.1216
 6814TIP3   OH241856   1.954   1.132  13.881 -0.0665  0.1088  0.0826
 6814TIP3    H141857   2.036   1.082  13.885  1.7288  2.7616 -2.0347
 6814TIP3    H241858   1.907   1.096  13.806  0.0440 -0.1726  0.1506
 6815TIP3   OH241859   2.241   0.943  16.272 -0.3538  0.1162  0.3743
 6815TIP3    H141860   2.329   0.911  16.253 -0.7830 -0.7010 -0.2807
 6815TIP3    H241861   2.252   1.003  16.346  0.4820 -1.4330  1.5204
 6816TIP3   OH241862   5.820   2.508   4.398 -0.0308  0.2895 -0.1592
 6816TIP3    H141863   5.753   2.443   4.377  1.0335 -0.9984  0.3770
 6816TIP3    H241864   5.798   2.536   4.487 -0.2068  0.3058 -0.2078
 6817TIP3   OH241865   2.084   5.467  16.533  0.3925 -0.4623  0.2846
 6817TIP3    H141866   2.077   5.372  16.524  0.2708 -0.3648 -0.6673
 6817TIP3    H241867   2.173   5.481  16.565  1.1486 -0.7747 -1.6148
 6818TIP3   OH241868   1.970   4.419   4.245  0.3137 -0.3464 -0.0429
 6818TIP3    H141869   1.903   4.413   4.178  0.4745  0.5473 -0.2872
 6818TIP3    H241870   1.966   4.335   4.291 -0.2623 -0.6918 -0.7218
 6819TIP3   OH241871   1.983   0.991  11.992  0.0896 -0.3483  0.6826
 6819TIP3    H141872   1.937   0.931  12.051 -1.2893 -1.8546 -1.8079
 6819TIP3    H241873   2.035   0.933  11.935  1.1439  1.0272  0.2133
 6820TIP3   OH241874   1.839   5.436   0.056 -0.2346  0.0605  0.0098
 6820TIP3    H141875   1.852   5.344   0.079 -2.1766 -0.7771 -2.0258
 6820TIP3    H241876   1.772   5.467   0.116  1.7480  0.7092  1.9364
 6821TIP3   OH241877   2.906   4.675  12.971  0.1923 -0.1616 -0.1045
 6821TIP3    H141878   2.926   4.602  12.913 -1.9219 -1.2563  0.5082
 6821TIP3    H241879   2.813   4.692  12.958  0.2694  1.2657  1.0724
 6822TIP3   OH241880   2.282   5.627  11.944 -0.1479  0.9079 -0.1520
 6822TIP3    H141881   2.271   5.607  12.038  0.3625  3.7283  0.5379
 6822TIP3    H241882   2.272   5.722  11.938  1.1213  0.9154 -2.8003
 6823TIP3   OH241883   0.101   6.408   2.625  0.0810 -0.4795 -0.5443
 6823TIP3    H141884   0.162   6.428   2.696 -1.9226  0.1001  1.0636
 6823TIP3    H241885   0.025   6.370   2.669 -0.9102 -0.7565 -2.4510
 6824TIP3   OH241886   1.167   2.965   1.440 -0.8649 -0.2771 -0.2273
 6824TIP3    H141887   1.138   3.013   1.518 -1.1166  0.9564 -1.0569
 6824TIP3    H241888   1.233   2.905   1.472  2.3139  3.3207  0.2922
 6825TIP3   OH241889   4.688   6.010   2.255 -0.2957  0.1596  0.1611
 6825TIP3    H141890   4.693   5.967   2.169 -1.2478  0.1976  0.0771
 6825TIP3    H241891   4.772   5.990   2.296  0.6573  1.1744 -1.2516
 6826TIP3   OH241892   5.413   4.808  12.233  0.3026  0.2694 -0.1228
 6826TIP3    H141893   5.344   4.769  12.180  0.2817  0.1476 -0.0091
 6826TIP3    H241894   5.374   4.887  12.270 -0.6439 -1.1287  2.0123
 6827TIP3   OH241895   0.774   4.925   0.641 -0.1095 -0.1002 -0.4126
 6827TIP3    H141896   0.770   4.853   0.704  0.5948 -0.3507 -0.6448
 6827TIP3    H241897   0.691   4.921   0.594 -1.7509  1.6537  2.1776
 6828TIP3   OH241898   3.411   2.909  11.249  0.4978  0.4198 -0.2687
 6828TIP3    H141899   3.461   2.899  11.168 -1.7427  3.3884 -2.1454
 6828TIP3    H241900   3.321   2.926  11.220 -0.6262  0.2650  2.8888
 6829TIP3   OH241901   1.571   6.731   2.053 -0.1337 -0.1073 -0.2681
 6829TIP3    H141902   1.577   6.818   2.092 -1.3573  0.7352 -1.8806
 6829TIP3    H241903   1.629   6.676   2.106  1.9179  2.0441 -0.2405
 6830TIP3   OH241904   1.909   3.855  14.463 -0.3523  0.4044 -0.2334
 6830TIP3    H141905   1.829   3.903  14.486  0.1664  0.8950  0.5863
 6830TIP3    H241906   1.980   3.908  14.500  0.3458 -0.0761 -0.8735
 6831TIP3   OH241907   4.437   4.392  15.353  0.6852 -0.0220 -0.2517
 6831TIP3    H141908   4.375   4.457  15.322  1.2285  0.4294 -0.3970
 6831TIP3    H241909   4.519   4.413  15.309  1.2746  0.1712  0.9086
 6832TIP3   OH241910   4.008   1.976  13.560 -0.2051  0.1331  0.7301
 6832TIP3    H141911   4.053   2.055  13.591  0.8231 -0.0089 -0.3318
 6832TIP3    H241912   4.020   1.912  13.630  1.1238  0.1602  0.5547
 6833TIP3   OH241913   2.476   2.731  16.946 -0.8389  0.2194  0.5840
 6833TIP3    H141914   2.540   2.767  17.007 -1.7970  0.4743  1.4458
 6833TIP3    H241915   2.524   2.662  16.899 -0.0273  0.1994  1.4338
 6834TIP3   OH241916   6.215   5.442  16.035 -0.5058 -0.0705 -0.6912
 6834TIP3    H141917   6.202   5.415  16.126 -2.2597 -1.5974 -1.3543
 6834TIP3    H241918   6.149   5.510  16.021  0.0454  0.4657 -0.7121
 6835TIP3   OH241919   6.477   5.450  15.474 -0.3210 -0.4278  0.2290
 6835TIP3    H141920   6.464   5.538  15.438 -0.0545  0.3294  1.9569
 6835TIP3    H241921   6.407   5.440  15.539 -0.9565 -1.8847 -0.6557
 6836TIP3   OH241922   2.559   6.238   3.423 -0.2848 -0.3054 -0.0582
 6836TIP3    H141923   2.558   6.167   3.358 -0.1057 -1.0069  0.7013
 6836TIP3    H241924   2.604   6.310   3.379 -1.4536 -0.2745 -1.2444
 6837TIP3   OH241925   0.941   6.292   6.180 -0.0069 -0.6171 -0.2785
 6837TIP3    H141926   1.018   6.283   6.236 -0.1658 -1.3611 -0.1701
 6837TIP3    H241927   0.886   6.217   6.203  0.3506 -1.4744 -2.0904
 6838TIP3   OH241928   2.599   3.569  14.975  1.2057 -0.2372 -0.1315
 6838TIP3    H141929   2.632   3.552  15.063  1.2657 -3.0635 -0.6580
 6838TIP3    H241930   2.662   3.630  14.936 -0.5933  3.8237  2.8580
 6839TIP3   OH241931   1.870   3.487   6.690 -0.1809 -0.5767  0.5583
 6839TIP3    H141932   1.821   3.423   6.638 -0.3673  0.4746 -0.6032
 6839TIP3    H241933   1.919   3.537   6.625 -2.9052  2.9018  1.0660
 6840TIP3   OH241934   3.445   6.374  12.275 -0.2858 -0.0359 -0.1029
 6840TIP3    H141935   3.424   6.467  12.281  1.8860  0.5119 -0.6081
 6840TIP3    H241936   3.368   6.330  12.312 -2.3949  1.8340 -2.0450
 6841TIP3   OH241937   5.013   1.435  14.635  0.2210 -0.5565 -0.7584
 6841TIP3    H141938   5.011   1.465  14.726 -0.7748  0.7919 -1.1974
 6841TIP3    H241939   5.105   1.439  14.610  0.3471  0.2813 -0.1861
 6842TIP3   OH241940   0.929   3.896   4.387  0.3245  0.2747 -0.8229
 6842TIP3    H141941   0.989   3.967   4.367  2.0710 -1.2172 -0.9543
 6842TIP3    H241942   0.847   3.940   4.411  1.4037  2.3131 -0.7970
 6843TIP3   OH241943   3.341   6.135   0.626 -0.3264 -0.4432  0.2359
 6843TIP3    H141944   3.409   6.183   0.674 -1.5091 -0.1912  1.7158
 6843TIP3    H241945   3.368   6.044   0.631  0.6332 -0.1966 -0.4055
 6844TIP3   OH241946   6.376   5.538   2.634 -0.4236  0.7196 -0.5030
 6844TIP3    H141947   6.406   5.524   2.544 -0.5423  1.8590 -0.7367
 6844TIP3    H241948   6.369   5.634   2.642  0.3658  0.6802  0.9674
 6845TIP3   OH241949   1.494   3.807   1.835  0.8824  0.1945  0.6331
 6845TIP3    H141950   1.424   3.758   1.790  0.7469 -2.0538  3.1178
 6845TIP3    H241951   1.454   3.891   1.857 -0.4904 -0.3931  0.4604
 6846TIP3   OH241952   6.154   0.963  12.420 -0.2734  0.5193 -0.6520
 6846TIP3    H141953   6.130   1.055  12.420  1.0149  0.9054  1.4969
 6846TIP3    H241954   6.094   0.923  12.483 -1.6258 -0.3404 -2.4788
 6847TIP3   OH241955   3.261   6.444   0.942  0.0285 -0.5950  0.0394
 6847TIP3    H141956   3.235   6.504   0.872 -0.6709 -0.9175  0.0152
 6847TIP3    H241957   3.328   6.389   0.904 -0.2193 -0.6456 -0.3225
 6848TIP3   OH241958   5.910   2.794   0.438 -0.8629 -0.6301  0.5845
 6848TIP3    H141959   5.817   2.784   0.418 -1.1937  1.1799  1.1388
 6848TIP3    H241960   5.935   2.877   0.397  0.1337 -0.3309  1.7702
 6849TIP3   OH241961   5.555   3.312   1.347 -0.0774  0.4583 -0.1664
 6849TIP3    H141962   5.491   3.379   1.370 -0.0637  0.1511  0.8004
 6849TIP3    H241963   5.598   3.346   1.269 -1.4716  0.6310 -0.8786
 6850TIP3   OH241964   5.337   2.167   0.595 -0.0626  0.0999 -0.1513
 6850TIP3    H141965   5.310   2.198   0.682  0.9897 -0.4888  0.4043
 6850TIP3    H241966   5.431   2.149   0.605 -0.1497 -0.9400 -1.1251
 6851TIP3   OH241967   1.891   1.047  11.554 -0.5902  0.1351  0.1340
 6851TIP3    H141968   1.958   1.115  11.557 -1.7426  1.3570 -0.9854
 6851TIP3    H241969   1.834   1.072  11.481 -3.6944  0.5416  2.5423
 6852TIP3   OH241970   3.785   6.472  16.098 -0.2192 -0.4943 -0.0894
 6852TIP3    H141971   3.703   6.493  16.143 -0.4333 -0.6622 -0.4055
 6852TIP3    H241972   3.799   6.545  16.038 -0.9710 -1.2530 -1.1944
 6853TIP3   OH241973   4.316   1.783  11.219  0.8606 -0.5497  0.4611
 6853TIP3    H141974   4.384   1.737  11.170  1.3340  0.5132  0.1035
 6853TIP3    H241975   4.305   1.866  11.173  1.1022  0.3468  1.9809
 6854TIP3   OH241976   4.681   1.412   5.438 -0.1049  0.0825  0.4812
 6854TIP3    H141977   4.705   1.323   5.413  1.0547 -0.8206  4.3895
 6854TIP3    H241978   4.632   1.401   5.519 -1.0910  2.9420  0.3193
 6855TIP3   OH241979   3.738   4.098   1.573 -0.2320  0.0341  0.6458
 6855TIP3    H141980   3.662   4.061   1.617 -0.6635 -0.4651 -0.4826
 6855TIP3    H241981   3.707   4.179   1.533 -0.9479 -1.5507 -2.1786
 6856TIP3   OH241982   0.165   6.151  13.861  0.2319  0.3566 -0.3537
 6856TIP3    H141983   0.190   6.071  13.815  0.2408 -0.2389  0.6810
 6856TIP3    H241984   0.093   6.187  13.808  0.7385  0.0733 -1.2354
 6857TIP3   OH241985   3.676   4.345   1.464 -0.3826 -0.8048  0.3326
 6857TIP3    H141986   3.661   4.349   1.559  1.6787 -0.3193  0.6521
 6857TIP3    H241987   3.722   4.426   1.443 -1.9810 -0.2872 -1.3333
 6858TIP3   OH241988   1.644   5.782  13.734  0.4811 -0.7369 -0.3630
 6858TIP3    H141989   1.572   5.723  13.756  0.7565 -0.9881 -0.1242
 6858TIP3    H241990   1.722   5.725  13.734  0.7144 -0.4185 -0.3631
 6859TIP3   OH241991   0.549   3.187   2.901  0.1917  0.2272  0.0303
 6859TIP3    H141992   0.609   3.249   2.940  0.4310 -0.6652  1.1090
 6859TIP3    H241993   0.531   3.222   2.814  1.2680  1.1569  0.1750
 6860TIP3   OH241994   0.813   5.033  12.513  0.0810  0.0527  0.2200
 6860TIP3    H141995   0.748   5.092  12.550  1.9562  0.3146  3.2484
 6860TIP3    H241996   0.871   5.090  12.462  1.0875  0.6735  2.0136
 6861TIP3   OH241997   4.827   6.647  17.138  0.7399  0.2467 -0.3042
 6861TIP3    H141998   4.919   6.639  17.163  0.9357 -0.6655 -1.2465
 6861TIP3    H241999   4.801   6.734  17.168  1.4672 -0.0874  1.3441
 6862TIP3   OH242000   1.733   4.825  12.573 -0.0726  0.1842 -0.0374
 6862TIP3    H142001   1.646   4.798  12.602 -0.9167  1.3228 -1.4271
 6862TIP3    H242002   1.722   4.916  12.546  0.8812 -0.4802 -2.8510
 6863TIP3   OH242003   3.995   6.705   1.752  0.1860 -0.8626 -0.3267
 6863TIP3    H142004   3.989   6.674   1.662  0.5393 -0.0315 -0.6482
 6863TIP3    H242005   4.074   6.663   1.787  1.2399  0.4458 -1.0802
 6864TIP3   OH242006   2.591   2.608   3.522  0.1505  0.0647  0.0562
 6864TIP3    H142007   2.633   2.686   3.558 -0.4553 -0.4055  1.8175
 6864TIP3    H242008   2.498   2.632   3.516  0.1868 -0.0056 -0.8268
 6865TIP3   OH242009   5.622   3.494  15.612 -0.1389  0.2130  0.1529
 6865TIP3    H142010   5.643   3.448  15.694  0.8746 -0.5263 -0.5013
 6865TIP3    H242011   5.541   3.454  15.582 -0.0987 -0.0605  0.3997
 6866TIP3   OH242012   2.303   5.594  11.581 -0.0072  0.4377  0.6765
 6866TIP3    H142013   2.267   5.671  11.625 -0.7748  0.6343 -0.2793
 6866TIP3    H242014   2.250   5.585  11.501  2.3082  0.9905 -0.9756
 6867TIP3   OH242015   2.086   5.858   1.946  0.0155 -0.5764  0.2316
 6867TIP3    H142016   2.084   5.939   1.996 -0.6103 -0.7883  0.5520
 6867TIP3    H242017   2.092   5.887   1.855 -2.4038 -0.1172  0.1855
 6868TIP3   OH242018   6.413   3.593  16.042 -0.0100 -0.5067  0.9221
 6868TIP3    H142019   6.387   3.540  15.966  1.6691  0.7252 -0.5421
 6868TIP3    H242020   6.428   3.529  16.112 -0.4182 -1.7460 -0.1157
 6869TIP3   OH242021   1.668   2.078  11.467  0.9937  0.0822  0.0830
 6869TIP3    H142022   1.679   1.996  11.418  0.6473  0.4061 -0.5291
 6869TIP3    H242023   1.678   2.147  11.402  0.1422  0.5051  0.3963
 6870TIP3   OH242024   5.655   4.075  15.000  0.0302 -0.1633 -0.4812
 6870TIP3    H142025   5.674   4.045  14.912 -0.0583 -0.4353 -0.4078
 6870TIP3    H242026   5.633   3.996  15.049  1.3291 -0.1708  0.1115
 6871TIP3   OH242027   1.908   3.970  13.215 -0.1628  0.3387 -0.1936
 6871TIP3    H142028   1.864   3.994  13.133  0.2356  0.5919 -0.3353
 6871TIP3    H242029   1.968   3.900  13.191 -0.0163  0.4398 -0.1284
 6872TIP3   OH242030   0.853   2.224   3.035 -0.0891  0.3119  0.1544
 6872TIP3    H142031   0.888   2.223   3.124  1.9545  1.3096 -0.6067
 6872TIP3    H242032   0.855   2.132   3.007  1.3793  0.2850  0.3362
 6873TIP3   OH242033   6.775   6.684  11.778 -0.2459  0.5899 -0.0027
 6873TIP3    H142034   6.847   6.746  11.766  0.6458 -0.8575 -2.4517
 6873TIP3    H242035   6.797   6.637  11.859  1.5784  0.1439 -0.7449
 6874TIP3   OH242036   0.122   4.859   2.681  0.6005 -0.0717  0.2827
 6874TIP3    H142037   0.097   4.899   2.764 -0.1374  0.0484  0.0094
 6874TIP3    H242038   0.102   4.767   2.691  2.1509 -0.3722  0.8548
 6875TIP3   OH242039   6.291   5.383  14.364 -0.2745  0.2002  0.1003
 6875TIP3    H142040   6.212   5.411  14.410 -0.6582  1.9280 -1.5473
 6875TIP3    H242041   6.333   5.464  14.337  2.4737 -0.6797  1.5692
 6876TIP3   OH242042   0.797   0.206   3.757  0.5948 -0.2378  0.3696
 6876TIP3    H142043   0.819   0.189   3.849  1.0150 -0.1527  0.2849
 6876TIP3    H242044   0.882   0.214   3.713  0.3985  0.7539  0.1693
 6877TIP3   OH242045   2.992   0.043   4.265  0.3355  0.4781 -0.3564
 6877TIP3    H142046   2.965  -0.019   4.332 -0.9142 -0.1961 -1.4663
 6877TIP3    H242047   3.072   0.005   4.229 -0.6168 -0.7040 -1.2797
 6878TIP3   OH242048   1.425   2.880  12.513  0.3185  0.4420  0.2000
 6878TIP3    H142049   1.367   2.945  12.552 -1.2451  0.3794 -1.9286
 6878TIP3    H242050   1.391   2.796  12.544  1.4634  0.5535  1.7981
 6879TIP3   OH242051   1.418   0.772   0.921 -0.3920 -0.5272 -0.2913
 6879TIP3    H142052   1.362   0.806   0.851  1.3848 -0.5274 -1.7367
 6879TIP3    H242053   1.506   0.777   0.886  0.3296 -2.4850  1.1584
 6880TIP3   OH242054   1.874   3.570   1.250  0.6481  0.5469  0.0752
 6880TIP3    H142055   1.830   3.501   1.301 -0.1341  0.3938 -0.7969
 6880TIP3    H242056   1.959   3.581   1.293  0.6022 -0.6512  0.4936
 6881TIP3   OH242057   4.619   4.102   1.728 -0.1456  0.1844 -0.4454
 6881TIP3    H142058   4.541   4.120   1.676 -0.4925  0.2026  0.0786
 6881TIP3    H242059   4.592   4.115   1.819 -0.1606 -2.0437 -0.0889
 6882TIP3   OH242060   4.260   2.907  11.487 -0.0119 -0.1014  0.6599
 6882TIP3    H142061   4.330   2.883  11.426  0.1122  0.0015  0.7614
 6882TIP3    H242062   4.182   2.917  11.432 -0.0048 -0.4676  0.5791
 6883TIP3   OH242063   4.298   1.205  11.078 -0.2122  0.2556  0.4160
 6883TIP3    H142064   4.226   1.150  11.047  0.6204 -0.1437 -0.8241
 6883TIP3    H242065   4.377   1.164  11.044  0.6138  0.7084  1.7478
 6884TIP3   OH242066   4.386   6.367  17.037 -0.3617 -0.7144  0.1265
 6884TIP3    H142067   4.471   6.356  16.995 -1.5259 -2.0788 -2.0039
 6884TIP3    H242068   4.390   6.452  17.080  1.4684  0.0013 -1.4353
 6885TIP3   OH242069   1.200   0.105  13.330  0.2447  0.2070  0.4246
 6885TIP3    H142070   1.150   0.061  13.399 -2.3065  1.9303 -0.2907
 6885TIP3    H242071   1.260   0.163  13.377 -0.6770  0.5256  1.2128
 6886TIP3   OH242072   4.254   5.683   3.468 -0.3679  0.5405 -0.0459
 6886TIP3    H142073   4.224   5.617   3.407  1.5172  0.6494 -1.1385
 6886TIP3    H242074   4.350   5.673   3.469 -0.1846  2.1630  0.9926
 6887TIP3   OH242075   3.767   5.930  13.377  0.2858 -0.3584 -0.3965
 6887TIP3    H142076   3.830   5.915  13.307  0.4983 -0.1440 -0.2520
 6887TIP3    H242077   3.810   5.898  13.456  0.8733  1.3056 -0.0297
 6888TIP3   OH242078   2.285   1.696   1.591 -0.2288  0.4267  0.3106
 6888TIP3    H142079   2.221   1.710   1.662 -0.8156 -0.4422 -0.0347
 6888TIP3    H242080   2.250   1.621   1.543  0.2189  0.9514 -0.8422
 6889TIP3   OH242081   1.534   3.629  13.424  0.1814  0.3117 -0.1469
 6889TIP3    H142082   1.442   3.611  13.443  0.3093 -0.8332 -0.6147
 6889TIP3    H242083   1.539   3.725  13.420 -0.6618  0.4500  1.4590
 6890TIP3   OH242084   6.672   1.542  16.622  0.3226 -0.2891  0.3140
 6890TIP3    H142085   6.740   1.542  16.554  0.1927  0.3754  0.1819
 6890TIP3    H242086   6.653   1.450  16.637 -2.4344 -0.4322 -3.3162
 6891TIP3   OH242087   5.608   3.997   1.883 -0.3031  0.4384 -0.3210
 6891TIP3    H142088   5.604   3.923   1.823  0.5514  1.2580 -1.4227
 6891TIP3    H242089   5.536   4.054   1.856 -1.0326 -0.0386  0.5991
 6892TIP3   OH242090   6.672   0.548  14.271 -0.3487  0.2618  0.4859
 6892TIP3    H142091   6.644   0.619  14.214 -0.5153 -0.2133 -0.0230
 6892TIP3    H242092   6.719   0.592  14.342 -0.3527  0.8702  0.1164
 6893TIP3   OH242093   2.964   3.090  13.369  0.2157 -0.5009  0.3559
 6893TIP3    H142094   2.972   3.186  13.372  1.8885 -0.5483 -1.3164
 6893TIP3    H242095   2.963   3.063  13.461 -0.9191  1.1673  0.8463
 6894TIP3   OH242096   3.865   4.292  16.827 -0.5830  0.2729  0.4018
 6894TIP3    H142097   3.849   4.213  16.878 -1.6805  0.0964 -0.1973
 6894TIP3    H242098   3.885   4.260  16.739  0.9487  0.5884  0.6164
 6895TIP3   OH242099   4.163   0.529  15.366 -0.1916 -0.0261 -0.1599
 6895TIP3    H142100   4.243   0.536  15.420  1.0464 -1.8005 -1.6995
 6895TIP3    H242101   4.146   0.619  15.337  0.8636  0.4781  0.7232
 6896TIP3   OH242102   1.270   4.593   4.275 -0.1482  0.5849 -0.3645
 6896TIP3    H142103   1.337   4.570   4.209 -0.0959 -0.6426  0.0986
 6896TIP3    H242104   1.236   4.677   4.246  0.0235  0.1610 -1.8606
 6897TIP3   OH242105   1.913   3.209  15.868  0.0901  0.3737  0.2101
 6897TIP3    H142106   1.923   3.169  15.954 -0.3529  1.0966  0.6101
 6897TIP3    H242107   1.861   3.147  15.818  0.9686 -0.3832  0.2281
 6898TIP3   OH242108   2.871   2.379   5.725 -0.6385 -0.8546 -0.1223
 6898TIP3    H142109   2.846   2.360   5.815  1.1485  3.2558  1.3439
 6898TIP3    H242110   2.792   2.416   5.685 -1.2182 -2.0132 -0.0674
 6899TIP3   OH242111   1.195   2.885  15.657 -0.3318 -0.3033 -0.1742
 6899TIP3    H142112   1.118   2.938  15.639 -0.2187  0.3198  1.1194
 6899TIP3    H242113   1.176   2.800  15.618 -0.7943  0.4792 -1.6841
 6900TIP3   OH242114   3.913   3.195  14.086  0.1696  0.0102 -0.9114
 6900TIP3    H142115   3.984   3.254  14.063 -0.3414  0.8063 -0.4632
 6900TIP3    H242116   3.836   3.251  14.091 -0.2688 -0.6460 -0.2071
 6901TIP3   OH242117   0.796   3.812  12.663  0.4174 -0.7999  0.5740
 6901TIP3    H142118   0.758   3.797  12.750 -0.8296 -0.7005  0.0614
 6901TIP3    H242119   0.720   3.828  12.607  1.3015  0.6716 -0.2309
 6902TIP3   OH242120   1.024   1.078  11.292 -0.4958 -0.3479 -0.2586
 6902TIP3    H142121   0.976   1.013  11.342 -1.0253  1.2925  1.4552
 6902TIP3    H242122   1.116   1.060  11.313 -0.6095 -0.8339 -0.1672
 6903TIP3   OH242123   2.590   4.417   4.015 -0.2618 -0.8540 -0.0890
 6903TIP3    H142124   2.636   4.450   3.938  0.0451 -0.6543  0.1773
 6903TIP3    H242125   2.655   4.422   4.085 -0.4949 -1.1714  0.1502
 6904TIP3   OH242126   5.971   5.979  15.721  0.4019  0.6316 -0.0036
 6904TIP3    H142127   5.914   5.987  15.797  0.4946 -1.1391  0.2705
 6904TIP3    H242128   5.945   5.898  15.679 -0.5207  2.2247 -2.6378
 6905TIP3   OH242129   5.954   1.711  11.432  0.4702  0.4650  0.1608
 6905TIP3    H142130   5.938   1.741  11.522 -0.1045 -0.5051  0.3855
 6905TIP3    H242131   5.998   1.785  11.390  0.7735  0.9087  1.2499
 6906TIP3   OH242132   3.355   5.508   6.494 -0.5382  0.2031 -0.7272
 6906TIP3    H142133   3.306   5.434   6.530 -0.4670 -0.0024 -1.0470
 6906TIP3    H242134   3.445   5.476   6.488 -0.4906  0.3489 -0.7814
 6907TIP3   OH242135   5.916   5.705  11.427 -0.3406 -0.3363  0.7693
 6907TIP3    H142136   6.007   5.730  11.411 -0.4343  0.0989  0.9223
 6907TIP3    H242137   5.920   5.611  11.444 -0.2598 -0.9036 -2.0477
 6908TIP3   OH242138   5.537   5.463   0.041  0.3117 -0.0286  0.0008
 6908TIP3    H142139   5.555   5.552   0.073 -1.0634  0.4211 -0.4380
 6908TIP3    H242140   5.535   5.472  -0.055  1.4183 -0.7864 -0.1064
 6909TIP3   OH242141   5.602   5.369   3.613  0.4494 -0.4605 -0.3749
 6909TIP3    H142142   5.682   5.327   3.583  0.2834 -0.3514 -0.9952
 6909TIP3    H242143   5.567   5.411   3.534 -2.6301 -4.3513 -1.2347
 6910TIP3   OH242144   2.963   5.249   1.477 -0.8626  0.7704  0.9260
 6910TIP3    H142145   3.007   5.190   1.537 -1.4231 -0.0987  0.4873
 6910TIP3    H242146   3.034   5.301   1.438 -0.2722 -0.2711  0.5968
 6911TIP3   OH242147   6.122   5.762  12.305  0.3489  0.0508 -0.4715
 6911TIP3    H142148   6.031   5.789  12.294  0.5205  1.7538  1.9908
 6911TIP3    H242149   6.118   5.684  12.360  0.3988  0.0109 -0.5226
 6912TIP3   OH242150   4.796   2.945   1.745  0.0044  0.7799  0.3705
 6912TIP3    H142151   4.788   2.890   1.823  1.9256 -0.1544 -0.0577
 6912TIP3    H242152   4.887   2.976   1.747  0.0071  0.9284 -1.3761
 6913TIP3   OH242153   3.698   4.393   3.228 -0.0798 -0.4445 -0.1694
 6913TIP3    H142154   3.757   4.318   3.225  0.2061 -0.2892  1.3105
 6913TIP3    H242155   3.751   4.465   3.262 -0.7367  0.0488 -0.1793
 6914TIP3   OH242156   5.979   1.723   1.024 -0.7097 -0.2794  0.2589
 6914TIP3    H142157   6.009   1.671   1.098  1.0384  1.8292  1.0833
 6914TIP3    H242158   6.043   1.707   0.955  0.8055  2.0017  1.0695
 6915TIP3   OH242159   4.459   4.279  14.478 -0.1440  0.2522 -0.0577
 6915TIP3    H142160   4.500   4.197  14.451 -0.9558 -0.6402  1.3858
 6915TIP3    H242161   4.365   4.259  14.484 -0.7540  2.0806 -2.6223
 6916TIP3   OH242162   6.273   5.344   6.270  0.8108 -0.5152 -0.2399
 6916TIP3    H142163   6.358   5.303   6.257  0.1972 -1.9205  0.0604
 6916TIP3    H242164   6.217   5.274   6.303 -1.0020 -0.1073 -2.3368
 6917TIP3   OH242165   0.310   6.764  15.929 -0.4752  0.0634  0.2367
 6917TIP3    H142166   0.347   6.696  15.985 -1.4557 -1.3013 -0.7368
 6917TIP3    H242167   0.223   6.731  15.905 -0.6780  1.3288 -0.8283
 6918TIP3   OH242168   1.487   4.861   1.670  0.2780  0.6414  0.0727
 6918TIP3    H142169   1.502   4.955   1.681 -0.2776  0.7090  0.2605
 6918TIP3    H242170   1.414   4.856   1.608  1.7836  0.3024 -1.7198
 6919TIP3   OH242171   2.139   0.329   6.133  0.1191 -0.7488 -0.0765
 6919TIP3    H142172   2.054   0.284   6.134  1.3800 -3.2437 -0.4418
 6919TIP3    H242173   2.183   0.298   6.212  0.8696  0.2050 -0.1117
 6920TIP3   OH242174   1.193   2.103  11.048 -0.5772  0.0318 -0.0705
 6920TIP3    H142175   1.188   2.190  11.010  0.2862 -0.1253 -0.5541
 6920TIP3    H242176   1.172   2.044  10.976  1.2688 -0.2764 -0.3799
 6921TIP3   OH242177   5.206   6.601   3.898  0.0233  0.6690  0.5680
 6921TIP3    H142178   5.139   6.548   3.855  0.2992  0.0915  0.8344
 6921TIP3    H242179   5.266   6.536   3.935  0.6128  1.1819  0.5028
 6922TIP3   OH242180   5.595   5.064  13.655  0.1091 -0.7073  0.5565
 6922TIP3    H142181   5.574   5.013  13.733 -0.6683  0.8099  1.3524
 6922TIP3    H242182   5.536   5.029  13.587 -1.1681 -0.1551  1.3708
 6923TIP3   OH242183   5.351   1.901  14.231 -0.1990 -0.0651 -0.4232
 6923TIP3    H142184   5.275   1.895  14.288 -1.5301  2.0495 -1.8806
 6923TIP3    H242185   5.400   1.820  14.247 -1.8186 -0.6552  1.8273
 6924TIP3   OH242186   1.483   0.957  11.718  0.4757  0.5739 -0.1701
 6924TIP3    H142187   1.574   0.986  11.722  0.0661  1.7806  0.7060
 6924TIP3    H242188   1.440   1.005  11.788 -0.9895  0.5475 -1.0432
 6925TIP3   OH242189   2.105   3.948   5.956  0.1531  0.0187  0.6049
 6925TIP3    H142190   2.023   3.986   5.925 -0.0184 -1.6042 -0.9893
 6925TIP3    H242191   2.172   4.010   5.927 -0.5572  2.0051  3.0022
 6926TIP3   OH242192   0.981   5.882   1.488 -0.1645 -0.3812 -0.0145
 6926TIP3    H142193   1.015   5.793   1.497  1.6494  0.5282  2.8497
 6926TIP3    H242194   0.897   5.880   1.533 -0.3214 -0.7490 -0.3194
 6927TIP3   OH242195   2.995   2.309   0.255 -0.3685 -0.1390  0.1522
 6927TIP3    H142196   2.992   2.292   0.160 -0.1418 -0.9472  0.2885
 6927TIP3    H242197   2.903   2.302   0.283 -0.3410 -0.6697  0.1207
 6928TIP3   OH242198   4.429   6.480  16.750 -0.5130  0.6197  0.1760
 6928TIP3    H142199   4.378   6.495  16.830 -1.9446 -2.7306 -0.0070
 6928TIP3    H242200   4.365   6.488  16.679  0.3524  1.6439 -0.5077
 6929TIP3   OH242201   4.447   5.651   0.349 -0.1592  0.0381 -0.5661
 6929TIP3    H142202   4.353   5.656   0.362 -0.0849  1.5354 -0.4946
 6929TIP3    H242203   4.484   5.702   0.421  0.6401  0.5975 -1.3586
 6930TIP3   OH242204   2.602   3.714   5.072  0.3648  0.1719  0.4766
 6930TIP3    H142205   2.612   3.770   5.149  0.2595 -1.8169  1.9827
 6930TIP3    H242206   2.510   3.722   5.048 -0.4603 -1.8394  2.7117
 6931TIP3   OH242207   1.518   4.579  14.706  0.4415 -0.0325  0.0534
 6931TIP3    H142208   1.498   4.663  14.665 -0.2487 -0.0510  0.3503
 6931TIP3    H242209   1.432   4.541  14.727  0.7884 -0.1061  1.3457
 6932TIP3   OH242210   5.061   2.901  14.364 -0.5435  0.1919  0.3036
 6932TIP3    H142211   5.134   2.839  14.357  0.3829  1.2752  0.2081
 6932TIP3    H242212   4.988   2.857  14.320  0.4993 -0.2208 -1.0379
 6933TIP3   OH242213   3.276   3.617   3.794  0.2015 -0.0650 -0.4474
 6933TIP3    H142214   3.333   3.659   3.857 -2.0770  1.3574  0.7495
 6933TIP3    H242215   3.256   3.532   3.833 -1.1018  0.7630  0.7379
 6934TIP3   OH242216   1.658   0.436   3.044 -0.0727  0.4452 -0.9645
 6934TIP3    H142217   1.698   0.460   3.127 -0.0956 -1.6754 -0.3132
 6934TIP3    H242218   1.641   0.520   3.000  0.7707  1.5398  0.7561
 6935TIP3   OH242219   3.942   2.103  13.014 -0.0220  0.7389  0.3511
 6935TIP3    H142220   3.846   2.106  13.016 -0.0133  0.5722  1.2337
 6935TIP3    H242221   3.967   2.073  13.102  0.7100 -2.5574 -0.8875
 6936TIP3   OH242222   1.017   3.193   4.994 -0.0152  0.1568 -0.3384
 6936TIP3    H142223   1.014   3.195   5.089  2.1139 -1.8657 -0.1704
 6936TIP3    H242224   0.987   3.105   4.971 -2.5362  1.2946 -1.7054
 6937TIP3   OH242225   0.205   1.360  16.630  0.4948  0.4256  0.0548
 6937TIP3    H142226   0.261   1.388  16.703 -2.2510  2.5631  1.4514
 6937TIP3    H242227   0.230   1.418  16.558  1.5175 -0.0249  0.0447
 6938TIP3   OH242228   1.378   0.506   0.370  0.1443  0.4986  0.1580
 6938TIP3    H142229   1.420   0.450   0.305 -0.5147 -0.4038  0.4941
 6938TIP3    H242230   1.284   0.491   0.358 -0.1237  2.8251 -0.8819
 6939TIP3   OH242231   6.178   1.099   1.767 -0.1065 -0.0422  0.1703
 6939TIP3    H142232   6.225   1.052   1.697  1.0089 -0.5103  1.1988
 6939TIP3    H242233   6.152   1.030   1.828  1.7152  0.6520  1.7996
 6940TIP3   OH242234   1.248   0.167   4.840  0.1316  0.1194  0.5202
 6940TIP3    H142235   1.193   0.220   4.898  1.2293  0.3703  1.3558
 6940TIP3    H242236   1.310   0.124   4.899  1.1912  0.2842 -0.4605
 6941TIP3   OH242237   5.922   0.731   3.809  0.0314 -0.1285 -0.0360
 6941TIP3    H142238   6.011   0.710   3.835  0.0639 -0.4688 -0.4160
 6941TIP3    H242239   5.881   0.767   3.888  1.1944  2.2300 -0.4433
 6942TIP3   OH242240   3.575   5.925  12.745 -0.4081 -0.4039 -0.0252
 6942TIP3    H142241   3.560   6.016  12.771 -0.1924 -0.3012 -0.2564
 6942TIP3    H242242   3.487   5.891  12.727 -0.7661 -1.0168  2.5836
 6943TIP3   OH242243   1.035   4.502   1.423  0.2566 -0.3339  0.4350
 6943TIP3    H142244   1.084   4.457   1.353  1.2416 -0.5964  1.2701
 6943TIP3    H242245   0.964   4.547   1.378  0.9635 -0.3853 -0.7561
 6944TIP3   OH242246   2.282   1.689   0.111  0.2253  0.0429  0.7310
 6944TIP3    H142247   2.358   1.658   0.159  0.3520 -1.4086 -0.3575
 6944TIP3    H242248   2.207   1.658   0.162  0.3614  1.0784  1.5613
 6945TIP3   OH242249   3.827   1.702   0.387 -0.0407 -0.0086 -0.7488
 6945TIP3    H142250   3.825   1.619   0.433  0.4566  0.4919  0.1876
 6945TIP3    H242251   3.920   1.725   0.382 -0.1859  0.5813 -0.8376
 6946TIP3   OH242252   6.612   2.494  13.888 -0.1511 -0.1978 -0.0502
 6946TIP3    H142253   6.551   2.435  13.932 -2.5788  1.6504 -0.7926
 6946TIP3    H242254   6.601   2.578  13.932  1.3752  0.3351 -0.6409
 6947TIP3   OH242255   0.057   2.067  10.653  0.2166 -0.1667 -0.2617
 6947TIP3    H142256   0.148   2.089  10.674  0.4653 -1.5765  0.2294
 6947TIP3    H242257   0.017   2.049  10.738 -0.1486 -0.8926 -0.5883
 6948TIP3   OH242258   4.917   1.002  11.977 -0.0996  0.0235  0.2644
 6948TIP3    H142259   4.914   1.014  12.072 -0.1969 -1.7499  0.5169
 6948TIP3    H242260   5.006   1.028  11.952  1.3205 -3.2817  1.4824
 6949TIP3   OH242261   5.393   2.677   4.608 -0.8310 -0.0783 -0.7283
 6949TIP3    H142262   5.399   2.582   4.616 -0.1313  0.0510  0.4282
 6949TIP3    H242263   5.299   2.695   4.605 -1.1394 -0.4989  3.4733
 6950TIP3   OH242264   5.783   2.679   5.707 -0.1055  0.2726 -0.1589
 6950TIP3    H142265   5.832   2.739   5.652  0.3570 -1.0331 -1.2062
 6950TIP3    H242266   5.715   2.643   5.649 -0.1041 -0.5359  0.3272
 6951TIP3   OH242267   5.041   0.481   4.014  0.1608 -0.4045  0.8399
 6951TIP3    H142268   5.032   0.386   4.014  1.6816 -0.5729  2.5479
 6951TIP3    H242269   4.966   0.512   4.065 -0.7519 -0.6049 -0.3360
 6952TIP3   OH242270   1.578   0.689   0.293 -0.1814  0.5555 -0.3353
 6952TIP3    H142271   1.506   0.629   0.313  0.1491 -0.1251 -1.1801
 6952TIP3    H242272   1.654   0.653   0.338  0.1056  0.1175 -1.1562
 6953TIP3   OH242273   3.890   1.201  15.068  0.3535 -0.5630 -0.2538
 6953TIP3    H142274   3.799   1.187  15.096 -0.7804  0.9431 -2.9250
 6953TIP3    H242275   3.884   1.207  14.973  2.5375  4.2546 -0.2143
 6954TIP3   OH242276   1.513   0.037   3.761  0.5285  0.0001  0.0137
 6954TIP3    H142277   1.508   0.077   3.848 -0.8990  1.1788 -0.5873
 6954TIP3    H242278   1.580  -0.032   3.770 -1.0639 -1.3033  2.5979
 6955TIP3   OH242279   2.304   5.900  14.976 -0.7026  0.3197 -0.3903
 6955TIP3    H142280   2.286   5.807  14.989 -2.4818  0.9229  1.8621
 6955TIP3    H242281   2.271   5.918  14.888 -2.0529 -0.7860 -0.1335
 6956TIP3   OH242282   1.117   0.149  14.456 -0.0767  0.4946  0.2406
 6956TIP3    H142283   1.124   0.193  14.541 -0.8402  0.3186  0.3965
 6956TIP3    H242284   1.104   0.220  14.394 -0.5847  0.5543  0.4070
 6957TIP3   OH242285   2.320   0.222  15.594 -0.2074 -0.0016 -0.1977
 6957TIP3    H142286   2.343   0.181  15.511  2.2071 -0.1600  0.5102
 6957TIP3    H242287   2.342   0.315  15.581 -0.1678  0.0339  0.1238
 6958TIP3   OH242288   3.001   1.514   3.792 -0.2001  0.1010  0.0994
 6958TIP3    H142289   2.957   1.438   3.831  1.5043 -1.2428 -0.5535
 6958TIP3    H242290   2.948   1.589   3.821 -3.0076 -1.4696 -0.7864
 6959TIP3   OH242291   5.152   1.802   5.842  0.6302 -0.1135  0.2029
 6959TIP3    H142292   5.148   1.853   5.761 -0.0831 -0.5647 -0.0504
 6959TIP3    H242293   5.071   1.823   5.888  0.8121 -0.2270  0.5813
 6960TIP3   OH242294   2.463   1.642   0.384  0.7732 -0.0736 -0.3997
 6960TIP3    H142295   2.470   1.641   0.479  1.1991  0.9808 -0.4212
 6960TIP3    H242296   2.370   1.625   0.367  0.4343  1.0711  0.2408
 6961TIP3   OH242297   4.996   1.636   0.891 -0.2130  0.2802  0.1437
 6961TIP3    H142298   4.935   1.599   0.827 -1.2860  0.3775  1.0927
 6961TIP3    H242299   4.949   1.633   0.974  0.5909  1.5620  0.6653
 6962TIP3   OH242300   4.174   3.269  14.202  0.1283 -0.6514 -0.0122
 6962TIP3    H142301   4.239   3.297  14.267  0.5832 -1.1651 -0.2489
 6962TIP3    H242302   4.117   3.209  14.249 -1.0503  0.8873  0.5906
 6963TIP3   OH242303   0.036   4.221   3.304  0.1000 -0.5530 -0.7657
 6963TIP3    H142304   0.090   4.251   3.231  0.4828  1.8322  0.4351
 6963TIP3    H242305  -0.002   4.301   3.340 -2.4000 -1.9687 -0.1523
 6964TIP3   OH242306   6.218   2.584   5.132 -0.1901  0.1075  0.5462
 6964TIP3    H142307   6.277   2.528   5.082 -0.5558 -0.2802  0.5518
 6964TIP3    H242308   6.196   2.656   5.073  0.3406  0.2912  0.5663
 6965TIP3   OH242309   2.506   5.517  16.794 -0.0339 -0.2950  0.9113
 6965TIP3    H142310   2.543   5.443  16.745  2.1515  1.0008  0.5360
 6965TIP3    H242311   2.554   5.518  16.876  1.5304  2.0201  0.0156
 6966TIP3   OH242312   5.125   5.114  15.599  0.0711 -0.3411 -0.2293
 6966TIP3    H142313   5.212   5.094  15.633 -0.0579 -1.0217 -0.2838
 6966TIP3    H242314   5.134   5.199  15.556  0.7128 -0.4192 -0.2495
 6967TIP3   OH242315   1.444   0.700  15.357  0.4518  0.2156 -0.2787
 6967TIP3    H142316   1.358   0.665  15.379 -0.3654  0.4756 -2.8589
 6967TIP3    H242317   1.497   0.623  15.339 -0.2249  0.1191 -2.0054
 6968TIP3   OH242318   6.029   2.110  16.625 -0.1031 -0.1175  0.1924
 6968TIP3    H142319   6.034   2.024  16.666  0.7792  0.1060  0.5595
 6968TIP3    H242320   5.945   2.145  16.653 -0.0909 -0.5099  0.7244
 6969TIP3   OH242321   2.232   6.148  16.567  0.3374  0.6267  0.4258
 6969TIP3    H142322   2.137   6.145  16.561  0.3767 -0.2490  0.2886
 6969TIP3    H242323   2.261   6.161  16.477  0.4393 -1.4082  0.1423
 6970TIP3   OH242324   1.515   1.682   1.877  0.3531 -0.4447  0.4323
 6970TIP3    H142325   1.439   1.628   1.854  0.7637 -0.2391 -1.5225
 6970TIP3    H242326   1.478   1.761   1.916 -0.6001  0.5028 -2.2176
 6971TIP3   OH242327   6.730   5.160  15.714  0.1951  0.2986  0.2113
 6971TIP3    H142328   6.819   5.158  15.750 -0.0525 -1.3393  0.7967
 6971TIP3    H242329   6.676   5.120  15.782 -0.6580 -0.6390 -0.9866
 6972TIP3   OH242330   6.051   5.063   2.591 -0.2782  0.3013 -0.2380
 6972TIP3    H142331   6.132   5.112   2.607  0.5559 -1.1415  0.0754
 6972TIP3    H242332   5.990   5.097   2.657 -0.0425  1.6149 -0.6701
 6973TIP3   OH242333   4.190   0.266   6.106  0.0475  0.0281  0.1080
 6973TIP3    H142334   4.194   0.204   6.033  0.4285  1.3957 -1.0537
 6973TIP3    H242335   4.221   0.216   6.181 -0.2357 -1.3756 -0.6886
 6974TIP3   OH242336   4.180   1.182  11.902 -0.4795  0.2192 -0.3887
 6974TIP3    H142337   4.208   1.184  11.811 -1.1648 -2.3769 -0.6809
 6974TIP3    H242338   4.223   1.258  11.942  0.4421  0.9297 -2.6767
 6975TIP3   OH242339   5.474   5.034   5.339  0.6926 -0.1259  0.2735
 6975TIP3    H142340   5.536   4.999   5.276  0.7789 -1.4739  1.0972
 6975TIP3    H242341   5.394   5.050   5.288  1.0629 -0.2989 -0.3589
 6976TIP3   OH242342   0.013   3.162   1.291 -0.1105  0.1247  0.0209
 6976TIP3    H142343   0.070   3.210   1.231 -0.4667  1.0105  0.3799
 6976TIP3    H242344  -0.076   3.181   1.259 -0.2329 -0.7601 -0.1764
 6977TIP3   OH242345   4.772   3.462  14.556 -0.0536  0.2743  0.2195
 6977TIP3    H142346   4.770   3.494  14.465  0.7139  1.5348  0.6231
 6977TIP3    H242347   4.799   3.371  14.548  0.2501  0.4391 -0.8222
 6978TIP3   OH242348   1.701   4.448  13.353  0.3174 -0.5179  0.2911
 6978TIP3    H142349   1.674   4.428  13.264 -0.1138 -1.0604  0.5419
 6978TIP3    H242350   1.676   4.540  13.366 -3.2577 -1.5519  1.1871
 6979TIP3   OH242351   5.333   2.801  14.025 -0.6317  0.1533  0.2738
 6979TIP3    H142352   5.268   2.739  13.994 -0.3760  0.4245 -0.8379
 6979TIP3    H242353   5.403   2.747  14.062 -1.3137 -0.1473  1.1341
 6980TIP3   OH242354   5.959   5.428   1.737  0.3424 -0.3406  0.8843
 6980TIP3    H142355   5.958   5.428   1.832  0.3786 -0.0027  0.8835
 6980TIP3    H242356   5.899   5.499   1.712  0.7714 -0.0560  0.6591
 6981TIP3   OH242357   0.057   6.707   1.603  0.2008  0.1323 -0.3820
 6981TIP3    H142358   0.150   6.724   1.595  0.7785 -2.4914  0.1235
 6981TIP3    H242359   0.047   6.671   1.691 -1.2381  0.1065 -0.5409
 6982TIP3   OH242360   6.706   4.637  12.564 -0.4695  0.0238 -0.5012
 6982TIP3    H142361   6.651   4.585  12.623  0.5939  1.2819  1.6890
 6982TIP3    H242362   6.795   4.613  12.588 -0.0113  0.8766 -1.3183
 6983TIP3   OH242363   3.824   4.360  15.729  0.1943 -0.0613  0.8213
 6983TIP3    H142364   3.797   4.344  15.820 -3.0763  0.8088  0.0919
 6983TIP3    H242365   3.840   4.273  15.693  0.5418 -0.4745  1.9498
 6984TIP3   OH242366   6.367   5.163  14.517  0.6729  0.0444  0.3182
 6984TIP3    H142367   6.349   5.240  14.463 -0.0179  1.2768  2.2468
 6984TIP3    H242368   6.419   5.196  14.590 -1.8246 -0.7553  2.5756
 6985TIP3   OH242369   6.010   3.224   6.205  0.3190  0.2481  0.7423
 6985TIP3    H142370   6.100   3.258   6.202 -0.7850  3.2397  0.2877
 6985TIP3    H242371   5.957   3.293   6.167 -2.1133 -1.8759  0.1466
 6986TIP3   OH242372   0.692   3.880   3.496  0.4922  0.1252  0.0590
 6986TIP3    H142373   0.650   3.828   3.427 -0.2597  1.1503 -0.2710
 6986TIP3    H242374   0.657   3.968   3.484  0.4150  0.3323  1.7061
 6987TIP3   OH242375   2.834   5.697  12.512  0.1967 -0.1377 -0.2503
 6987TIP3    H142376   2.788   5.765  12.561  0.5729 -0.1102  0.0591
 6987TIP3    H242377   2.892   5.744  12.453  0.2013 -0.1845 -0.2835
 6988TIP3   OH242378   6.176   4.939  14.881  0.0634  0.3106  0.0053
 6988TIP3    H142379   6.165   5.033  14.894  1.2180  0.6153 -1.1186
 6988TIP3    H242380   6.172   4.928  14.786  2.2776 -0.4745 -0.0157
 6989TIP3   OH242381   4.083   2.951  12.586 -0.1498  0.0982  0.0762
 6989TIP3    H142382   4.019   3.016  12.557 -0.1515  0.6722  1.3400
 6989TIP3    H242383   4.158   3.002  12.616  0.7796 -0.5667 -1.0511
 6990TIP3   OH242384   2.194   6.555  16.543 -0.2434 -0.8161  0.1574
 6990TIP3    H142385   2.169   6.569  16.452 -1.4110  0.8583  0.7057
 6990TIP3    H242386   2.287   6.577  16.547 -0.7591  1.4432 -0.1386
 6991TIP3   OH242387   6.408   2.841   1.661 -0.1256 -0.1412  0.0012
 6991TIP3    H142388   6.341   2.860   1.726  0.9092 -1.0295  1.3399
 6991TIP3    H242389   6.431   2.750   1.675  2.3303  0.5137  0.4749
 6992TIP3   OH242390   1.409   3.817   4.895  0.7431  0.0279 -0.2482
 6992TIP3    H142391   1.482   3.758   4.881  0.3435 -0.7573  0.8566
 6992TIP3    H242392   1.435   3.899   4.852  0.5472 -1.4696 -3.3044
 6993TIP3   OH242393   5.100   5.015   5.672  0.0030  0.1531  0.2491
 6993TIP3    H142394   5.190   5.024   5.703 -0.6324  1.3093  1.8211
 6993TIP3    H242395   5.060   4.951   5.730 -0.2316 -0.2626 -0.3639
 6994TIP3   OH242396   6.435   0.944  16.265 -0.0543  0.4979 -0.3660
 6994TIP3    H142397   6.443   0.908  16.354 -1.3268 -0.9433 -0.8015
 6994TIP3    H242398   6.502   0.899  16.215 -0.1086  0.4389 -0.3846
 6995TIP3   OH242399   4.685   4.359   3.544 -0.4910  0.7206 -0.2747
 6995TIP3    H142400   4.750   4.289   3.553 -2.5123 -1.0414  1.4619
 6995TIP3    H242401   4.704   4.419   3.616 -0.1687  0.7763 -0.4023
 6996TIP3   OH242402   5.046   6.308  10.445  0.1395  0.0470 -0.1599
 6996TIP3    H142403   4.966   6.267  10.412 -1.1186 -1.1258  4.0474
 6996TIP3    H242404   5.100   6.235  10.477  1.9121  1.0061 -0.8881
 6997TIP3   OH242405   3.146   0.065   0.877 -0.3554  0.2925 -0.2004
 6997TIP3    H142406   3.122   0.087   0.967 -1.0775 -0.1881 -0.2751
 6997TIP3    H242407   3.069   0.021   0.842  0.0357  0.2183 -0.9621
 6998TIP3   OH242408   0.686   2.089   2.185  0.2004  0.1084  0.4717
 6998TIP3    H142409   0.686   2.025   2.113 -3.9909  1.1124 -0.6090
 6998TIP3    H242410   0.636   2.047   2.255 -1.0898  1.4479  0.4021
 6999TIP3   OH242411   2.692   2.146   1.512 -0.2785  0.0960  0.2623
 6999TIP3    H142412   2.612   2.101   1.486 -1.4032  2.0553  0.2152
 6999TIP3    H242413   2.662   2.228   1.552  1.6889  0.7553  0.4628
 7000TIP3   OH242414   1.495   2.480   4.414 -0.2219  0.3832  0.6360
 7000TIP3    H142415   1.564   2.496   4.479 -0.1652  0.1159  0.6410
 7000TIP3    H242416   1.528   2.521   4.334  0.1870 -0.2204  0.4948
 7001TIP3   OH242417   2.500   0.416  16.750  0.3830 -0.3169  0.3847
 7001TIP3    H142418   2.410   0.432  16.781  0.0228 -0.8382 -0.3801
 7001TIP3    H242419   2.543   0.501  16.758 -0.4842  0.1954 -0.2454
 7002TIP3   OH242420   5.851   6.423   5.589 -0.4763 -0.9293 -0.6278
 7002TIP3    H142421   5.926   6.459   5.542  0.6890 -0.6457  1.4411
 7002TIP3    H242422   5.888   6.362   5.652 -1.9497 -0.5365  0.6663
 7003TIP3   OH242423   3.332   3.779   5.711 -0.9440  0.6468  0.2907
 7003TIP3    H142424   3.255   3.810   5.663 -1.1265  1.0433  0.8390
 7003TIP3    H242425   3.352   3.849   5.773  0.2777  0.8584 -0.3166
 7004TIP3   OH242426   5.435   4.279  15.758 -0.7284  0.9994 -0.3860
 7004TIP3    H142427   5.463   4.325  15.837 -0.8019  0.5965 -0.1184
 7004TIP3    H242428   5.395   4.198  15.791 -0.8473  0.8764 -0.8315
 7005TIP3   OH242429   1.507   2.442  11.842 -0.5078 -0.6018  0.1625
 7005TIP3    H142430   1.486   2.369  11.784  0.5449 -0.7636 -0.0313
 7005TIP3    H242431   1.598   2.462  11.822 -1.1272  1.5715 -0.6628
 7006TIP3   OH242432   4.086   3.384   0.488  0.5869 -0.3634  0.1321
 7006TIP3    H142433   4.107   3.458   0.431 -0.4311  2.0537  2.7383
 7006TIP3    H242434   4.160   3.378   0.548  1.1351 -2.1705 -0.6756
 7007TIP3   OH242435   1.775   3.338  13.955  0.3169 -0.5150  0.1252
 7007TIP3    H142436   1.773   3.366  13.863 -0.1870 -0.5181  0.1334
 7007TIP3    H242437   1.829   3.404  13.999  0.8353 -0.6966 -0.2303
 7008TIP3   OH242438   4.823   3.044   4.383  0.2415  0.7308 -0.0881
 7008TIP3    H142439   4.749   2.986   4.364 -0.8469  2.1458 -0.2471
 7008TIP3    H242440   4.854   3.074   4.298 -0.0142  1.3733  0.0381
 7009TIP3   OH242441   3.605   2.961  12.486  0.6314  0.1657 -0.8720
 7009TIP3    H142442   3.528   2.995  12.439  0.6975  2.0937  0.3654
 7009TIP3    H242443   3.568   2.920  12.564  0.9357  2.2111  0.3585
 7010TIP3   OH242444   2.455   4.597   4.673  0.1011  0.0080  0.2502
 7010TIP3    H142445   2.492   4.647   4.600  1.8999 -0.7806  0.6175
 7010TIP3    H242446   2.479   4.507   4.656  0.5977 -0.1783  1.8632
 7011TIP3   OH242447   4.019   1.458  14.743 -0.4399  0.0877 -0.4535
 7011TIP3    H142448   3.966   1.519  14.692  0.9871  0.0248 -2.0521
 7011TIP3    H242449   4.088   1.512  14.781 -0.7657 -0.0843  0.4039
 7012TIP3   OH242450   0.227   5.618  12.230  0.3933  0.3540  0.0568
 7012TIP3    H142451   0.243   5.620  12.324 -2.4936 -2.3456  0.6977
 7012TIP3    H242452   0.142   5.661  12.219  0.6909  0.6281 -1.3348
 7013TIP3   OH242453   3.070   3.431   0.925 -0.2579  0.4300 -0.4574
 7013TIP3    H142454   3.031   3.505   0.971  1.0946 -0.6513  2.5079
 7013TIP3    H242455   3.161   3.457   0.911 -0.0723 -0.2167 -0.4382
 7014TIP3   OH242456   6.049   5.560  11.175  0.2041 -0.1002  0.2284
 7014TIP3    H142457   6.125   5.548  11.233  0.4570  2.0059  0.3862
 7014TIP3    H242458   5.973   5.549  11.232  0.3701 -2.0212  0.1099
 7015TIP3   OH242459   4.279   2.938   0.642  0.0370  0.4058  0.6336
 7015TIP3    H142460   4.334   2.865   0.673 -0.7564 -0.2446  0.5280
 7015TIP3    H242461   4.332   3.016   0.657  0.4088 -0.0837  1.8944
 7016TIP3   OH242462   6.670   5.839   6.563 -0.1466 -0.5652  0.1744
 7016TIP3    H142463   6.621   5.759   6.583 -0.9778 -0.4272 -1.2485
 7016TIP3    H242464   6.605   5.898   6.526  1.1371 -0.4841 -2.0619
 7017TIP3   OH242465   3.445   1.577   5.527  0.2305  0.4134  1.0409
 7017TIP3    H142466   3.539   1.588   5.541  0.6979 -0.5372 -1.1849
 7017TIP3    H242467   3.411   1.667   5.520  0.8126  0.7775  2.6038
 7018TIP3   OH242468   4.818   0.030  14.807  0.5587 -0.4482  0.3961
 7018TIP3    H142469   4.732  -0.002  14.779  1.0467  0.5506 -2.3973
 7018TIP3    H242470   4.798   0.094  14.875 -1.0644  0.9484 -1.3120
 7019TIP3   OH242471   4.897   6.284  15.881 -0.0205  0.0867 -0.8292
 7019TIP3    H142472   4.864   6.229  15.952 -1.1311  0.5892 -0.9491
 7019TIP3    H242473   4.989   6.260  15.873  0.2440  0.3601  1.1003
 7020TIP3   OH242474   3.048   2.256  13.508 -0.4077  1.1224  0.5330
 7020TIP3    H142475   3.028   2.185  13.447 -0.7302  0.5694  1.2656
 7020TIP3    H242476   3.143   2.252  13.519 -0.5493  0.0022  1.5074
 7021TIP3   OH242477   2.356   4.706  13.723  0.2382 -0.1268 -0.2715
 7021TIP3    H142478   2.272   4.662  13.715 -2.1257  4.4663 -2.6036
 7021TIP3    H242479   2.347   4.762  13.800  1.6774 -0.5908  0.2561
 7022TIP3   OH242480   5.855   4.162   5.398  0.4469  0.1336  0.1472
 7022TIP3    H142481   5.910   4.237   5.374  0.6410 -0.1414 -0.2852
 7022TIP3    H242482   5.904   4.117   5.467  0.3942  0.3308  0.3119
 7023TIP3   OH242483   3.748   1.928   3.318  0.0742 -0.3677  0.3247
 7023TIP3    H142484   3.792   1.931   3.234  1.8207  0.2254  1.2488
 7023TIP3    H242485   3.803   1.980   3.377 -1.2160 -0.6052  1.7916
 7024TIP3   OH242486   3.916   0.880   1.128 -0.3389 -0.3673 -0.2360
 7024TIP3    H142487   3.980   0.828   1.080 -1.3138 -0.8109 -1.0709
 7024TIP3    H242488   3.856   0.913   1.060  0.0544  1.5418  0.3135
 7025TIP3   OH242489   1.364   3.794  11.289  0.0096  0.0650  0.4362
 7025TIP3    H142490   1.370   3.736  11.365 -0.1358 -1.1766 -0.4862
 7025TIP3    H242491   1.293   3.854  11.311  0.4189  0.1557  1.5670
 7026TIP3   OH242492   1.237   6.667   5.754  0.3223  0.0291 -0.0881
 7026TIP3    H142493   1.280   6.742   5.795  0.7581 -0.6148  0.6326
 7026TIP3    H242494   1.151   6.700   5.729 -0.1322  0.3017  1.7570
 7027TIP3   OH242495   0.137   1.706  13.559 -0.5159 -0.1469  0.4372
 7027TIP3    H142496   0.174   1.773  13.502 -0.3924  0.1432  0.8499
 7027TIP3    H242497   0.161   1.623  13.518 -1.5780  0.0752 -0.6449
 7028TIP3   OH242498   5.840   1.630   4.938  0.5420 -0.2891 -0.0802
 7028TIP3    H142499   5.755   1.669   4.916  0.4585 -0.5072 -0.1483
 7028TIP3    H242500   5.898   1.705   4.952  0.9307 -0.1421 -2.3208
 7029TIP3   OH242501   4.603   2.559   2.986  0.4832 -0.1115  0.2678
 7029TIP3    H142502   4.692   2.565   2.952  0.0682 -1.1123 -1.0314
 7029TIP3    H242503   4.548   2.586   2.912 -0.3796 -1.2954  0.4720
 7030TIP3   OH242504   2.658   0.830   1.354  0.2715  0.0054  0.7177
 7030TIP3    H142505   2.685   0.918   1.380 -1.8445  1.4781 -1.8908
 7030TIP3    H242506   2.717   0.806   1.283 -0.4456  0.1810  0.0510
 7031TIP3   OH242507   6.303   2.836  14.075 -0.2585  0.0824 -0.2704
 7031TIP3    H142508   6.247   2.813  14.149 -1.0131 -0.2772 -0.9535
 7031TIP3    H242509   6.342   2.920  14.100  1.1118 -1.0331  1.4366
 7032TIP3   OH242510   6.663   1.414   5.441 -0.3076 -0.2506 -1.0496
 7032TIP3    H142511   6.576   1.375   5.447 -1.1563  1.3815 -2.2450
 7032TIP3    H242512   6.704   1.371   5.366  0.1261 -1.3916 -0.1691
 7033TIP3   OH242513   6.667   6.720   0.292  0.3991 -0.0453 -0.0641
 7033TIP3    H142514   6.701   6.743   0.379 -2.5548 -0.5642  1.2933
 7033TIP3    H242515   6.671   6.624   0.289 -0.8046 -0.1064  0.0765
 7034TIP3   OH242516   4.911   5.249  12.411 -0.6573  0.8678  0.5890
 7034TIP3    H142517   4.892   5.338  12.383 -1.0817  0.6963  0.3322
 7034TIP3    H242518   4.988   5.257  12.467 -0.1715  1.2848 -0.1378
 7035TIP3   OH242519   2.114   1.090   3.891  0.5355  0.3572 -0.4797
 7035TIP3    H142520   2.027   1.116   3.923  0.1460 -0.5186 -0.8224
 7035TIP3    H242521   2.137   1.157   3.828 -0.4405 -0.0812 -1.3163
 7036TIP3   OH242522   3.864   2.295  10.458 -0.0837 -0.4188 -0.0254
 7036TIP3    H142523   3.827   2.373  10.418  1.3123  0.8532  1.1287
 7036TIP3    H242524   3.923   2.328  10.526 -0.8539 -2.4887  1.7014
 7037TIP3   OH242525   2.603   0.467  17.053  0.1241  0.7301  0.4483
 7037TIP3    H142526   2.671   0.405  17.078  0.3431  1.2922  1.2537
 7037TIP3    H242527   2.572   0.435  16.967  1.9610  0.9531 -0.3128
 7038TIP3   OH242528   4.639   5.125   2.684 -0.5199 -0.4038  0.3763
 7038TIP3    H142529   4.638   5.076   2.602  1.6884  0.3847 -0.1428
 7038TIP3    H242530   4.629   5.216   2.659  2.2169  0.0504  0.7742
 7039TIP3   OH242531   0.043   3.979  15.896  0.6426 -0.3700 -0.5041
 7039TIP3    H142532   0.134   3.989  15.924 -0.1791  0.6584  1.9785
 7039TIP3    H242533  -0.006   3.976  15.978 -1.6606  0.1475 -1.8420
 7040TIP3   OH242534   0.009   3.960   4.535  0.4474 -0.1524  0.2017
 7040TIP3    H142535   0.009   3.865   4.551  2.5179 -0.1246  0.4899
 7040TIP3    H242536   0.076   3.973   4.468 -2.4814  0.7002 -2.7281
 7041TIP3   OH242537   4.985   4.592   2.572 -0.1175 -1.1174 -0.1350
 7041TIP3    H142538   5.036   4.636   2.640  0.6398 -1.3724 -0.5256
 7041TIP3    H242539   4.920   4.540   2.620  0.2785 -1.1302  0.3896
 7042TIP3   OH242540   2.083   5.660   5.667  0.5356 -0.1435 -0.5635
 7042TIP3    H142541   2.051   5.747   5.642  0.2600  0.0232  0.3206
 7042TIP3    H242542   2.133   5.676   5.748 -0.9256 -1.0395  0.5311
 7043TIP3   OH242543   4.096   4.694   4.045 -0.0002 -0.1432  0.1391
 7043TIP3    H142544   4.138   4.724   4.126 -0.1012  0.2988  0.0271
 7043TIP3    H242545   4.137   4.747   3.976 -1.7709  1.3155  0.1767
 7044TIP3   OH242546   1.429   3.026   3.016 -0.3688 -0.1269 -0.2131
 7044TIP3    H142547   1.342   2.994   2.991  0.0658 -0.7441 -0.9563
 7044TIP3    H242548   1.486   2.998   2.944  0.2066  1.4373 -0.3825
 7045TIP3   OH242549   1.819   3.582   5.210  0.4358 -0.3255 -0.4613
 7045TIP3    H142550   1.774   3.534   5.279  1.0510 -1.6092 -0.9220
 7045TIP3    H242551   1.753   3.640   5.173  0.1491  0.4958  1.2987
 7046TIP3   OH242552   6.599   6.528   1.597 -0.1554 -0.3723  0.2844
 7046TIP3    H142553   6.677   6.483   1.629  0.1707 -0.4442 -0.6059
 7046TIP3    H242554   6.527   6.469   1.620  0.1800 -0.9297 -0.0869
 7047TIP3   OH242555   1.807   1.414   5.845  0.0399  1.0687  0.4875
 7047TIP3    H142556   1.816   1.503   5.879 -1.9575  0.8579  1.6903
 7047TIP3    H242557   1.716   1.409   5.814  0.3927 -0.2730 -0.3873
 7048TIP3   OH242558   4.839   0.219  11.554  0.0658  0.1891  0.1578
 7048TIP3    H142559   4.929   0.188  11.555  0.8272  2.1677 -2.7107
 7048TIP3    H242560   4.790   0.149  11.510  0.5685  0.0843 -0.2315
 7049TIP3   OH242561   3.805   2.415   2.072 -0.4109  0.8853 -0.1346
 7049TIP3    H142562   3.740   2.347   2.087 -2.6067  3.2493  1.6355
 7049TIP3    H242563   3.765   2.472   2.006  0.3177  1.7755  0.1845
 7050TIP3   OH242564   6.024   5.865   2.945 -0.2528  0.7479  0.0500
 7050TIP3    H142565   6.078   5.924   2.892  0.0629 -1.4128 -2.1183
 7050TIP3    H242566   5.939   5.866   2.902  0.1750 -1.4837 -0.9057
 7051TIP3   OH242567   0.584   2.443   4.929  0.3013 -0.4847  0.1221
 7051TIP3    H142568   0.594   2.534   4.901  0.2398 -0.2073  0.9901
 7051TIP3    H242569   0.672   2.417   4.956  0.1746 -0.4586  0.5532
 7052TIP3   OH242570   4.970   0.976  11.657 -0.9065 -0.9409 -0.3990
 7052TIP3    H142571   5.008   1.028  11.727  0.1336 -1.3255 -0.6787
 7052TIP3    H242572   5.043   0.926  11.621 -1.8574 -2.4320 -0.2957
 7053TIP3   OH242573   1.374   6.488  17.174  0.4886 -0.5404  0.4615
 7053TIP3    H142574   1.414   6.401  17.170  0.6399 -0.4039 -1.9297
 7053TIP3    H242575   1.283   6.473  17.149  0.1389 -0.2138  1.5298
 7054TIP3   OH242576   4.296   6.064  13.087  0.4807  0.7831 -0.1779
 7054TIP3    H142577   4.268   6.019  13.007 -1.9706  0.6739  0.7015
 7054TIP3    H242578   4.292   6.157  13.065  1.6277  0.7226 -0.7250
 7055TIP3   OH242579   2.331   4.468  14.009  0.5554 -0.0017 -0.0789
 7055TIP3    H142580   2.412   4.514  13.984  0.7930 -0.2558  0.2213
 7055TIP3    H242581   2.288   4.449  13.926  1.0361 -0.2829 -0.2677
 7056TIP3   OH242582   6.663   4.964   1.252 -0.4752  0.0014 -0.0660
 7056TIP3    H142583   6.641   5.019   1.327 -1.1776 -0.3176 -0.0292
 7056TIP3    H242584   6.690   4.881   1.291  0.9564  0.4487 -0.1091
 7057TIP3   OH242585   0.783   4.871   3.780  0.5150  0.0452 -0.3120
 7057TIP3    H142586   0.701   4.915   3.803  0.8557  1.1458 -1.2071
 7057TIP3    H242587   0.810   4.828   3.861  0.1402  1.4319  0.5732
 7058TIP3   OH242588   0.920   1.184   1.473 -0.1947 -0.4297 -0.0837
 7058TIP3    H142589   0.942   1.217   1.560  0.1385 -1.1820  0.1276
 7058TIP3    H242590   0.970   1.239   1.413 -1.5814  1.0640  0.0989
 7059TIP3   OH242591   4.276   2.874   5.023  0.1100  0.2963  0.0100
 7059TIP3    H142592   4.317   2.895   4.939  1.8970 -1.4785  0.3764
 7059TIP3    H242593   4.318   2.792   5.049 -1.7904 -0.1544  1.7367
 7060TIP3   OH242594   3.820   2.307   4.028 -0.1782  0.1538 -0.1376
 7060TIP3    H142595   3.754   2.322   3.960 -0.4099 -1.0615 -0.1974
 7060TIP3    H242596   3.774   2.321   4.110 -0.6290 -1.1215 -0.1698
 7061TIP3   OH242597   0.365   3.757  13.373  0.7091  0.3278  0.6219
 7061TIP3    H142598   0.435   3.821  13.378  0.5184  0.6042 -0.1541
 7061TIP3    H242599   0.395   3.692  13.309 -0.9345  1.9754 -1.9214
 7062TIP3   OH242600   1.888   2.445   5.238  0.6131 -0.0942 -0.4142
 7062TIP3    H142601   1.981   2.431   5.259  0.9137  0.2706 -1.4692
 7062TIP3    H242602   1.852   2.486   5.316  1.5174  0.4857 -0.2934
 7063TIP3   OH242603   3.564   0.229  12.318  0.0905  0.7879 -0.4419
 7063TIP3    H142604   3.490   0.284  12.342 -0.9936 -1.4137  1.4041
 7063TIP3    H242605   3.614   0.219  12.399 -0.0075 -1.3674 -0.6200
 7064TIP3   OH242606   1.108   6.032  13.915 -0.1908  0.2577 -0.3338
 7064TIP3    H142607   1.091   6.124  13.897  0.3723  0.7042  1.3208
 7064TIP3    H242608   1.181   6.009  13.857 -1.1342  0.4998 -1.6380
 7065TIP3   OH242609   5.545   0.560  12.537  0.4203  0.2609  0.0943
 7065TIP3    H142610   5.604   0.563  12.613 -0.2476  0.1596  0.6197
 7065TIP3    H242611   5.537   0.652  12.510  1.2767  0.2177 -0.3466
 7066TIP3   OH242612   1.945   5.226   2.477 -0.2880 -0.2694  0.6643
 7066TIP3    H142613   1.952   5.131   2.476  1.2202 -0.2022  1.8397
 7066TIP3    H242614   2.020   5.257   2.426  0.5301  0.3099  2.1818
 7067TIP3   OH242615   5.218   4.697  11.807  0.3485 -0.5402 -0.2699
 7067TIP3    H142616   5.308   4.668  11.818  0.5054  0.3064  0.6918
 7067TIP3    H242617   5.185   4.710  11.896  0.0254  1.4144 -0.6533
 7068TIP3   OH242618   2.657   2.498   5.610  0.3123  0.1473  0.5620
 7068TIP3    H142619   2.601   2.574   5.622  1.8687  1.1643  1.7462
 7068TIP3    H242620   2.651   2.477   5.517 -1.5941  0.5495  0.5816
 7069TIP3   OH242621   4.003   3.393  10.716  0.0318 -0.6492  0.2697
 7069TIP3    H142622   3.923   3.360  10.674 -0.4804  0.8222  0.0344
 7069TIP3    H242623   4.061   3.317  10.722 -1.5584 -1.8237  0.8515
 7070TIP3   OH242624   2.758   3.746  17.041  0.0306  0.1224 -0.2436
 7070TIP3    H142625   2.737   3.794  17.121 -1.9083 -0.9027 -0.1302
 7070TIP3    H242626   2.782   3.814  16.977 -2.5260  1.2416 -0.0412
 7071TIP3   OH242627   3.099   2.039  15.296 -0.0648  0.0881  0.4617
 7071TIP3    H142628   3.131   2.039  15.206 -1.5826  0.3710 -0.0910
 7071TIP3    H242629   3.159   2.098  15.343 -0.5779  1.7012 -0.8570
 7072TIP3   OH242630   4.681   2.806  12.607  0.0679 -0.4346  0.0511
 7072TIP3    H142631   4.633   2.725  12.588  1.0861 -1.0179 -0.0824
 7072TIP3    H242632   4.753   2.777  12.664  0.8623  0.2699 -0.6003
 7073TIP3   OH242633   2.084   0.635   0.020  0.0433  0.1585 -0.0133
 7073TIP3    H142634   2.156   0.596  -0.029  0.6471  1.3125 -0.0856
 7073TIP3    H242635   2.075   0.581   0.098  1.0468  0.0500  0.0331
 7074TIP3   OH242636   0.892   5.918   1.986 -0.0200  0.3500  0.4445
 7074TIP3    H142637   0.983   5.888   1.996 -0.5408 -0.6111  2.5604
 7074TIP3    H242638   0.899   6.002   1.941  2.0383  1.1130  2.1115
 7075TIP3   OH242639   0.393   4.066   0.317 -0.2741  0.5517 -0.2336
 7075TIP3    H142640   0.385   4.114   0.235  2.2459 -1.3915 -1.6991
 7075TIP3    H242641   0.394   3.974   0.290  3.0736 -0.0446  1.7014
 7076TIP3   OH242642   0.107   0.664  15.614  0.2772  0.3841  0.5422
 7076TIP3    H142643   0.044   0.615  15.667  1.3928 -0.6070  0.9670
 7076TIP3    H242644   0.192   0.648  15.656  1.4396 -1.7660 -2.4907
 7077TIP3   OH242645   3.371   0.419  12.361 -0.0464 -0.5038 -0.1788
 7077TIP3    H142646   3.294   0.362  12.363 -1.1116  0.7278 -3.2958
 7077TIP3    H242647   3.386   0.443  12.453 -2.2159 -2.2742  0.6664
 7078TIP3   OH242648   0.590   5.160   2.540  0.1795  0.0304  0.9130
 7078TIP3    H142649   0.585   5.115   2.623 -1.0706  0.4475  1.0677
 7078TIP3    H242650   0.548   5.245   2.555 -0.5235 -0.0881 -0.2656
 7079TIP3   OH242651   4.895   0.809  15.745 -0.1102  0.0009  0.0489
 7079TIP3    H142652   4.954   0.804  15.820 -0.4719 -1.7244  0.2592
 7079TIP3    H242653   4.833   0.737  15.760  0.5147 -1.1199 -2.4772
 7080TIP3   OH242654   6.607   4.706   2.973  0.1505  0.0250  0.1569
 7080TIP3    H142655   6.599   4.650   3.050  2.2375  1.8237  1.7518
 7080TIP3    H242656   6.667   4.659   2.915  1.6563  0.4377  1.3528
 7081TIP3   OH242657   5.199   1.972  14.986 -0.2285  0.2162  0.0911
 7081TIP3    H142658   5.143   1.914  15.038 -1.3082  0.8164 -0.3684
 7081TIP3    H242659   5.266   2.003  15.047 -0.9778  0.2566  0.9064
 7082TIP3   OH242660   3.290   2.327  13.891 -0.1208 -0.0748  0.4148
 7082TIP3    H142661   3.354   2.271  13.934 -0.2519  0.3449  1.1694
 7082TIP3    H242662   3.261   2.388  13.960 -0.3387  0.5974 -0.2670
 7083TIP3   OH242663   2.757   6.174   5.615  0.0149  0.3729 -0.0972
 7083TIP3    H142664   2.827   6.227   5.578 -0.9296  0.7875 -1.3436
 7083TIP3    H242665   2.794   6.086   5.620  0.5216  0.5191 -1.0634
 7084TIP3   OH242666   1.040   6.755  17.032 -0.2223  0.0125 -0.4894
 7084TIP3    H142667   1.005   6.831  16.984  0.7590  0.6725 -0.1705
 7084TIP3    H242668   1.128   6.782  17.059  0.4926 -1.5872 -1.1638
 7085TIP3   OH242669   1.597   2.896  11.375 -0.7192  0.0853  0.6477
 7085TIP3    H142670   1.619   2.960  11.308 -0.6987 -1.2020 -0.5973
 7085TIP3    H242671   1.505   2.913  11.396 -1.4413 -1.0952 -1.5028
 7086TIP3   OH242672   0.836   1.750   0.202  0.1504  0.0420 -0.1565
 7086TIP3    H142673   0.779   1.825   0.215  0.4485 -0.0742  2.0683
 7086TIP3    H242674   0.910   1.765   0.262  0.3329 -1.8895  0.1544
 7087TIP3   OH242675   3.485   1.139  16.206  0.6413 -0.0499 -0.7913
 7087TIP3    H142676   3.390   1.135  16.196  0.4720  0.5865  0.4309
 7087TIP3    H242677   3.505   1.070  16.270  1.1671 -1.0537 -2.0038
 7088TIP3   OH242678   6.169   4.950  11.492  0.0214 -0.4032 -0.2803
 7088TIP3    H142679   6.146   4.933  11.400 -1.2765 -0.9251  0.1417
 7088TIP3    H242680   6.258   4.986  11.487 -0.4812  0.6934 -1.8347
 7089TIP3   OH242681   4.370   1.135   1.480 -0.2171 -0.2350 -0.1830
 7089TIP3    H142682   4.411   1.214   1.444 -2.0525  0.4463 -0.8351
 7089TIP3    H242683   4.401   1.130   1.570 -0.8590  1.7932  0.1654
 7090TIP3   OH242684   0.208   4.217   1.170  0.0578  0.3134 -0.4768
 7090TIP3    H142685   0.196   4.147   1.105  0.9042 -0.5781  0.2915
 7090TIP3    H242686   0.277   4.272   1.133  1.3577 -0.8436  0.1624
 7091TIP3   OH242687   1.474   4.098  10.981 -0.2779 -0.0010  0.9996
 7091TIP3    H142688   1.505   4.007  10.984  1.5996  0.5090 -1.5521
 7091TIP3    H242689   1.407   4.098  10.912  1.6620  1.0734 -0.9348
 7092TIP3   OH242690   3.068   0.199   1.118 -0.7987  0.2942 -0.1919
 7092TIP3    H142691   3.150   0.178   1.162 -0.4330  0.9816 -0.5385
 7092TIP3    H242692   3.009   0.227   1.188 -1.4313 -2.2703  0.3329
 7093TIP3   OH242693   5.345   5.929   2.189 -0.1621  0.0184  0.0673
 7093TIP3    H142694   5.353   5.973   2.104 -1.2503  2.3797  1.1495
 7093TIP3    H242695   5.278   5.979   2.236  1.8745  0.0206  3.1134
 7094TIP3   OH242696   6.409   5.417   3.348 -0.6750 -0.1989 -0.3889
 7094TIP3    H142697   6.490   5.388   3.390  0.4869  1.8098 -1.1936
 7094TIP3    H242698   6.359   5.458   3.419  0.0049  0.5783 -0.3550
 7095TIP3   OH242699   2.942   3.316  17.110  0.0843  0.1054 -0.1188
 7095TIP3    H142700   2.982   3.396  17.145  2.7012 -0.4591 -1.6217
 7095TIP3    H242701   3.005   3.247  17.131 -0.0142 -0.8090 -2.6961
 7096TIP3   OH242702   5.741   0.251  13.245  0.1564  0.3598  0.1120
 7096TIP3    H142703   5.772   0.322  13.189  0.9875 -0.6504 -0.7184
 7096TIP3    H242704   5.820   0.213  13.282 -0.2244 -0.6816 -0.1243
 7097TIP3   OH242705   5.066   3.380  17.063 -0.4110  0.0057  0.1979
 7097TIP3    H142706   4.994   3.403  17.004 -0.4444 -0.6776 -0.0384
 7097TIP3    H242707   5.024   3.334  17.136 -0.3840  0.9641  0.8250
 7098TIP3   OH242708   5.472   2.759  12.492  0.3341 -0.4709  0.1197
 7098TIP3    H142709   5.417   2.725  12.562 -1.8014  1.3755 -0.5659
 7098TIP3    H242710   5.433   2.723  12.412  0.2199  0.6796 -0.3590
 7099TIP3   OH242711   5.654   5.244   2.336 -0.5752 -0.1939  0.4136
 7099TIP3    H142712   5.690   5.167   2.293 -0.2341  0.6840 -0.8870
 7099TIP3    H242713   5.616   5.211   2.417  1.3003 -1.4521  0.8037
 7100TIP3   OH242714   4.590   6.671   2.896  0.4454 -0.1797 -0.0032
 7100TIP3    H142715   4.663   6.687   2.957  1.2381 -1.2548 -0.6431
 7100TIP3    H242716   4.561   6.582   2.918 -0.4812  0.1334  0.0431
 7101TIP3   OH242717   3.184   5.350   4.500  0.1593 -0.8587 -0.0797
 7101TIP3    H142718   3.232   5.433   4.495  0.5076 -1.1765 -3.0599
 7101TIP3    H242719   3.236   5.295   4.559  1.5331  0.0289 -0.4463
 7102TIP3   OH242720   0.640   1.080   4.299  0.6425 -0.3563  0.3098
 7102TIP3    H142721   0.571   1.046   4.356 -0.1826  1.8048  0.6314
 7102TIP3    H242722   0.720   1.073   4.351  0.4151 -1.3442  0.5423
 7103TIP3   OH242723   2.538   1.580  15.329 -0.1365  0.3779  0.0698
 7103TIP3    H142724   2.492   1.655  15.291 -0.7550 -0.0196  0.0286
 7103TIP3    H242725   2.591   1.617  15.399 -2.6613  0.4797  1.9777
 7104TIP3   OH242726   3.428   6.248  15.133  0.0699 -0.5256  0.4431
 7104TIP3    H142727   3.424   6.335  15.095 -1.4022 -0.4773  0.7071
 7104TIP3    H242728   3.447   6.190  15.059 -2.6136 -0.4148 -0.3500
 7105TIP3   OH242729   2.495   4.376  14.453 -0.6009 -0.2211 -0.7125
 7105TIP3    H142730   2.536   4.433  14.389  2.7918 -2.4216 -0.5976
 7105TIP3    H242731   2.402   4.376  14.429 -0.0764  2.2981 -2.9875
 7106TIP3   OH242732   0.383   6.607  12.657  0.4411  0.1777  0.0326
 7106TIP3    H142733   0.306   6.550  12.648 -0.0190  1.0172 -1.4615
 7106TIP3    H242734   0.451   6.549  12.691 -0.9549 -0.4875  1.7793
 7107TIP3   OH242735   2.799   2.988   2.634  0.0182 -0.1086 -0.2383
 7107TIP3    H142736   2.766   2.961   2.720 -1.5599 -3.9011 -1.9040
 7107TIP3    H242737   2.890   2.958   2.633  0.7737  2.0501  0.9251
 7108TIP3   OH242738   3.130   4.450   5.284 -0.1602  0.4822 -0.1385
 7108TIP3    H142739   3.204   4.469   5.225 -1.1087 -2.1502 -2.2754
 7108TIP3    H242740   3.171   4.433   5.368  1.5050  1.1406 -0.7855
 7109TIP3   OH242741   5.397   5.439   2.982 -0.3803  1.0017 -0.2208
 7109TIP3    H142742   5.302   5.439   2.979 -0.4541  2.0762  1.1695
 7109TIP3    H242743   5.418   5.495   3.057  1.3249  0.2803 -0.1357
 7110TIP3   OH242744   2.601   4.376   2.046  0.5401 -0.3661 -0.0099
 7110TIP3    H142745   2.555   4.297   2.019  0.6392 -0.1160 -0.9514
 7110TIP3    H242746   2.540   4.422   2.104 -0.3616 -0.0878 -1.1723
 7111TIP3   OH242747   3.817   0.770  13.239 -0.3272  0.3923 -0.5887
 7111TIP3    H142748   3.740   0.715  13.224 -0.8879  0.6744  1.1633
 7111TIP3    H242749   3.886   0.729  13.187 -1.1105 -1.1348 -0.4510
 7112TIP3   OH242750   2.788   6.761  14.011 -0.0694  0.4251 -0.3880
 7112TIP3    H142751   2.828   6.811  13.941  2.3345  0.6386  1.0921
 7112TIP3    H242752   2.757   6.681  13.969  2.1678  0.1446 -1.5247
 7113TIP3   OH242753   5.894   0.662   2.035 -0.2702  0.1552 -0.3225
 7113TIP3    H142754   5.846   0.745   2.039 -0.2179  0.3068 -2.2847
 7113TIP3    H242755   5.827   0.595   2.044 -0.5205  0.4009 -0.3510
 7114TIP3   OH242756   0.708   3.114  11.732  0.4070  0.3847 -0.1533
 7114TIP3    H142757   0.633   3.171  11.713  0.4797  0.2914 -0.7238
 7114TIP3    H242758   0.669   3.037  11.772  0.1421  0.1011 -0.9468
 7115TIP3   OH242759   4.497   6.414   4.501  0.1312  0.4582  0.2207
 7115TIP3    H142760   4.578   6.414   4.551  0.5374  1.0654 -0.4310
 7115TIP3    H242761   4.454   6.331   4.524  1.2704 -0.1945  0.0038
 7116TIP3   OH242762   4.088   4.594   6.496 -0.4747  0.5454  0.3027
 7116TIP3    H142763   4.156   4.586   6.429 -0.1482 -1.3063  0.8249
 7116TIP3    H242764   4.013   4.547   6.460 -1.7211  3.1506 -0.5575
 7117TIP3   OH242765   5.647   5.486  14.842  0.2074  0.2770 -0.0967
 7117TIP3    H142766   5.639   5.423  14.771  1.3632  0.1189 -0.0926
 7117TIP3    H242767   5.651   5.571  14.799  2.4319  0.0753 -0.3128
 7118TIP3   OH242768   5.558   3.492  17.232 -0.6783  0.5220  0.0790
 7118TIP3    H142769   5.497   3.419  17.220 -0.0843 -0.1744  1.2522
 7118TIP3    H242770   5.503   3.565  17.261 -1.6618  1.3123 -3.4677
 7119TIP3   OH242771   5.843   3.458   3.314 -0.5609  0.0018 -0.4121
 7119TIP3    H142772   5.878   3.519   3.249 -0.7200  0.0437 -0.4587
 7119TIP3    H242773   5.847   3.372   3.272  0.6522 -0.1718  0.0450
 7120TIP3   OH242774   0.747   1.580  14.762  0.3454 -0.1081  0.1896
 7120TIP3    H142775   0.687   1.513  14.795  0.3015  0.4619  1.3183
 7120TIP3    H242776   0.832   1.537  14.758  0.2020 -0.4073  0.3400
 7121TIP3   OH242777   3.051   0.233  15.317 -0.3033  0.5270  0.6433
 7121TIP3    H142778   3.146   0.237  15.317 -0.2374 -0.7926  1.2248
 7121TIP3    H242779   3.026   0.255  15.407 -0.5633  1.0933  0.4372
 7122TIP3   OH242780   4.953   0.297  15.542 -0.5125  0.3885 -0.2508
 7122TIP3    H142781   4.919   0.342  15.619 -0.1753  1.1535 -0.5569
 7122TIP3    H242782   4.907   0.337  15.468 -2.3636 -1.7248 -0.3192
 7123TIP3   OH242783   5.357   5.428  10.805 -0.6221 -0.4127  0.3388
 7123TIP3    H142784   5.343   5.520  10.785 -1.7758 -0.2799  1.6443
 7123TIP3    H242785   5.385   5.389  10.722 -2.0614  0.7138 -0.7057
 7124TIP3   OH242786   0.381   2.565   1.701 -0.3369 -0.7171  0.4000
 7124TIP3    H142787   0.393   2.659   1.715  0.1275 -0.7835  0.4707
 7124TIP3    H242788   0.469   2.533   1.680 -0.6347 -0.9979 -0.4315
 7125TIP3   OH242789   2.292   0.716   1.695 -0.0596 -0.4100 -0.2963
 7125TIP3    H142790   2.229   0.788   1.684 -1.6832 -1.8483 -0.4947
 7125TIP3    H242791   2.355   0.729   1.625 -0.0495  1.1278 -0.0198
 7126TIP3   OH242792   4.711   2.184  11.030  0.0372 -0.2344 -0.4651
 7126TIP3    H142793   4.767   2.240  11.083 -0.4701  1.1116 -1.3204
 7126TIP3    H242794   4.768   2.112  11.002  1.0643  0.5646 -0.4541
 7127TIP3   OH242795   5.529   5.126   1.789 -0.1220 -0.6174 -1.0353
 7127TIP3    H142796   5.593   5.148   1.857  1.0720 -0.9069 -2.0336
 7127TIP3    H242797   5.446   5.160   1.821  0.3385 -1.1740  0.7814
 7128TIP3   OH242798   5.115   5.704  12.345  0.1003  0.2008  0.5701
 7128TIP3    H142799   5.050   5.637  12.366  0.6909 -0.5847 -0.0792
 7128TIP3    H242800   5.154   5.675  12.263  1.8173  0.2439  1.3406
 7129TIP3   OH242801   3.978   1.129  11.241  0.0134 -0.3371  0.5571
 7129TIP3    H142802   4.023   1.069  11.182 -0.6086  0.1209 -0.3964
 7129TIP3    H242803   3.934   1.072  11.303 -0.6819 -0.8771 -0.4183
 7130TIP3   OH242804   3.944   5.605   3.629 -0.5513  0.3113 -0.4545
 7130TIP3    H142805   3.997   5.613   3.549 -0.3093 -0.8333 -0.4173
 7130TIP3    H242806   3.855   5.628   3.601 -0.3036  0.7871 -0.8555
 7131TIP3   OH242807   6.259   1.163   1.177 -0.1550  0.5530 -0.8628
 7131TIP3    H142808   6.201   1.222   1.129 -0.5530  0.0028 -1.0610
 7131TIP3    H242809   6.200   1.112   1.233  0.3310  1.4765  0.5422
 7132TIP3   OH242810   1.110   6.532   0.740  0.3285 -0.1202  0.0265
 7132TIP3    H142811   1.059   6.613   0.737  1.6275  0.6480 -1.9798
 7132TIP3    H242812   1.044   6.463   0.748 -0.8022  1.1119  1.4708
 7133TIP3   OH242813   2.228   1.352  15.964  0.0637  0.5960 -0.4078
 7133TIP3    H142814   2.157   1.399  16.007 -1.0368 -1.3217 -0.0589
 7133TIP3    H242815   2.308   1.396  15.993 -0.8999  1.7403  0.5117
 7134TIP3   OH242816   5.250   3.693  13.716 -0.0353 -0.2510  0.5895
 7134TIP3    H142817   5.345   3.684  13.723 -0.1056 -0.1502  1.7496
 7134TIP3    H242818   5.216   3.608  13.745 -0.4197  0.9589  3.8663
 7135TIP3   OH242819   2.263   2.934   4.892  0.2094  0.5185 -0.2642
 7135TIP3    H142820   2.337   2.874   4.888 -0.7025 -0.6294 -0.2539
 7135TIP3    H242821   2.215   2.918   4.811 -0.5236  0.6008  0.1485
 7136TIP3   OH242822   4.452   0.339   4.382 -0.0125 -0.0056  1.0662
 7136TIP3    H142823   4.476   0.251   4.355  0.7229  0.6056 -0.3124
 7136TIP3    H242824   4.521   0.395   4.346  0.6813  0.9086  3.7370
 7137TIP3   OH242825   3.515   4.965  13.914  0.4725 -0.0749 -0.2453
 7137TIP3    H142826   3.575   4.983  13.841  1.2845 -0.5088  0.3067
 7137TIP3    H242827   3.460   5.043  13.920  0.1628 -0.1879 -1.5590
 7138TIP3   OH242828   2.558   3.559  13.656 -0.1612 -0.1351  0.2699
 7138TIP3    H142829   2.477   3.605  13.682 -0.1423 -0.3830  0.7630
 7138TIP3    H242830   2.528   3.486  13.603 -0.1188  1.2822 -1.7838
 7139TIP3   OH242831   5.529   2.464   3.323 -0.2492  0.1548  0.8936
 7139TIP3    H142832   5.480   2.521   3.382 -0.6425 -1.1303  1.8254
 7139TIP3    H242833   5.464   2.432   3.261  0.2725  1.9713 -0.6403
 7140TIP3   OH242834   6.223   3.948  16.049 -0.1868 -0.2953 -0.8380
 7140TIP3    H142835   6.284   4.020  16.036  2.2201 -2.1910 -0.4046
 7140TIP3    H242836   6.211   3.910  15.962 -1.1977  0.4036 -1.0143
 7141TIP3   OH242837   1.082   2.308  12.255 -0.3689 -0.6863 -0.3462
 7141TIP3    H142838   1.021   2.238  12.231 -0.7694 -0.1768 -0.8084
 7141TIP3    H242839   1.032   2.389  12.245  0.1252 -0.3237  0.0964
 7142TIP3   OH242840   1.599   5.792   3.514  0.6065  0.8161 -0.3951
 7142TIP3    H142841   1.529   5.762   3.571  0.8175  0.8459 -0.1185
 7142TIP3    H242842   1.640   5.864   3.562  0.2693  1.3791 -0.9342
 7143TIP3   OH242843   2.370   6.691  15.115 -0.0202  0.2131  0.2563
 7143TIP3    H142844   2.370   6.742  15.035 -1.5951 -0.5382 -0.2386
 7143TIP3    H242845   2.463   6.675  15.134  0.3459 -0.0594 -1.6958
 7144TIP3   OH242846   4.623   6.045   3.374  0.3293 -0.1984 -0.0904
 7144TIP3    H142847   4.544   5.999   3.399  0.9671 -0.6148  1.2161
 7144TIP3    H242848   4.608   6.072   3.284 -1.4353  0.0468  0.2652
 7145TIP3   OH242849   4.183   3.089   5.134 -0.3237  0.1922  0.6320
 7145TIP3    H142850   4.211   3.002   5.104  0.3271  0.6205 -0.0217
 7145TIP3    H242851   4.262   3.128   5.172 -0.7966  0.2109  1.6101
 7146TIP3   OH242852   5.335   3.352  17.133 -0.5221  0.3710 -0.1611
 7146TIP3    H142853   5.357   3.417  17.067 -2.0659 -0.3870 -1.4501
 7146TIP3    H242854   5.243   3.329  17.115 -0.2276 -1.6058  0.7181
 7147TIP3   OH242855   2.841   4.281   2.979  0.0416  0.3304  0.3250
 7147TIP3    H142856   2.863   4.369   3.008  0.3354  0.5197 -0.4593
 7147TIP3    H242857   2.903   4.224   3.026  0.1147  0.5773  0.5284
 7148TIP3   OH242858   3.617   5.460  12.494  0.2428  0.0296  0.0803
 7148TIP3    H142859   3.655   5.386  12.540  0.8666  0.9469  1.0706
 7148TIP3    H242860   3.586   5.519  12.564  3.1461  2.4534 -0.5822
 7149TIP3   OH242861   3.007   0.672  15.989  0.4725  0.2196  0.0355
 7149TIP3    H142862   3.021   0.652  16.081 -0.1009  0.3109  0.1414
 7149TIP3    H242863   3.046   0.598  15.942  1.6509  0.6473  0.3186
 7150TIP3   OH242864   3.375   5.807  14.558 -0.2591 -0.4010  0.5740
 7150TIP3    H142865   3.307   5.824  14.494  1.5865  1.8566 -0.9148
 7150TIP3    H242866   3.417   5.726  14.529  0.0957  0.2199 -0.7083
 7151TIP3   OH242867   2.980   0.512   4.310  0.1679  0.5325  0.2097
 7151TIP3    H142868   2.997   0.545   4.398 -1.0902 -1.5231  1.2759
 7151TIP3    H242869   2.961   0.419   4.323 -0.7418  0.3594 -2.1420
 7152TIP3   OH242870   5.186   0.760  13.830 -0.0916 -0.2527  0.0303
 7152TIP3    H142871   5.258   0.817  13.860  0.3010 -0.1343 -1.1232
 7152TIP3    H242872   5.225   0.673  13.825  0.3007  0.0007 -1.6932
 7153TIP3   OH242873   5.173   2.361   1.264 -0.5253  0.7163  0.5738
 7153TIP3    H142874   5.216   2.292   1.315 -1.5737  0.5836  1.3068
 7153TIP3    H242875   5.214   2.357   1.178  0.1213 -0.1597  0.9170
 7154TIP3   OH242876   4.228   1.672  16.434  0.1417  0.3227  0.5974
 7154TIP3    H142877   4.277   1.651  16.354  1.2875  2.3804  0.7342
 7154TIP3    H242878   4.262   1.610  16.499  1.8044  0.9861  0.4013
 7155TIP3   OH242879   3.310   6.458   5.762  0.0819 -0.5100  1.1749
 7155TIP3    H142880   3.286   6.535   5.711  1.4651 -0.1251  1.1019
 7155TIP3    H242881   3.378   6.488   5.822  1.4316 -1.9045  0.3817
 7156TIP3   OH242882   5.982   5.331   3.221 -0.0127 -0.5264 -0.0375
 7156TIP3    H142883   5.900   5.303   3.180  0.3089 -2.2128  0.4525
 7156TIP3    H242884   5.993   5.273   3.295 -0.2368  2.0651  2.1046
 7157TIP3   OH242885   4.492   3.061   6.189  0.1292  0.3370 -0.2675
 7157TIP3    H142886   4.397   3.062   6.178  0.1114 -0.2596 -0.1823
 7157TIP3    H242887   4.509   2.982   6.240  0.7398  0.0034 -0.9695
 7158TIP3   OH242888   5.587   2.116  15.432 -0.3309 -0.5881 -0.4831
 7158TIP3    H142889   5.617   2.038  15.385  0.1570 -1.6918  1.6219
 7158TIP3    H242890   5.635   2.188  15.391  0.4357 -1.5891 -1.3738
 7159TIP3   OH242891   4.452   3.029  15.803 -0.6142  0.4142  0.1574
 7159TIP3    H142892   4.389   3.079  15.855 -1.7964 -1.6761  0.7737
 7159TIP3    H242893   4.404   3.006  15.724 -0.7785 -1.5552  0.8168
 7160TIP3   OH242894   3.186   0.236   4.627 -0.2735 -0.6733 -0.4069
 7160TIP3    H142895   3.142   0.258   4.710  0.8727  0.6426 -0.1300
 7160TIP3    H242896   3.128   0.273   4.560  0.2207  0.7485 -0.0595
 7161TIP3   OH242897   0.350   0.891   4.917 -0.4465 -0.1909 -0.5379
 7161TIP3    H142898   0.311   0.967   4.959 -2.8216 -1.3972 -0.4483
 7161TIP3    H242899   0.350   0.823   4.985 -0.2893 -0.8648 -1.1995
 7162TIP3   OH242900   4.772   2.157  13.714 -0.2634  0.4864  0.0783
 7162TIP3    H142901   4.862   2.181  13.733  0.2429 -0.3313 -1.1622
 7162TIP3    H242902   4.733   2.139  13.800  0.4476  1.8327  0.7003
 7163TIP3   OH242903   1.822   6.528  16.191  0.3526 -0.7392  0.1546
 7163TIP3    H142904   1.765   6.451  16.191 -3.0211  1.6046 -0.7530
 7163TIP3    H242905   1.802   6.572  16.274 -2.8808  2.5913 -2.2561
 7164TIP3   OH242906   1.465   4.962   0.227  0.2624 -0.1107 -0.1583
 7164TIP3    H142907   1.457   5.058   0.221  0.2268  0.0050  1.6981
 7164TIP3    H242908   1.386   4.929   0.184 -1.6706  0.7742  2.5901
 7165TIP3   OH242909   0.600   3.341   3.880  0.3130  0.3897  0.0467
 7165TIP3    H142910   0.617   3.393   3.959  4.2565 -0.3941 -0.1836
 7165TIP3    H242911   0.591   3.405   3.810 -1.0023  1.0003  0.7635
 7166TIP3   OH242912   3.518   4.204  13.343 -0.3970 -0.1655 -0.6854
 7166TIP3    H142913   3.543   4.117  13.313  2.3134  0.4441 -0.2586
 7166TIP3    H242914   3.515   4.257  13.263 -2.1793 -0.6366 -0.9614
 7167TIP3   OH242915   2.372   1.774  16.568 -0.5578 -0.0758 -0.5115
 7167TIP3    H142916   2.332   1.696  16.529 -1.2026 -0.7490  1.4168
 7167TIP3    H242917   2.397   1.746  16.657  1.3182  1.2634 -0.5950
 7168TIP3   OH242918   4.916   4.626  17.223 -0.2712 -0.3370 -0.0812
 7168TIP3    H142919   4.904   4.644  17.317  0.9193  0.1319 -0.0221
 7168TIP3    H242920   4.871   4.542  17.210 -0.4846 -0.3875  0.8933
 7169TIP3   OH242921   5.514   5.656   5.703  0.0486 -0.2337 -0.1122
 7169TIP3    H142922   5.516   5.752   5.696 -3.3312 -0.1030  0.1758
 7169TIP3    H242923   5.589   5.627   5.650  1.6534  2.5754  0.5088
 7170TIP3   OH242924   2.251   4.685  11.090  0.0772 -0.0969  0.3499
 7170TIP3    H142925   2.259   4.645  11.177  1.3987  2.0190  1.2414
 7170TIP3    H242926   2.311   4.635  11.035  3.3782  1.8943  1.9501
 7171TIP3   OH242927   6.572   4.945  15.369  0.3540 -0.7782  0.4722
 7171TIP3    H142928   6.545   4.870  15.421  0.0971 -1.6250 -0.8657
 7171TIP3    H242929   6.567   4.915  15.278  1.1624  0.5550 -0.0342
 7172TIP3   OH242930   4.726   4.387   5.337 -0.1205  0.2119  0.3281
 7172TIP3    H142931   4.750   4.473   5.371  0.7248 -0.1602  0.6855
 7172TIP3    H242932   4.631   4.382   5.348 -0.5946  2.2693 -2.3927
 7173TIP3   OH242933   4.524   1.433  15.561 -0.0460 -0.1199 -0.1803
 7173TIP3    H142934   4.464   1.504  15.588  0.6818  0.8341 -1.0275
 7173TIP3    H242935   4.601   1.479  15.528  0.8204 -1.3389  0.1425
 7174TIP3   OH242936   1.378   5.962   4.634  0.0127  0.1289  0.2293
 7174TIP3    H142937   1.340   5.939   4.719  0.2865  0.6163  0.4909
 7174TIP3    H242938   1.421   6.046   4.650  1.2313 -0.4212 -0.0319
 7175TIP3   OH242939   1.392   6.717  11.722  0.4277  0.0228 -0.1991
 7175TIP3    H142940   1.356   6.632  11.698 -3.0197  0.6608  2.2943
 7175TIP3    H242941   1.360   6.777  11.654 -0.2360 -0.0601  0.0348
 7176TIP3   OH242942   1.300   1.314  11.251  0.0769 -0.6801  0.2467
 7176TIP3    H142943   1.334   1.225  11.254  2.4678  0.2587  3.5402
 7176TIP3    H242944   1.361   1.361  11.195  0.1593 -0.5759  0.4241
 7177TIP3   OH242945   6.151   3.842   1.628 -0.3703  0.1699  0.1254
 7177TIP3    H142946   6.224   3.861   1.570 -0.5795  1.4118  0.2491
 7177TIP3    H242947   6.079   3.894   1.593 -1.4803 -1.7792 -0.5760
 7178TIP3   OH242948   6.167   0.116   3.744  0.4693  0.0389  0.0887
 7178TIP3    H142949   6.197   0.206   3.751  0.9252  0.0046 -1.2457
 7178TIP3    H242950   6.212   0.082   3.666 -0.1883 -1.1331  0.2129
 7179TIP3   OH242951   3.642   4.480  11.484  0.0314 -0.1557  0.6693
 7179TIP3    H142952   3.603   4.404  11.440  0.3040  0.3852 -0.5540
 7179TIP3    H242953   3.674   4.447  11.567 -0.7025 -1.1717  0.5496
 7180TIP3   OH242954   2.298   3.509   0.683 -0.0120  0.2497 -0.0559
 7180TIP3    H142955   2.264   3.501   0.773  2.2082 -1.5025  0.6616
 7180TIP3    H242956   2.385   3.471   0.687 -0.7804 -2.0994 -3.5227
 7181TIP3   OH242957   0.185   2.781   2.353 -0.1150 -0.4837  0.1630
 7181TIP3    H142958   0.196   2.841   2.427  1.7751  0.6103 -0.9611
 7181TIP3    H242959   0.118   2.821   2.298  2.2852  1.5320 -1.4171
 7182TIP3   OH242960   2.036   0.493  16.340 -0.1728 -0.2032 -0.6082
 7182TIP3    H142961   2.101   0.563  16.345 -1.5713  1.0787  0.0019
 7182TIP3    H242962   1.952   0.538  16.339 -1.0757 -1.8435 -1.3029
 7183TIP3   OH242963   0.866   3.977   0.764  0.0010  0.0366  0.1238
 7183TIP3    H142964   0.946   4.025   0.742  0.1797 -0.0077  0.6777
 7183TIP3    H242965   0.815   4.040   0.816 -1.0991  0.6876 -1.6858
 7184TIP3   OH242966   0.185   1.354   3.279 -0.1799 -0.1120  0.2101
 7184TIP3    H142967   0.259   1.405   3.312 -0.0198 -0.4785  0.4281
 7184TIP3    H242968   0.117   1.365   3.344  0.4994 -1.7009  1.2300
 7185TIP3   OH242969   0.478   5.489  15.816  0.6819 -0.1138 -0.2158
 7185TIP3    H142970   0.473   5.506  15.722 -0.6796  1.3598  0.0992
 7185TIP3    H242971   0.387   5.473  15.843  0.8611  0.9568  1.0938
 7186TIP3   OH242972   1.247   2.008  15.834  0.2497 -0.2686  0.0147
 7186TIP3    H142973   1.337   2.022  15.864 -0.0112 -0.3228  0.8532
 7186TIP3    H242974   1.211   1.946  15.897 -0.1074 -0.9223 -0.8355
 7187TIP3   OH242975   5.118   1.784  10.775  0.3322 -0.7479  0.2757
 7187TIP3    H142976   5.066   1.728  10.717  0.0702 -0.4853  0.2518
 7187TIP3    H242977   5.070   1.783  10.858 -1.0629  1.4360 -0.4416
 7188TIP3   OH242978   4.266   4.172   3.805  0.1137  0.4436  0.1589
 7188TIP3    H142979   4.175   4.157   3.779  0.5503 -2.8643  0.3494
 7188TIP3    H242980   4.282   4.106   3.873  2.0437  2.3454  1.6158
 7189TIP3   OH242981   5.042   5.423   4.070  0.6446 -0.0066  0.3807
 7189TIP3    H142982   4.977   5.482   4.033  0.1404 -0.4797  0.4997
 7189TIP3    H242983   5.009   5.403   4.158  1.8301  1.1086  1.0973
 7190TIP3   OH242984   4.818   0.885   2.170  0.3140 -0.2677  0.0911
 7190TIP3    H142985   4.903   0.913   2.203 -0.6129  2.9257 -0.0973
 7190TIP3    H242986   4.838   0.820   2.103  2.6041  0.6496 -0.1315
 7191TIP3   OH242987   1.287   2.318   2.057  0.3215  0.7325  0.6030
 7191TIP3    H142988   1.368   2.340   2.012  0.1199  0.8762  0.3103
 7191TIP3    H242989   1.219   2.331   1.991 -0.0991  2.1008  1.2954
 7192TIP3   OH242990   0.441   1.619  13.772  0.0516  0.7606 -0.3887
 7192TIP3    H142991   0.531   1.602  13.799  0.5515  2.0146 -1.1940
 7192TIP3    H242992   0.435   1.585  13.683 -1.5709 -3.2908  1.1882
 7193TIP3   OH242993   3.884   3.869  11.845 -0.1825  0.1460 -0.2722
 7193TIP3    H142994   3.959   3.870  11.785  0.2969 -0.3209  0.3188
 7193TIP3    H242995   3.808   3.886  11.788  0.1033 -1.6987 -1.2732
 7194TIP3   OH242996   5.078   1.197  10.943 -0.4018  0.1345  0.0658
 7194TIP3    H142997   5.024   1.211  11.021  0.5326  0.0064  0.7483
 7194TIP3    H242998   5.030   1.240  10.872 -0.4654  1.6932  1.0201
 7195TIP3   OH242999   5.750   0.265   5.635 -0.4144 -0.2458  0.7571
 7195TIP3    H143000   5.772   0.172   5.636 -3.0821 -0.9332  0.6412
 7195TIP3    H243001   5.790   0.299   5.556  0.1026 -1.4261  0.4998
 7196TIP3   OH243002   3.920   1.071  12.369  0.0635  0.1824 -0.0642
 7196TIP3    H143003   3.926   0.994  12.312  1.0346 -2.1952  3.1310
 7196TIP3    H243004   4.010   1.103  12.375 -0.1528  0.8590 -0.4472
 7197TIP3   OH243005   6.698   4.253  11.904  0.2639 -0.0024 -0.0251
 7197TIP3    H143006   6.689   4.247  12.000 -1.8969 -0.6197 -0.2371
 7197TIP3    H243007   6.675   4.166  11.873 -0.2789  0.5446 -1.1774
 7198TIP3   OH243008   5.577   0.053   0.360  0.2094  0.6207 -0.3499
 7198TIP3    H143009   5.654   0.109   0.362 -0.3145  1.3545 -0.7354
 7198TIP3    H243010   5.565   0.027   0.452  0.2452  1.4179 -0.1151
 7199TIP3   OH243011   3.060   4.121  11.294 -0.5411  0.7213 -0.2262
 7199TIP3    H143012   3.078   4.113  11.200 -1.8907 -0.3734 -0.3909
 7199TIP3    H243013   3.068   4.032  11.328  0.0498  1.1281  0.7270
 7200TIP3   OH243014   5.908   3.220  15.209  0.2579 -0.2504  0.5637
 7200TIP3    H143015   5.906   3.297  15.266 -0.5281  0.4699 -0.4369
 7200TIP3    H243016   5.855   3.244  15.133 -2.0602 -2.6732  1.3623
 7201TIP3   OH243017   6.228   2.899  15.221  0.2061 -0.2274 -0.4602
 7201TIP3    H143018   6.244   2.810  15.253 -0.4472  0.1390  0.9280
 7201TIP3    H243019   6.298   2.952  15.260 -1.8683  0.6157  2.1746
 7202TIP3   OH243020   3.886   6.067  12.458  0.2956 -0.2356 -0.2605
 7202TIP3    H143021   3.947   6.134  12.488 -0.9688  1.7193 -1.8763
 7202TIP3    H243022   3.942   6.002  12.413  1.4074  0.3341  0.2763
 7203TIP3   OH243023   3.521   5.339  16.321  0.2015  0.0588 -0.5889
 7203TIP3    H143024   3.512   5.431  16.295  1.6539  0.3008 -0.2965
 7203TIP3    H243025   3.458   5.327  16.392 -1.2807  0.3411 -1.8454
 7204TIP3   OH243026   6.338   3.403   4.486  0.0370  0.5558 -0.1559
 7204TIP3    H143027   6.318   3.485   4.441  0.4779  2.2370  2.5697
 7204TIP3    H243028   6.429   3.384   4.462 -0.4106  0.2838 -1.6534
 7205TIP3   OH243029   4.750   4.707   2.968 -0.0930 -0.2170  0.6298
 7205TIP3    H143030   4.683   4.761   2.925 -1.6814 -3.3449 -0.9308
 7205TIP3    H243031   4.833   4.743   2.938 -1.0812  2.0905  0.5584
 7206TIP3   OH243032   3.939   4.430   3.653  0.6006 -0.2676 -0.1823
 7206TIP3    H143033   3.971   4.496   3.714  2.2188 -1.1715 -0.0492
 7206TIP3    H243034   3.888   4.480   3.589  2.8994  1.3052 -0.8374
 7207TIP3   OH243035   4.238   1.167  16.594  0.1955 -0.2894  0.5619
 7207TIP3    H143036   4.315   1.130  16.637 -2.4832 -2.3271  3.8878
 7207TIP3    H243037   4.185   1.203  16.666 -2.2485  0.4593 -1.5315
 7208TIP3   OH243038   4.665   6.068   3.023 -0.2056 -0.5895 -0.1323
 7208TIP3    H143039   4.731   6.116   3.074 -1.6303 -0.6173  1.7759
 7208TIP3    H243040   4.702   6.065   2.935  1.3687  1.2719  0.4081
 7209TIP3   OH243041   0.261   6.641  14.083 -0.5255  0.4103  0.2046
 7209TIP3    H143042   0.268   6.717  14.026  0.2464  0.8279  0.8399
 7209TIP3    H243043   0.243   6.568  14.024  0.5381  0.7868 -0.5914
 7210TIP3   OH243044   5.875   4.069   4.848  0.3576 -0.1410  0.1417
 7210TIP3    H143045   5.794   4.033   4.810 -0.1010  1.3100 -0.3067
 7210TIP3    H243046   5.943   4.047   4.785 -0.0566  0.4632 -0.5272
 7211TIP3   OH243047   1.243   5.081   0.561 -0.1980  0.1743 -0.3700
 7211TIP3    H143048   1.153   5.097   0.590 -0.0347 -0.2030  0.3520
 7211TIP3    H243049   1.294   5.150   0.603  0.2369 -1.1461  1.3020
 7212TIP3   OH243050   4.933   0.265   4.684  0.2513 -0.1319 -0.2457
 7212TIP3    H143051   4.926   0.193   4.622 -1.1526  0.6638 -1.0216
 7212TIP3    H243052   4.856   0.257   4.740 -0.3548  1.2390 -0.8618
 7213TIP3   OH243053   1.017   1.332   6.206 -0.1033  0.4244  0.4397
 7213TIP3    H143054   0.925   1.307   6.199 -0.3120  1.5651 -1.3914
 7213TIP3    H243055   1.045   1.345   6.115  1.3049  2.0615  1.0710
 7214TIP3   OH243056   6.759   1.772   2.919 -0.2117  0.2835  0.4318
 7214TIP3    H143057   6.767   1.780   3.014  1.6721  2.0910  0.1523
 7214TIP3    H243058   6.686   1.829   2.896 -1.4729 -1.1060  0.8988
 7215TIP3   OH243059   2.109   1.335  11.569 -0.5338 -0.2865  0.1643
 7215TIP3    H143060   2.137   1.264  11.512  2.1306  1.1941 -0.4813
 7215TIP3    H243061   2.047   1.385  11.517 -1.6269 -1.5329  0.2533
 7216TIP3   OH243062   4.866   1.786  12.201  0.0443  0.0473 -0.2095
 7216TIP3    H143063   4.824   1.779  12.115 -0.9030 -1.2171  0.3481
 7216TIP3    H243064   4.860   1.699  12.239  0.6698  0.5347  1.0556
 7217TIP3   OH243065   0.265   3.636   4.664  0.4510  0.0769  0.0829
 7217TIP3    H143066   0.359   3.622   4.668  0.6329  1.0031 -0.7537
 7217TIP3    H243067   0.235   3.627   4.755  1.2523 -0.7711  0.2688
 7218TIP3   OH243068   3.303   2.222   0.186  0.4739 -0.1885 -0.2435
 7218TIP3    H143069   3.228   2.191   0.135  2.1792 -0.5882 -2.6052
 7218TIP3    H243070   3.345   2.142   0.217  0.8158 -0.0113 -0.2528
 7219TIP3   OH243071   2.388   1.116  12.857  0.8126  0.0179 -0.3118
 7219TIP3    H143072   2.342   1.199  12.872 -0.6003 -0.6134 -1.0797
 7219TIP3    H243073   2.472   1.142  12.819  0.9230  1.1669  0.6856
 7220TIP3   OH243074   2.257   5.761   0.096 -0.5036  0.8130 -0.0443
 7220TIP3    H143075   2.312   5.814   0.038 -0.9509  0.1822 -1.0635
 7220TIP3    H243076   2.257   5.674   0.055 -1.2738  0.5043  0.6112
 7221TIP3   OH243077   4.318   4.644  15.309 -1.1002  0.4251 -0.3575
 7221TIP3    H143078   4.234   4.632  15.352 -0.7907  0.1151  0.1742
 7221TIP3    H243079   4.357   4.721  15.351 -0.4500 -0.3542  0.4922
 7222TIP3   OH243080   0.244   1.438  13.299  0.4080 -0.5765 -0.1169
 7222TIP3    H143081   0.179   1.432  13.369  0.8981  1.5920  0.5537
 7222TIP3    H243082   0.218   1.514  13.248 -0.3189 -2.5319 -2.7284
 7223TIP3   OH243083   5.808   6.564   0.101 -0.0201  0.5638 -0.2516
 7223TIP3    H143084   5.789   6.626   0.172  1.2755  0.3307  0.3090
 7223TIP3    H243085   5.901   6.578   0.082  0.2413 -1.0899 -0.2456
 7224TIP3   OH243086   2.293   5.414   4.916  0.2878  0.1028 -0.0585
 7224TIP3    H143087   2.349   5.340   4.940 -0.9868 -0.4310  1.3863
 7224TIP3    H243088   2.284   5.464   4.997 -1.0788  0.3444 -0.3531
 7225TIP3   OH243089   1.822   4.395   3.557 -0.4654 -0.0799  0.2639
 7225TIP3    H143090   1.836   4.309   3.596  0.1986 -0.6248 -1.1424
 7225TIP3    H243091   1.891   4.404   3.492  1.2054  2.7149  2.3099
 7226TIP3   OH243092   2.939   0.180   2.738 -0.7223 -0.4615 -0.9256
 7226TIP3    H143093   3.022   0.167   2.693  1.3812 -0.0407  2.6652
 7226TIP3    H243094   2.936   0.275   2.755 -1.6005 -0.5733 -0.4295
 7227TIP3   OH243095   6.065   2.166   3.432  0.3636  0.4352  0.0747
 7227TIP3    H143096   5.976   2.132   3.429  0.8268 -0.8551  0.5298
 7227TIP3    H243097   6.089   2.176   3.340  0.0645 -0.0792 -0.0652
 7228TIP3   OH243098   1.665   3.767   5.389  0.6027 -0.2903  0.1427
 7228TIP3    H143099   1.735   3.809   5.339 -0.1266  0.3616 -0.3509
 7228TIP3    H243100   1.611   3.724   5.322  0.8784 -1.3144  0.5733
 7229TIP3   OH243101   5.323   4.224   4.615  0.0625  0.3118 -0.0612
 7229TIP3    H143102   5.293   4.311   4.587 -0.7547  0.0345 -0.0731
 7229TIP3    H243103   5.320   4.227   4.710 -2.0381 -0.3849 -0.0714
 7230TIP3   OH243104   1.515   1.734   4.687  0.2741  0.1056 -0.0084
 7230TIP3    H143105   1.513   1.731   4.592 -0.8567  0.1524  0.0009
 7230TIP3    H243106   1.540   1.646   4.714  0.0352 -0.0636 -0.3451
 7231TIP3   OH243107   0.435   0.502   2.790  0.1044  0.2927 -0.0568
 7231TIP3    H143108   0.465   0.503   2.881 -2.2060 -1.0250  0.7744
 7231TIP3    H243109   0.364   0.566   2.788 -1.2732 -1.2047 -0.3768
 7232TIP3   OH243110   1.517   6.325   4.452 -0.1561 -0.8373  0.5271
 7232TIP3    H143111   1.599   6.363   4.422 -0.6803  0.9560  1.2927
 7232TIP3    H243112   1.454   6.349   4.384 -0.4773 -0.3441  0.9893
 7233TIP3   OH243113   0.634   1.155   3.403 -0.2522  0.0321 -0.2485
 7233TIP3    H143114   0.644   1.199   3.487  0.9960 -1.0779  0.2065
 7233TIP3    H243115   0.699   1.196   3.346  0.5417 -0.8394  0.0213
 7234TIP3   OH243116   3.521   3.463  13.842  0.8437 -0.0756  0.5498
 7234TIP3    H143117   3.525   3.487  13.749 -0.2901  1.2562  0.8319
 7234TIP3    H243118   3.524   3.546  13.889 -1.8410 -0.5120  1.5845
 7235TIP3   OH243119   4.983   2.725  13.492  0.6814 -0.2954 -0.1266
 7235TIP3    H143120   5.006   2.787  13.561 -0.8144 -0.1366  0.2497
 7235TIP3    H243121   5.034   2.646  13.512 -0.4155 -0.5712  1.6899
 7236TIP3   OH243122   5.081   2.840  14.931 -0.1974  0.2054 -0.3527
 7236TIP3    H143123   5.023   2.820  14.857 -0.6345 -1.4273  0.4124
 7236TIP3    H243124   5.167   2.854  14.891 -0.3568 -1.0148 -1.1398
 7237TIP3   OH243125   3.797   2.264  16.114 -0.5449 -0.5192 -0.2254
 7237TIP3    H143126   3.798   2.264  16.018  0.2987 -2.9830 -0.2710
 7237TIP3    H243127   3.706   2.280  16.138 -0.6219  0.8827 -1.4247
 7238TIP3   OH243128   6.694   2.040   2.006  0.8175  0.3168 -0.6608
 7238TIP3    H143129   6.676   2.129   1.978  1.2634  0.2978 -1.0054
 7238TIP3    H243130   6.730   1.997   1.928  2.0649  0.2648 -0.0622
 7239TIP3   OH243131   1.426   4.062  11.841 -0.0982  0.0142 -0.4871
 7239TIP3    H143132   1.467   4.057  11.755  1.2347  0.4549  0.1084
 7239TIP3    H243133   1.494   4.033  11.902 -0.0337  2.4570  0.6838
 7240TIP3   OH243134   2.537   2.027  12.547  0.5803 -0.2966 -0.3601
 7240TIP3    H143135   2.597   2.073  12.606  0.8041  0.2067 -0.9739
 7240TIP3    H243136   2.450   2.053  12.577  0.6775 -0.6366  0.2206
 7241TIP3   OH243137   1.739   4.228   4.084 -0.0014 -0.3128  0.2743
 7241TIP3    H143138   1.771   4.151   4.038 -0.0791  0.2458 -0.7231
 7241TIP3    H243139   1.774   4.219   4.173 -0.6321 -1.8587  0.3765
 7242TIP3   OH243140   1.566   5.774  14.852 -0.6232 -0.3001  0.2837
 7242TIP3    H143141   1.490   5.717  14.855 -0.7296 -0.1802 -0.1708
 7242TIP3    H243142   1.563   5.822  14.935 -1.4248  0.2051 -0.0303
 7243TIP3   OH243143   1.268   3.034   0.535 -0.1680  0.0174  0.4320
 7243TIP3    H143144   1.335   3.102   0.543  0.6686 -0.6503 -0.7548
 7243TIP3    H243145   1.215   3.061   0.461  0.5679 -0.9389 -0.4667
 7244TIP3   OH243146   6.482   2.408   6.048  0.4010  0.2252  0.3571
 7244TIP3    H143147   6.403   2.463   6.051 -0.4051 -0.9695  1.8297
 7244TIP3    H243148   6.461   2.340   5.984  0.3599  0.0764  0.5304
 7245TIP3   OH243149   3.302   2.475  16.151  0.1638  0.6548  0.1198
 7245TIP3    H143150   3.274   2.498  16.239 -0.0536 -1.8735  0.7500
 7245TIP3    H243151   3.306   2.379  16.151  0.0653  0.6077 -2.6418
 7246TIP3   OH243152   6.096   3.043   6.703  0.4429  0.8829  0.8976
 7246TIP3    H143153   6.005   3.031   6.676  0.8305  0.0184 -0.0817
 7246TIP3    H243154   6.146   2.986   6.644  1.4541  0.0449  2.5210
 7247TIP3   OH243155   4.914   3.092  13.347 -0.0728 -0.4281  0.2524
 7247TIP3    H143156   4.935   3.009  13.305  0.9970  1.4188 -3.0409
 7247TIP3    H243157   4.996   3.122  13.385 -0.1095 -0.1714  0.1322
 7248TIP3   OH243158   6.297   3.285  12.015 -0.2470 -0.2902 -0.1826
 7248TIP3    H143159   6.207   3.261  11.991 -0.2747  1.0415 -1.5621
 7248TIP3    H243160   6.341   3.202  12.030 -1.7371 -0.9606  0.5982
 7249TIP3   OH243161   2.847   1.026  15.607  0.3366  0.2832 -0.1853
 7249TIP3    H143162   2.797   0.950  15.636  0.7031 -0.7853 -2.2802
 7249TIP3    H243163   2.933   0.991  15.582 -0.3225  0.9096 -3.6120
 7250TIP3   OH243164   1.169   5.130  11.673 -0.0206  0.4442 -0.0827
 7250TIP3    H143165   1.240   5.099  11.728 -0.2402 -1.2458 -0.7165
 7250TIP3    H243166   1.186   5.224  11.661 -0.8290  1.2209  4.0851
 7251TIP3   OH243167   1.043   2.160  12.723  0.3185  0.4369 -0.3388
 7251TIP3    H143168   1.128   2.134  12.758  0.8891 -2.3041 -3.4196
 7251TIP3    H243169   1.064   2.218  12.650 -0.5551  1.3135  0.1005
 7252TIP3   OH243170   3.051   0.023   2.039 -0.0680 -0.7505 -0.2080
 7252TIP3    H143171   2.992  -0.032   1.988  0.7113 -1.1394 -0.6951
 7252TIP3    H243172   3.007   0.032   2.124 -0.9453 -0.8298 -0.6411
 7253TIP3   OH243173   1.749   5.032  17.058 -0.5376 -0.0612 -0.7170
 7253TIP3    H143174   1.772   5.091  16.987  1.2553  0.3176  0.1495
 7253TIP3    H243175   1.760   4.944  17.021  0.8410  0.1286 -0.7940
 7254TIP3   OH243176   4.719   0.840  11.835  0.2728  0.5266  0.4290
 7254TIP3    H143177   4.794   0.896  11.859  1.0155  0.3912 -1.4816
 7254TIP3    H243178   4.711   0.852  11.741 -1.9155  0.2465  0.5721
 7255TIP3   OH243179   5.100   3.682  13.036 -0.1902 -0.0821  0.1376
 7255TIP3    H143180   5.141   3.766  13.058  0.0931 -0.5574  1.5024
 7255TIP3    H243181   5.173   3.621  13.029 -0.5186 -0.5904  0.9814
 7256TIP3   OH243182   6.778   4.558  13.373  0.2405 -0.1772  0.1299
 7256TIP3    H143183   6.801   4.530  13.284 -0.6889  1.6849 -0.7016
 7256TIP3    H243184   6.831   4.501  13.429  0.8993 -1.3266 -1.5972
 7257TIP3   OH243185   4.948   2.327   5.348 -0.0306 -0.1562 -0.0631
 7257TIP3    H143186   4.911   2.249   5.307  1.2784 -0.0479 -1.5163
 7257TIP3    H243187   4.970   2.384   5.274 -0.1211  1.1963  0.9395
 7258TIP3   OH243188   2.951   6.231   2.876  0.7572  0.7995  0.2577
 7258TIP3    H143189   3.040   6.214   2.844  0.8856  2.0096 -0.0373
 7258TIP3    H243190   2.948   6.190   2.962  0.7310 -1.6383 -0.8331
 7259TIP3   OH243191   0.112   1.749  14.724  0.0900 -0.4146  0.6281
 7259TIP3    H143192   0.127   1.655  14.711 -0.7351 -0.5911  0.9051
 7259TIP3    H243193   0.018   1.755  14.744 -0.0538  0.5688 -0.3537
 7260TIP3   OH243194   6.382   5.361  13.409  0.1257 -0.1432  0.2775
 7260TIP3    H143195   6.413   5.390  13.495  0.2322 -0.7238  0.4311
 7260TIP3    H243196   6.403   5.268  13.405 -1.0866 -0.4283  0.1653
 7261TIP3   OH243197   3.933   5.666   3.916  0.0806 -0.7096 -1.3637
 7261TIP3    H143198   3.932   5.666   3.820  0.3365  0.6597 -1.3902
 7261TIP3    H243199   3.866   5.730   3.940  0.8693 -0.1218 -0.6763
 7262TIP3   OH243200   6.090   5.662  11.832  0.7481  0.4148 -0.2475
 7262TIP3    H143201   6.066   5.720  11.760  0.1928  0.1404 -0.2786
 7262TIP3    H243202   6.085   5.717  11.910 -1.3072  0.0052 -0.0834
 7263TIP3   OH243203   0.197   4.187  12.244 -0.3756  0.1805  0.1676
 7263TIP3    H143204   0.211   4.130  12.319 -2.4230  1.0146  1.2180
 7263TIP3    H243205   0.267   4.252  12.249 -0.1177 -0.1534  0.9790
 7264TIP3   OH243206   1.048   4.381   3.312  0.2589  0.1678  0.5062
 7264TIP3    H143207   1.092   4.424   3.239  2.7835 -1.5266  0.9718
 7264TIP3    H243208   1.008   4.453   3.361  1.0835  1.6106 -0.8764
 7265TIP3   OH243209   0.090   0.195   1.713  0.0688  0.0509 -0.0743
 7265TIP3    H143210   0.022   0.208   1.647  0.3494  0.7272 -0.2407
 7265TIP3    H243211   0.161   0.151   1.666  0.1484  0.2592 -0.1489
 7266TIP3   OH243212   2.504   0.643   1.506 -0.1698 -0.0684 -0.3049
 7266TIP3    H143213   2.488   0.588   1.429 -1.4621  0.9370 -0.7990
 7266TIP3    H243214   2.556   0.716   1.473  1.1579 -0.7593  0.2501
 7267TIP3   OH243215   6.120   4.865  11.223 -0.1362  0.4389 -0.0850
 7267TIP3    H143216   6.161   4.817  11.151  1.5649 -0.3467  1.3420
 7267TIP3    H243217   6.058   4.802  11.261 -0.7280  0.7084 -0.6082
 7268TIP3   OH243218   1.922   5.751   3.740 -0.6710  0.3929 -0.1945
 7268TIP3    H143219   2.010   5.752   3.777 -0.5726  0.8774 -0.4358
 7268TIP3    H243220   1.905   5.660   3.718 -0.2121  0.3068 -0.1810
 7269TIP3   OH243221   6.753   4.432   3.460  0.0183  0.8345 -0.2928
 7269TIP3    H143222   6.669   4.402   3.495  1.1049 -1.0651  0.6987
 7269TIP3    H243223   6.798   4.472   3.535  1.0054 -0.3567 -0.2332
 7270TIP3   OH243224   1.334   4.531   4.920 -0.8412 -0.2429 -0.4470
 7270TIP3    H143225   1.364   4.463   4.859 -0.1041 -0.9755  0.7055
 7270TIP3    H243226   1.414   4.559   4.964 -1.7384 -1.7438  2.2161
 7271TIP3   OH243227   1.771   1.661  11.094  0.2106 -0.1026  0.1062
 7271TIP3    H143228   1.751   1.651  11.000  0.8729 -1.3655  0.0903
 7271TIP3    H243229   1.863   1.639  11.101 -0.1040 -1.0718  1.2286
 7272TIP3   OH243230   6.580   0.546  16.384 -0.5444 -0.0914  0.8353
 7272TIP3    H143231   6.625   0.628  16.403  1.2929 -0.6935 -0.7586
 7272TIP3    H243232   6.494   0.556  16.425 -0.0316  2.2584  1.4261
 7273TIP3   OH243233   1.650   1.988   3.386  0.4247 -0.1001 -0.3972
 7273TIP3    H143234   1.730   1.988   3.334  0.8897  0.0365  0.3197
 7273TIP3    H243235   1.611   1.902   3.369  1.1055 -0.4602 -0.1652
 7274TIP3   OH243236   0.552   4.519  11.219 -0.1293 -0.0878  0.3598
 7274TIP3    H143237   0.607   4.456  11.174  2.2994  1.1755  1.4618
 7274TIP3    H243238   0.576   4.511  11.312  0.1299  2.3176  0.5415
 7275TIP3   OH243239   6.312   1.953   2.856 -0.8140 -0.5285 -0.2723
 7275TIP3    H143240   6.311   1.913   2.943 -3.0371 -1.7333 -0.8266
 7275TIP3    H243241   6.220   1.971   2.836 -0.2573  0.5240 -2.0283
 7276TIP3   OH243242   4.013   2.902  16.236 -0.0433 -1.0638 -0.1042
 7276TIP3    H143243   3.964   2.855  16.303  0.7614 -2.5215 -0.5394
 7276TIP3    H243244   4.100   2.863  16.236  0.9168  0.9751  0.0990
 7277TIP3   OH243245   3.570   4.053   5.572 -0.2761  0.0447  0.4163
 7277TIP3    H143246   3.606   4.064   5.660  0.7121 -0.1398  0.0383
 7277TIP3    H243247   3.635   4.093   5.514 -1.0337  0.3822 -0.2150
 7278TIP3   OH243248   3.468   0.998   0.772 -0.0165  0.2980  0.2553
 7278TIP3    H143249   3.411   1.021   0.698  1.2338 -0.7268 -1.0315
 7278TIP3    H243250   3.557   1.014   0.741  0.6209 -1.7336  0.9581
 7279TIP3   OH243251   5.727   5.387  16.929  0.3245 -0.0729  0.1346
 7279TIP3    H143252   5.776   5.369  17.009  0.9499  3.5299  0.6480
 7279TIP3    H243253   5.733   5.306  16.878 -0.1873 -2.4702  3.7309
 7280TIP3   OH243254   4.523   2.691   0.498 -0.2859  0.0366  0.3542
 7280TIP3    H143255   4.427   2.697   0.500 -0.2892 -0.3463  1.4933
 7280TIP3    H243256   4.552   2.757   0.561  0.1996  0.0775  0.0850
 7281TIP3   OH243257   2.100   0.426  13.552 -0.2790  0.7629  0.1431
 7281TIP3    H143258   2.176   0.473  13.586 -0.8174  1.5396  0.2866
 7281TIP3    H243259   2.084   0.466  13.466  1.5170 -1.6694 -1.3947
 7282TIP3   OH243260   2.823   6.433  10.724  0.3136 -0.2678 -0.4223
 7282TIP3    H143261   2.785   6.351  10.757 -0.9639 -0.3198 -1.9327
 7282TIP3    H243262   2.754   6.470  10.669  2.1733  0.0592 -2.5810
 7283TIP3   OH243263   0.264   2.510   5.166 -0.2524 -0.4042 -0.0327
 7283TIP3    H143264   0.237   2.599   5.144  0.2117 -0.5944 -1.4474
 7283TIP3    H243265   0.195   2.454   5.131 -0.6424 -0.6064  1.0300
 7284TIP3   OH243266   3.013   1.779   2.305  0.0940  0.7801  0.2190
 7284TIP3    H143267   2.954   1.829   2.249 -1.1353 -0.5672  0.2984
 7284TIP3    H243268   3.032   1.699   2.257 -0.8799 -0.3423  1.6592
 7285TIP3   OH243269   5.781   4.715  15.256  0.4410  0.1164  0.1583
 7285TIP3    H143270   5.825   4.681  15.334  0.1114 -2.4002 -0.6903
 7285TIP3    H243271   5.710   4.769  15.290  0.4963 -0.6850  1.6225
 7286TIP3   OH243272   5.451   1.354  14.868 -0.1027  0.2867 -0.0537
 7286TIP3    H143273   5.474   1.295  14.939 -0.0221 -0.2486 -0.5184
 7286TIP3    H243274   5.397   1.301  14.809  0.1228  0.6181 -0.5641
 7287TIP3   OH243275   6.592   3.316  13.258 -0.5919  0.0235  0.1660
 7287TIP3    H143276   6.531   3.258  13.305  0.6193  0.4098  2.2588
 7287TIP3    H243277   6.540   3.349  13.185 -2.0821 -1.7499  0.3579
 7288TIP3   OH243278   0.198   5.349  13.767  0.5848 -0.3088  0.4608
 7288TIP3    H143279   0.195   5.263  13.726 -0.7544 -0.9790  1.9193
 7288TIP3    H243280   0.108   5.366  13.795  0.9270  1.3452  0.6367
 7289TIP3   OH243281   2.546   0.798  16.473  0.5074 -0.7548 -0.0542
 7289TIP3    H143282   2.623   0.752  16.439  0.4617 -0.2473 -0.8404
 7289TIP3    H243283   2.513   0.848  16.399 -0.6463 -1.0552  0.2477
 7290TIP3   OH243284   1.472   4.820   1.975 -0.5169  0.0621  0.4117
 7290TIP3    H143285   1.495   4.822   1.882 -1.5224 -0.9792  0.1196
 7290TIP3    H243286   1.467   4.912   2.001  1.0714  0.3343 -0.2258
 7291TIP3   OH243287   6.706   2.709   4.985  0.1923  0.7008  0.0799
 7291TIP3    H143288   6.669   2.794   4.965  0.0501  1.1537  2.1270
 7291TIP3    H243289   6.658   2.679   5.063  1.5670 -0.3555  0.5637
 7292TIP3   OH243290   4.106   2.498  11.364  0.7996  0.5276  0.3936
 7292TIP3    H143291   4.123   2.461  11.450  1.8164 -0.7564 -0.3466
 7292TIP3    H243292   4.010   2.502  11.358  0.7096 -0.4202  1.1371
 7293TIP3   OH243293   4.384   0.041   3.809  0.1744 -0.2165 -0.4811
 7293TIP3    H143294   4.352  -0.030   3.864 -1.1930  1.2746  0.6876
 7293TIP3    H243295   4.358   0.016   3.720 -0.8410 -0.8910 -0.0043
 7294TIP3   OH243296   1.056   0.905  11.966  0.9815 -0.4316  0.2865
 7294TIP3    H143297   1.146   0.874  11.974  1.8112  1.5496 -0.9787
 7294TIP3    H243298   1.054   0.985  12.019  0.4040  0.3491 -0.8847
 7295TIP3   OH243299   3.568   0.582   3.356 -0.0450  0.5090 -0.7175
 7295TIP3    H143300   3.592   0.598   3.447 -1.6613 -0.0454 -0.1606
 7295TIP3    H243301   3.505   0.651   3.335  0.2895  0.6107 -1.3993
 7296TIP3   OH243302   1.613   4.823  13.951  0.5458 -0.1277 -0.2519
 7296TIP3    H143303   1.550   4.801  14.020 -0.7748 -0.3163 -1.4790
 7296TIP3    H243304   1.676   4.751  13.953  0.1699 -0.4535  0.3598
 7297TIP3   OH243305   1.049   5.412   5.631 -0.2832 -0.1811  0.7324
 7297TIP3    H143306   0.963   5.449   5.610  0.3053  1.6086  1.3338
 7297TIP3    H243307   1.095   5.484   5.675  1.0910 -1.5074  1.4906
 7298TIP3   OH243308   4.546   3.528  16.900 -0.7771  0.3347 -0.0660
 7298TIP3    H143309   4.486   3.555  16.830  1.3633  1.1094 -1.6800
 7298TIP3    H243310   4.577   3.611  16.937  1.1687  0.0135 -0.9239
 7299TIP3   OH243311   2.748   1.310   0.013 -0.0487  0.2846 -0.0570
 7299TIP3    H143312   2.654   1.319   0.022 -0.1738  0.4307 -1.3757
 7299TIP3    H243313   2.783   1.397   0.029  0.0250 -0.1329  2.1860
 7300TIP3   OH243314   5.782   1.742  16.272 -0.4319  0.0711 -0.3849
 7300TIP3    H143315   5.758   1.831  16.249 -0.1275  0.2844  0.1205
 7300TIP3    H243316   5.709   1.710  16.325 -1.4295 -0.6342 -2.1145
 7301TIP3   OH243317   3.794   5.685  12.422 -0.2786  0.4356  0.3628
 7301TIP3    H143318   3.758   5.742  12.354  1.4581  2.1326  0.8138
 7301TIP3    H243319   3.722   5.626  12.445 -1.9384  2.0684 -0.5134
 7302TIP3   OH243320   3.178   5.320  15.882 -0.2283 -0.1573 -0.5336
 7302TIP3    H143321   3.096   5.275  15.900 -0.5378 -0.1924 -2.0023
 7302TIP3    H243322   3.206   5.354  15.967 -1.6216 -0.3667  0.0148
 7303TIP3   OH243323   3.365   4.328  14.378  0.5576  0.4971  0.4553
 7303TIP3    H143324   3.377   4.310  14.284 -0.5090  0.8000  0.2537
 7303TIP3    H243325   3.276   4.297  14.397  1.3145 -0.9254  1.7090
 7304TIP3   OH243326   1.294   0.093  17.079 -0.5166 -0.2546 -0.1519
 7304TIP3    H143327   1.359   0.042  17.128  0.1757  0.2948 -0.4980
 7304TIP3    H243328   1.318   0.184  17.094 -0.2430 -0.0812 -1.5972
 7305TIP3   OH243329   1.108   0.067   0.682 -0.5405  0.2657 -0.2180
 7305TIP3    H143330   1.030   0.122   0.680 -2.2045 -1.9254  1.0690
 7305TIP3    H243331   1.102   0.021   0.766  1.0825 -1.4260 -0.9965
 7306TIP3   OH243332   2.835   3.504   0.791  0.9811 -0.2974 -0.4200
 7306TIP3    H143333   2.862   3.502   0.883 -1.9991  0.9578  0.5467
 7306TIP3    H243334   2.765   3.438   0.785 -0.8386  1.6220 -1.0475
 7307TIP3   OH243335   2.827   1.561   2.892 -0.1322 -0.1189 -0.1290
 7307TIP3    H143336   2.773   1.483   2.907  0.7678 -0.6526  0.4089
 7307TIP3    H243337   2.765   1.630   2.869 -0.7763 -1.4561 -2.5022
 7308TIP3   OH243338   6.011   3.441  17.055  0.0863 -0.0545 -0.2743
 7308TIP3    H143339   5.939   3.495  17.024 -0.0020 -0.7025 -1.2257
 7308TIP3    H243340   5.994   3.354  17.019  1.8656  0.0231 -1.3704
 7309TIP3   OH243341   3.147   5.221   0.050 -0.1893  0.3849 -0.6847
 7309TIP3    H143342   3.135   5.219  -0.045  0.6558 -0.5935 -0.7779
 7309TIP3    H243343   3.123   5.132   0.079 -1.6567  1.0350  0.1782
 7310TIP3   OH243344   6.414   3.093  15.324 -0.3620 -0.3483 -0.8313
 7310TIP3    H143345   6.361   3.167  15.353 -0.3076 -0.9033  0.7315
 7310TIP3    H243346   6.474   3.130  15.260 -0.5124  0.9139 -0.2635
 7311TIP3   OH243347   4.024   4.428   3.974  0.0626 -0.7527 -0.0778
 7311TIP3    H143348   4.054   4.517   3.957  1.3773 -1.1207  0.2129
 7311TIP3    H243349   4.087   4.393   4.037 -0.3910 -1.9155 -0.2511
 7312TIP3   OH243350   5.697   2.693   2.351  0.1474  0.8023 -0.3637
 7312TIP3    H143351   5.710   2.689   2.256  0.4404 -0.1245 -0.2917
 7312TIP3    H243352   5.761   2.631   2.386 -0.4392  0.6263  0.3991
 7313TIP3   OH243353   6.015   1.658  15.837  0.0996  0.2604  0.1175
 7313TIP3    H143354   6.063   1.739  15.850  1.7585 -0.2917 -2.2179
 7313TIP3    H243355   5.938   1.683  15.785 -0.4157  0.6302  1.0553
 7314TIP3   OH243356   1.111   3.607   5.661 -0.6519  0.1951 -0.2532
 7314TIP3    H143357   1.051   3.662   5.611  0.0178  1.9101  0.7751
 7314TIP3    H243358   1.104   3.640   5.750  0.7461 -0.5434  0.1356
 7315TIP3   OH243359   1.848   1.711   2.187  0.2707  0.0427 -0.2068
 7315TIP3    H143360   1.781   1.725   2.253 -1.9422  1.5418 -2.6812
 7315TIP3    H243361   1.928   1.747   2.226 -1.2823  2.2073  1.0883
 7316TIP3   OH243362   3.963   2.002   0.446 -0.5774 -0.1600  0.0413
 7316TIP3    H143363   3.938   2.048   0.526 -0.2985 -0.4470  0.2922
 7316TIP3    H243364   4.058   2.010   0.443 -0.4890 -1.1141  0.3209
 7317TIP3   OH243365   1.199   3.411   2.287  0.5006 -0.1591  0.5855
 7317TIP3    H143366   1.149   3.331   2.276  0.1055  0.1303  0.2588
 7317TIP3    H243367   1.286   3.390   2.255  0.2753 -0.3226  0.0775
 7318TIP3   OH243368   5.016   0.962   3.927  0.1794 -0.0191  0.8809
 7318TIP3    H143369   5.075   1.034   3.906 -0.2271 -0.0207 -0.3150
 7318TIP3    H243370   4.985   0.931   3.842  1.1892 -2.3116  1.3119
 7319TIP3   OH243371   6.565   4.087   2.996  0.0360  0.0556  0.4811
 7319TIP3    H143372   6.561   3.998   3.033 -2.6213 -0.7699 -1.6211
 7319TIP3    H243373   6.641   4.127   3.038  1.9914 -3.5997  0.6564
 7320TIP3   OH243374   4.761   6.723  11.020 -0.6185 -0.0069  0.0880
 7320TIP3    H143375   4.693   6.748  10.957 -0.3166  2.5403  0.7145
 7320TIP3    H243376   4.719   6.733  11.105  0.4583  1.4223  0.4714
 7321TIP3   OH243377   3.545   2.241   0.957  0.0325 -0.6433  0.0451
 7321TIP3    H143378   3.616   2.275   0.902  0.9238 -1.9456  0.3793
 7321TIP3    H243379   3.569   2.267   1.046 -0.1678 -0.6531  0.1029
 7322TIP3   OH243380   0.565   1.573   6.832  0.0858 -0.9034  0.3637
 7322TIP3    H143381   0.526   1.497   6.789 -0.2425  0.1461 -1.2097
 7322TIP3    H243382   0.495   1.639   6.831  1.0263  0.0953 -0.0747
 7323TIP3   OH243383   3.831   1.060   3.942 -0.0784  0.2696 -0.0838
 7323TIP3    H143384   3.769   1.022   3.879 -0.8004  0.9005  0.2382
 7323TIP3    H243385   3.842   0.994   4.009  0.3754 -0.2452 -0.6605
 7324TIP3   OH243386   5.423   1.581   1.741 -0.0865  0.2409  0.2980
 7324TIP3    H143387   5.368   1.647   1.782 -0.9650 -1.3037  1.6762
 7324TIP3    H243388   5.367   1.503   1.735  1.8313 -1.2952  1.5409
 7325TIP3   OH243389   6.388   5.899  11.608  0.3343 -0.0083  0.2863
 7325TIP3    H143390   6.405   5.812  11.644  0.1319 -0.3170 -0.3644
 7325TIP3    H243391   6.460   5.913  11.546  1.5555  1.1609  1.9328
 7326TIP3   OH243392   5.795   1.981   2.046 -0.3990 -0.3400  0.5407
 7326TIP3    H143393   5.841   1.991   2.129 -1.6685 -1.0442  1.3367
 7326TIP3    H243394   5.706   1.956   2.070 -1.5596  2.1192 -0.9231
 7327TIP3   OH243395   6.283   3.324  16.985 -0.3328 -0.0406  0.9502
 7327TIP3    H143396   6.269   3.284  16.899  0.4595 -1.4099  1.4289
 7327TIP3    H243397   6.195   3.342  17.017 -0.6480  0.1812 -0.0156
 7328TIP3   OH243398   5.618   3.331  15.890 -0.7227  0.7239 -0.2218
 7328TIP3    H143399   5.524   3.352  15.892 -2.0665 -4.7504  0.7043
 7328TIP3    H243400   5.623   3.240  15.917  4.9240  0.7534 -0.6073
 7329TIP3   OH243401   5.715   4.490  15.098  0.0381  0.3023 -0.5140
 7329TIP3    H143402   5.718   4.550  15.024  0.6949  0.6301 -0.2309
 7329TIP3    H243403   5.739   4.544  15.174  1.6322 -0.5314 -0.4064
 7330TIP3   OH243404   2.321   3.717   3.369  0.3766  0.0490  0.4369
 7330TIP3    H143405   2.253   3.777   3.336  0.7221  0.4268  0.4040
 7330TIP3    H243406   2.394   3.728   3.308  0.4829 -0.3277  0.4957
 7331TIP3   OH243407   2.546   4.060  14.267 -0.3027  0.4023 -0.5633
 7331TIP3    H143408   2.524   4.002  14.195  1.0540  1.5935 -1.9654
 7331TIP3    H243409   2.498   4.024  14.342  0.4121 -2.4422 -1.4070
 7332TIP3   OH243410   2.776   6.031  16.240  0.1435  0.0488 -0.3993
 7332TIP3    H143411   2.811   5.946  16.213  0.0589  0.2003 -0.9915
 7332TIP3    H243412   2.742   6.015  16.328 -1.4459 -0.9949 -1.1587
 7333TIP3   OH243413   5.903   6.338  13.026 -0.1501  0.3723 -0.2139
 7333TIP3    H143414   5.917   6.422  12.982  0.2837 -1.2064 -3.2219
 7333TIP3    H243415   5.819   6.347  13.071  0.1572  2.5692 -0.0624
 7334TIP3   OH243416   0.147   1.807  15.541 -0.3862 -0.0581 -0.1191
 7334TIP3    H143417   0.175   1.717  15.557  0.7660  0.0757 -1.3005
 7334TIP3    H243418   0.193   1.860  15.605  2.3711  0.1972 -2.2328
 7335TIP3   OH243419   5.225   0.042  15.908 -0.4427  0.0359 -0.2699
 7335TIP3    H143420   5.266   0.074  15.989  0.0946 -0.0028 -0.5271
 7335TIP3    H243421   5.292   0.054  15.841 -2.2227  3.7753 -1.4940
 7336TIP3   OH243422   2.909   4.350   0.591  0.3082  0.1404 -0.1379
 7336TIP3    H143423   2.902   4.343   0.686 -1.2513 -1.6435 -0.3581
 7336TIP3    H243424   2.937   4.441   0.576 -0.6992  0.8387  1.9590
 7337TIP3   OH243425   6.330   4.210  13.659 -0.3347  0.3641 -0.0771
 7337TIP3    H143426   6.384   4.137  13.630 -0.5968 -0.7545  2.1561
 7337TIP3    H243427   6.240   4.181  13.648 -0.4431  0.4391  0.5755
 7338TIP3   OH243428   2.672   4.259  11.862  0.0557  0.1765  0.1981
 7338TIP3    H143429   2.638   4.239  11.948  1.2118 -0.0293  0.6174
 7338TIP3    H243430   2.767   4.250  11.871  0.4782  3.5263 -0.1642
 7339TIP3   OH243431   0.834   3.888   2.933 -0.3215 -0.7522  0.4464
 7339TIP3    H143432   0.772   3.901   2.861 -0.2348 -0.7556  0.3713
 7339TIP3    H243433   0.778   3.876   3.010 -0.4026  0.1053  0.5256
 7340TIP3   OH243434   0.728   5.109  16.651 -0.7453  0.0509 -0.1377
 7340TIP3    H143435   0.736   5.099  16.745  1.2676  4.5903  0.3170
 7340TIP3    H243436   0.786   5.043  16.614 -2.1063 -2.2489  1.7221
 7341TIP3   OH243437   3.068   0.622  16.675 -0.3156 -0.1958 -0.1853
 7341TIP3    H143438   3.155   0.661  16.682 -0.3283 -0.7216  4.0984
 7341TIP3    H243439   3.084   0.537  16.633  0.9713  0.3704 -0.8889
 7342TIP3   OH243440   6.190   5.132  15.173  0.1233  0.3481  0.4179
 7342TIP3    H143441   6.224   5.050  15.136 -1.0791 -0.6907  1.5477
 7342TIP3    H243442   6.244   5.147  15.250 -0.8553 -0.4202  1.2784
 7343TIP3   OH243443   1.336   2.526  13.098  0.8502  0.1309  0.9135
 7343TIP3    H143444   1.395   2.590  13.138  1.0691 -0.6928  1.9032
 7343TIP3    H243445   1.287   2.490  13.172 -0.7406  0.6495  0.1321
 7344TIP3   OH243446   1.374   4.211   3.242  0.5122 -0.7427  0.1595
 7344TIP3    H143447   1.336   4.190   3.327  0.2712 -2.4164 -0.3368
 7344TIP3    H243448   1.302   4.199   3.180  0.7359  0.2762 -0.2999
 7345TIP3   OH243449   1.543   3.625  14.537 -0.0754 -1.1142  0.4207
 7345TIP3    H143450   1.482   3.563  14.576  3.5649 -2.0010  5.1239
 7345TIP3    H243451   1.613   3.571  14.500  0.4599  0.0164 -0.2472
 7346TIP3   OH243452   6.245   0.825  11.979 -0.2490 -0.0695 -0.5078
 7346TIP3    H143453   6.321   0.863  11.934 -0.5199 -0.5194 -1.3679
 7346TIP3    H243454   6.273   0.815  12.070  0.4010  0.6277 -0.6245
 7347TIP3   OH243455   0.113   0.514  11.557  0.2156 -0.1080  0.2980
 7347TIP3    H143456   0.092   0.589  11.613  1.3961  1.1267 -0.8824
 7347TIP3    H243457   0.060   0.528  11.478  0.8869 -0.2111 -0.1686
 7348TIP3   OH243458   2.957   5.673   3.271  0.2989  0.3322 -0.1483
 7348TIP3    H143459   3.047   5.708   3.271  0.2481  0.4607 -0.3678
 7348TIP3    H243460   2.912   5.726   3.337 -0.2995  2.0199 -1.8507
 7349TIP3   OH243461   6.742   0.324  14.877 -0.5488 -0.0557  0.0897
 7349TIP3    H143462   6.700   0.279  14.804  1.1314 -0.4618 -0.6478
 7349TIP3    H243463   6.814   0.373  14.838  0.1853 -0.0231  1.4221
 7350TIP3   OH243464   3.023   2.418  11.887 -0.5925 -0.6136 -0.2763
 7350TIP3    H143465   2.948   2.414  11.828 -0.8163 -2.2115  0.0892
 7350TIP3    H243466   3.001   2.485  11.952 -1.3392 -0.5012 -0.6514
 7351TIP3   OH243467   5.361   0.796  11.410 -0.0308 -0.0359  0.3133
 7351TIP3    H143468   5.379   0.825  11.320 -0.0713  2.0474  0.9316
 7351TIP3    H243469   5.421   0.724  11.425  0.4930  0.0839 -1.1464
 7352TIP3   OH243470   3.592   4.592  16.580 -0.1040  0.3588  0.4214
 7352TIP3    H143471   3.542   4.630  16.651  0.4804  1.1044  0.4356
 7352TIP3    H243472   3.669   4.553  16.622 -1.4442 -2.2381  0.6093
 7353TIP3   OH243473   6.177   4.477  13.409  0.7683 -0.0414  0.1362
 7353TIP3    H143474   6.100   4.459  13.355  0.4692  1.9161 -0.1041
 7353TIP3    H243475   6.151   4.451  13.498  0.7939 -1.9533 -0.3840
 7354TIP3   OH243476   5.839   5.200   3.515  0.2192 -0.1387  0.3307
 7354TIP3    H143477   5.764   5.149   3.483 -0.1518  0.5852  0.0050
 7354TIP3    H243478   5.911   5.138   3.520  0.5456 -0.0912 -2.8861
 7355TIP3   OH243479   0.986   3.718  12.415 -0.4669  0.0023  0.2359
 7355TIP3    H143480   0.935   3.661  12.357 -1.4295  0.6043  0.4798
 7355TIP3    H243481   0.929   3.732  12.491 -0.3927  1.5626  0.0240
 7356TIP3   OH243482   4.640   1.765  15.936  0.2115  0.0696  0.0368
 7356TIP3    H143483   4.666   1.784  15.846 -0.9053 -1.8392 -0.7056
 7356TIP3    H243484   4.548   1.790  15.940  0.9498  2.7615  1.4619
 7357TIP3   OH243485   2.331   5.942   0.695 -0.0870  0.5752 -0.4764
 7357TIP3    H143486   2.337   6.037   0.698  0.0807  0.5782 -0.8300
 7357TIP3    H243487   2.286   5.917   0.776  0.1875  0.9288 -0.2158
 7358TIP3   OH243488   5.731   5.878   0.211  0.3259 -0.2239  0.3939
 7358TIP3    H143489   5.666   5.936   0.172  0.0272  0.5155  1.9610
 7358TIP3    H243490   5.815   5.918   0.189  0.0653  2.5529  4.0258
 7359TIP3   OH243491   4.440   5.465   3.177  0.1785  0.3541  0.8954
 7359TIP3    H143492   4.475   5.394   3.123 -0.5526  0.9404 -0.3704
 7359TIP3    H243493   4.468   5.545   3.132 -1.7576  0.8381  0.5155
 7360TIP3   OH243494   1.732   5.126   3.532  0.3733 -0.2200 -0.2896
 7360TIP3    H143495   1.740   5.165   3.619 -0.6773 -0.6660  0.0106
 7360TIP3    H243496   1.715   5.200   3.474 -0.7326 -0.1140  0.1513
 7361TIP3   OH243497   4.673   0.800   3.587  0.3146  0.7522 -0.4215
 7361TIP3    H143498   4.749   0.776   3.640 -0.9895 -1.5929  0.4595
 7361TIP3    H243499   4.653   0.890   3.614  0.8929  0.2911  1.6401
 7362TIP3   OH243500   4.429   5.809  12.642 -0.1013 -0.2817  0.2024
 7362TIP3    H143501   4.495   5.877  12.631  0.8406 -0.8226  2.3219
 7362TIP3    H243502   4.439   5.753  12.565  0.5428  0.7665 -0.4904
 7363TIP3   OH243503   2.583   2.463  16.971 -0.0799 -0.8667 -0.1444
 7363TIP3    H143504   2.528   2.508  17.036  1.0288 -0.8621  0.8103
 7363TIP3    H243505   2.528   2.391  16.939 -0.2341 -1.5996  1.6822
 7364TIP3   OH243506   3.340   3.408  12.363  0.3297  0.1465  0.0084
 7364TIP3    H143507   3.435   3.416  12.364  0.5774 -2.5298  1.5840
 7364TIP3    H243508   3.312   3.453  12.443  0.2600  0.7154 -0.3292
 7365TIP3   OH243509   4.919   2.770  14.737 -0.1023  0.1393 -0.4124
 7365TIP3    H143510   4.887   2.681  14.750 -2.4803  1.2330  1.5893
 7365TIP3    H243511   4.843   2.819  14.706  1.0888  1.5983 -1.1329
 7366TIP3   OH243512   1.557   2.200  14.827  0.5062  0.6216 -0.3925
 7366TIP3    H143513   1.556   2.250  14.909  0.7504  0.2117 -0.1344
 7366TIP3    H243514   1.566   2.266  14.759 -1.0149  1.0712 -0.1810
 7367TIP3   OH243515   0.224   5.208   1.426  0.0814  0.8093 -0.3620
 7367TIP3    H143516   0.170   5.179   1.499  1.6545 -0.5798  0.2874
 7367TIP3    H243517   0.242   5.128   1.376  0.6839  1.4181 -1.1266
 7368TIP3   OH243518   1.154   1.411   5.051  0.2992  0.0654 -0.4524
 7368TIP3    H143519   1.105   1.347   5.103 -0.7568  1.6415  0.5527
 7368TIP3    H243520   1.237   1.421   5.099  0.2617 -0.1825 -0.3342
 7369TIP3   OH243521   4.964   4.652   6.057  0.4106 -0.6151 -0.3487
 7369TIP3    H143522   5.034   4.589   6.075  1.3466  0.8574  1.3735
 7369TIP3    H243523   4.893   4.625   6.116  0.6134 -0.3810  0.0049
 7370TIP3   OH243524   2.749   1.543   5.354 -0.0649 -0.0651  0.8089
 7370TIP3    H143525   2.797   1.460   5.357 -0.3121 -0.3134 -1.0593
 7370TIP3    H243526   2.810   1.603   5.311 -0.9092 -0.0366 -0.3741
 7371TIP3   OH243527   5.261   0.701  14.791 -0.0892 -0.3598  0.4005
 7371TIP3    H143528   5.306   0.631  14.743 -0.7520 -0.6874  0.2498
 7371TIP3    H243529   5.169   0.693  14.764 -0.1291  0.7141  0.2103
 7372TIP3   OH243530   1.027   5.676  16.589  0.1756  0.2621  0.1275
 7372TIP3    H143531   1.062   5.588  16.601 -0.7518 -0.1245  0.1098
 7372TIP3    H243532   1.103   5.734  16.594  0.8726 -0.5877 -0.4856
 7373TIP3   OH243533   4.042   6.174  16.237 -0.2143  0.4596 -0.4335
 7373TIP3    H143534   4.136   6.166  16.254 -0.2853  0.5823  0.0236
 7373TIP3    H243535   4.035   6.181  16.142  0.3043  1.3966 -0.4019
 7374TIP3   OH243536   0.025   0.001   0.509  0.3988  0.3851 -0.0798
 7374TIP3    H143537   0.107   0.045   0.485  1.3982 -1.1926  0.3703
 7374TIP3    H243538   0.023   0.006   0.605  0.2614 -0.0982 -0.0601
 7375TIP3   OH243539   1.342   5.952  12.027  0.0759 -0.3754 -0.0913
 7375TIP3    H143540   1.388   6.009  11.965  0.7716 -0.7558  0.0630
 7375TIP3    H243541   1.404   5.882  12.045 -0.1656 -0.3335  0.9434
 7376TIP3   OH243542   0.516   1.273  17.236 -0.3358  0.4954  0.0059
 7376TIP3    H143543   0.529   1.312  17.323  1.8103 -1.0057  0.4002
 7376TIP3    H243544   0.500   1.180  17.254  1.0412  0.0046 -1.2411
 7377TIP3   OH243545   4.279   6.324   0.417  0.1442  0.4081 -0.0043
 7377TIP3    H143546   4.232   6.390   0.467 -1.3568 -1.3728  1.0091
 7377TIP3    H243547   4.287   6.249   0.477  3.0427  0.1304 -0.6280
 7378TIP3   OH243548   2.365   1.641   2.978 -0.7674 -0.2051 -0.3596
 7378TIP3    H143549   2.415   1.570   2.938  0.9310  0.7129  0.0950
 7378TIP3    H243550   2.280   1.639   2.933  0.2873 -0.6799 -2.3844
 7379TIP3   OH243551   3.427   2.433   4.763 -0.1819 -0.5993 -0.2950
 7379TIP3    H143552   3.440   2.346   4.801  0.5263  0.0535  0.9916
 7379TIP3    H243553   3.464   2.493   4.828 -1.5603  0.7344 -0.7062
 7380TIP3   OH243554   6.492   1.392   5.803  0.0826 -0.5511 -0.1842
 7380TIP3    H143555   6.518   1.374   5.893  0.6110 -1.4443 -0.5114
 7380TIP3    H243556   6.574   1.393   5.754 -0.0627  1.4803 -0.3989
 7381TIP3   OH243557   2.795   4.335   4.189  0.4457 -0.1817  0.1859
 7381TIP3    H143558   2.753   4.269   4.134 -0.3631  1.0170 -0.6451
 7381TIP3    H243559   2.886   4.337   4.159 -0.2963  1.4070 -2.0237
 7382TIP3   OH243560   2.792   0.582   1.619 -0.3157  0.5912  0.6053
 7382TIP3    H143561   2.748   0.653   1.666 -1.8398 -0.9030  1.4903
 7382TIP3    H243562   2.840   0.535   1.687  1.3167  1.2244 -0.1015
 7383TIP3   OH243563   3.671   6.201  16.929  0.0869  0.6346  0.4289
 7383TIP3    H143564   3.640   6.174  17.015  1.9696 -0.9460  0.6541
 7383TIP3    H243565   3.718   6.283  16.944  0.1636  0.5080  0.8666
 7384TIP3   OH243566   5.963   6.480  11.739 -0.0001  0.1591 -0.5172
 7384TIP3    H143567   6.004   6.394  11.741  2.0769  1.1510  0.4353
 7384TIP3    H243568   5.943   6.500  11.830  2.0612  1.8460 -0.4011
 7385TIP3   OH243569   3.069   1.138  11.663  0.3511  0.0671  0.0503
 7385TIP3    H143570   3.145   1.194  11.644 -0.1215  0.7164  0.0724
 7385TIP3    H243571   3.020   1.136  11.581  0.1680 -0.0111  0.1627
 7386TIP3   OH243572   6.682   0.311   2.794 -0.1969  0.2950 -0.0883
 7386TIP3    H143573   6.742   0.380   2.768  0.1969 -0.2257 -0.5701
 7386TIP3    H243574   6.647   0.277   2.712 -0.1426 -0.2944  0.1315
 7387TIP3   OH243575   3.662   5.126  12.514  0.6766  0.5263  0.2086
 7387TIP3    H143576   3.638   5.035  12.532  2.0401  0.2807  0.8714
 7387TIP3    H243577   3.666   5.131  12.418 -1.6468  0.5109  0.0868
 7388TIP3   OH243578   6.522   5.296   4.931  0.1882  0.4337  0.2483
 7388TIP3    H143579   6.545   5.386   4.956  0.2121  0.7943 -1.0363
 7388TIP3    H243580   6.603   5.247   4.943  0.3821  0.7388  0.2084
 7389TIP3   OH243581   3.389   6.655   4.983 -0.1842 -0.1263  0.4763
 7389TIP3    H143582   3.405   6.719   4.914 -1.7628 -0.5248 -0.2846
 7389TIP3    H243583   3.464   6.662   5.041  0.4580  1.2314 -0.5150
 7390TIP3   OH243584   5.925   6.744  15.717  0.3479  0.0698 -0.6816
 7390TIP3    H143585   6.019   6.726  15.714  0.2918 -0.5902  0.8635
 7390TIP3    H243586   5.889   6.699  15.640  1.3185  0.5046 -1.3979
 7391TIP3   OH243587   3.329   4.116   5.723 -0.2800  0.5758 -0.4109
 7391TIP3    H143588   3.386   4.091   5.796  0.4263 -0.0598 -1.1706
 7391TIP3    H243589   3.388   4.157   5.660 -0.4084 -1.3459 -1.8195
 7392TIP3   OH243590   0.300   2.201   2.146  0.2941 -0.8221 -0.4499
 7392TIP3    H143591   0.215   2.158   2.137 -1.3397  1.7778  1.6148
 7392TIP3    H243592   0.289   2.284   2.100  1.4878 -0.1718  0.4232
 7393TIP3   OH243593   1.736   5.996   1.166 -0.2864  0.4732 -0.1199
 7393TIP3    H143594   1.698   6.070   1.119 -0.2687 -0.0004 -0.8954
 7393TIP3    H243595   1.739   5.926   1.101  1.8854  0.4756 -0.0484
 7394TIP3   OH243596   6.174   2.218  15.771  0.4114  0.7066  0.1573
 7394TIP3    H143597   6.240   2.171  15.822  0.4255  0.9350  0.3481
 7394TIP3    H243598   6.207   2.215  15.681  0.2929  0.1470  0.1319
 7395TIP3   OH243599   4.388   0.132   2.202  0.0024  0.2625 -0.4730
 7395TIP3    H143600   4.403   0.169   2.289 -0.9311 -1.3463  0.4127
 7395TIP3    H243601   4.293   0.138   2.190 -0.1075 -1.4272 -0.4929
 7396TIP3   OH243602   3.654   0.444   3.914  0.4153  0.2296  0.4109
 7396TIP3    H143603   3.707   0.372   3.882 -0.1344 -0.1625  0.3721
 7396TIP3    H243604   3.565   0.408   3.921  0.2732  0.6937  1.0825
 7397TIP3   OH243605   2.472   6.113  14.950 -0.5791 -0.7112 -0.0647
 7397TIP3    H143606   2.519   6.094  15.031  1.1954 -0.1636 -0.9511
 7397TIP3    H243607   2.418   6.036  14.934 -0.5977 -1.0058  1.3884
 7398TIP3   OH243608   5.099   0.903   5.632  0.7604 -0.4441 -0.8590
 7398TIP3    H143609   5.117   0.809   5.631  1.1815 -0.3838  0.3234
 7398TIP3    H243610   5.105   0.928   5.724  0.0478  0.6308 -1.0895
 7399TIP3   OH243611   5.057   3.034  14.103  0.4079  0.5390 -0.0449
 7399TIP3    H143612   5.037   3.039  14.197  1.3787  1.7426  0.1216
 7399TIP3    H243613   5.150   3.010  14.101  0.2261 -0.1003 -0.7113
 7400TIP3   OH243614   0.146   2.343  12.587 -0.0451  0.1537 -0.4424
 7400TIP3    H143615   0.087   2.399  12.638 -0.7286 -0.0472 -1.0030
 7400TIP3    H243616   0.090   2.271  12.557  0.6698 -0.4641 -0.3117
 7401TIP3   OH243617   6.770   2.897   2.220 -0.0806 -0.0094 -0.4057
 7401TIP3    H143618   6.681   2.877   2.190  0.3943 -0.6057 -1.4128
 7401TIP3    H243619   6.758   2.969   2.282 -1.4291 -1.0699  0.5965
 7402TIP3   OH243620   5.173   5.707  13.268 -0.8153 -0.3650 -0.3107
 7402TIP3    H143621   5.123   5.667  13.339  0.7994  0.3971  1.2683
 7402TIP3    H243622   5.237   5.764  13.311 -1.0246  1.5620 -2.4180
 7403TIP3   OH243623   4.754   0.960   5.119 -0.4019  0.0687  0.7321
 7403TIP3    H143624   4.824   1.011   5.079 -0.7621  0.2649  0.3470
 7403TIP3    H243625   4.714   0.914   5.045 -1.6455  1.1239  0.7379
 7404TIP3   OH243626   3.058   5.583  14.198 -0.3145 -0.1947  0.8660
 7404TIP3    H143627   3.107   5.627  14.268 -0.3132 -0.8112  1.2545
 7404TIP3    H243628   2.993   5.647  14.171 -0.1343  0.1502  1.2399
 7405TIP3   OH243629   2.184   3.485   3.713  0.3061 -0.0235 -0.5574
 7405TIP3    H143630   2.251   3.468   3.647  1.1975  2.5549 -0.3854
 7405TIP3    H243631   2.232   3.487   3.796  0.3830  3.3860 -0.5944
 7406TIP3   OH243632   6.783   6.443  11.010  0.7205  0.2874 -0.2354
 7406TIP3    H143633   6.786   6.399  10.925 -1.1491 -1.6777  0.6653
 7406TIP3    H243634   6.842   6.392  11.066  0.1894  0.2056  0.2546
 7407TIP3   OH243635   5.446   6.588   1.449 -0.0037  0.3824  0.4923
 7407TIP3    H143636   5.444   6.566   1.356 -1.8985  0.3870  0.5156
 7407TIP3    H243637   5.532   6.628   1.462  0.1993  0.5764 -1.2923
 7408TIP3   OH243638   6.743   4.511   1.560 -0.3038  0.8364  0.1463
 7408TIP3    H143639   6.804   4.471   1.498  0.9469  1.6686  0.8115
 7408TIP3    H243640   6.686   4.566   1.507  0.6094  1.3653 -0.2891
 7409TIP3   OH243641   5.937   4.222  15.006  0.8972  0.0378  0.1827
 7409TIP3    H143642   5.963   4.312  15.023  0.3223  0.0096  1.2226
 7409TIP3    H243643   6.017   4.181  14.971  1.4604  0.6701  0.7048
 7410TIP3   OH243644   2.632   0.640   0.357  0.2013 -0.1540 -0.1761
 7410TIP3    H143645   2.604   0.711   0.299  1.1073 -2.0737 -3.0666
 7410TIP3    H243646   2.707   0.601   0.313  1.8762 -0.7994  3.0459
 7411TIP3   OH243647   0.266   0.435   5.421  0.1759 -0.4884  0.0713
 7411TIP3    H143648   0.347   0.388   5.440  0.0564 -0.5600  0.4036
 7411TIP3    H243649   0.197   0.374   5.448  0.0249  0.5539  2.1220
 7412TIP3   OH243650   0.381   1.146   1.570 -0.5797 -0.0665 -0.5666
 7412TIP3    H143651   0.396   1.055   1.596 -0.8106 -0.4613 -1.7561
 7412TIP3    H243652   0.364   1.141   1.476  1.7308  1.4536 -1.1118
 7413TIP3   OH243653   3.865   1.846  16.792  0.0343  0.1327  0.4324
 7413TIP3    H143654   3.819   1.924  16.762  1.0235  0.7615  0.5313
 7413TIP3    H243655   3.860   1.786  16.718  2.8128  1.8325 -1.2414
 7414TIP3   OH243656   6.221   5.130  16.204 -0.1094  0.4872  0.5724
 7414TIP3    H143657   6.272   5.136  16.123 -2.4822 -2.1635 -1.2067
 7414TIP3    H243658   6.146   5.186  16.188 -0.7627 -0.3242  0.7777
 7415TIP3   OH243659   4.190   0.861  15.778 -0.2709 -0.0917  0.6980
 7415TIP3    H143660   4.227   0.944  15.746  1.3781 -0.4896  1.5135
 7415TIP3    H243661   4.170   0.878  15.870 -1.1658 -0.2063  0.5275
 7416TIP3   OH243662   2.060   0.221   5.852  0.1246 -0.1645  0.0536
 7416TIP3    H143663   1.984   0.260   5.809  0.1565  0.2181  0.3433
 7416TIP3    H243664   2.033   0.209   5.943  1.4088  2.7219  0.8705
 7417TIP3   OH243665   3.684   2.850  15.811 -0.1248 -0.3080 -0.1080
 7417TIP3    H143666   3.731   2.894  15.882 -3.0948  0.6611  1.3299
 7417TIP3    H243667   3.658   2.766  15.848 -0.7328 -0.2514 -0.3987
 7418TIP3   OH243668   3.801   6.631   2.171 -0.1252 -0.2141  0.3341
 7418TIP3    H143669   3.849   6.549   2.178  0.7085  0.3584  1.5244
 7418TIP3    H243670   3.758   6.627   2.086  0.3505 -1.6367  0.1473
 7419TIP3   OH243671   5.688   4.489   2.816 -0.4396 -0.0165 -0.2565
 7419TIP3    H143672   5.624   4.510   2.884  0.0823 -1.5496  0.7282
 7419TIP3    H243673   5.668   4.550   2.745 -3.6512 -1.1288 -0.3708
 7420TIP3   OH243674   4.962   2.480  10.391 -0.3542  0.1092  0.2493
 7420TIP3    H143675   5.013   2.399  10.392 -2.7041 -1.4518  0.4077
 7420TIP3    H243676   4.938   2.494  10.483 -0.3920  0.6735  0.1520
 7421TIP3   OH243677   6.344   2.606  16.928  0.2694 -0.1952 -0.4279
 7421TIP3    H143678   6.354   2.648  16.842  0.4005 -1.7767 -1.1998
 7421TIP3    H243679   6.398   2.527  16.923 -0.9544 -1.1251  0.5543
 7422TIP3   OH243680   2.289   6.779   4.725 -0.0412 -0.0554 -0.3160
 7422TIP3    H143681   2.352   6.732   4.670  1.1014 -0.3423  1.1910
 7422TIP3    H243682   2.253   6.712   4.784  1.2723  0.8212  1.5539
 7423TIP3   OH243683   0.799   4.003  11.541 -0.1642 -0.1475  0.0681
 7423TIP3    H143684   0.872   3.945  11.563  1.5446  2.0629  0.4289
 7423TIP3    H243685   0.841   4.085  11.515 -2.5113  0.8720 -0.6250
 7424TIP3   OH243686   4.141   4.072  15.276  0.0921 -0.8144  0.0827
 7424TIP3    H143687   4.116   4.072  15.183 -0.9621  1.0358  0.3345
 7424TIP3    H243688   4.228   4.112  15.277  0.5796 -1.8643 -0.2203
 7425TIP3   OH243689   6.465   0.697  15.665 -0.6419  0.6537  0.5366
 7425TIP3    H143690   6.425   0.628  15.717  0.7278 -0.6821 -0.1200
 7425TIP3    H243691   6.556   0.700  15.695 -0.1036  0.5732 -1.0438
 7426TIP3   OH243692   0.965   1.551  10.883  0.0063 -0.7508  0.1954
 7426TIP3    H143693   1.037   1.571  10.823  0.3286  0.7492  1.0709
 7426TIP3    H243694   1.002   1.486  10.943  1.0097  0.8926  1.3671
 7427TIP3   OH243695   2.212   1.936   1.164 -0.3585 -0.3534  0.5932
 7427TIP3    H143696   2.285   1.898   1.114 -0.8399  0.1117 -0.4847
 7427TIP3    H243697   2.186   1.866   1.224 -0.2168 -1.1903 -0.2942
 7428TIP3   OH243698   1.838   6.780   3.961 -0.2734  0.2900 -0.0059
 7428TIP3    H143699   1.769   6.809   4.020  0.3203  1.0851  0.3140
 7428TIP3    H243700   1.792   6.744   3.885 -1.0362  0.0484  0.5696
 7429TIP3   OH243701   6.391   0.499   5.133  0.0059 -0.2097  0.4526
 7429TIP3    H143702   6.450   0.490   5.208 -0.1563 -2.5738  0.3349
 7429TIP3    H243703   6.327   0.565   5.161  0.5156 -0.3705  2.0376
 7430TIP3   OH243704   0.761   4.723  13.150  0.3967  0.0041  0.0058
 7430TIP3    H143705   0.686   4.769  13.186 -0.8164 -1.8936 -0.0070
 7430TIP3    H243706   0.751   4.633  13.180  1.2482 -0.8564 -2.1477
 7431TIP3   OH243707   5.328   1.992   5.949  0.6016 -0.6693 -0.2229
 7431TIP3    H143708   5.257   1.934   5.922 -1.4237  0.5146  2.3550
 7431TIP3    H243709   5.291   2.080   5.943  2.5786  0.1626 -0.9148
 7432TIP3   OH243710   4.280   5.586  15.595 -0.4210  0.2546 -0.1196
 7432TIP3    H143711   4.215   5.610  15.662  0.0941  2.4791 -0.3883
 7432TIP3    H243712   4.293   5.492  15.608  1.0346  0.9089  4.1291
 7433TIP3   OH243713   3.865   3.282  12.007 -0.1483  0.0110  0.1046
 7433TIP3    H143714   3.957   3.289  12.033 -0.1806  1.4898 -0.0967
 7433TIP3    H243715   3.867   3.255  11.916  0.0943 -0.0655  0.1337
 7434TIP3   OH243716   2.580   4.958  13.922 -0.5692 -0.2456  0.1553
 7434TIP3    H143717   2.498   5.007  13.933 -0.0954  0.4956  0.4554
 7434TIP3    H243718   2.559   4.869  13.951 -1.1872  0.0220  0.5392
 7435TIP3   OH243719   1.282   6.591  12.587 -0.5227 -0.3778 -0.0642
 7435TIP3    H143720   1.257   6.648  12.660  0.3959  0.5941 -0.4833
 7435TIP3    H243721   1.220   6.519  12.590 -1.0899  0.1437  1.0961
 7436TIP3   OH243722   1.551   3.821  11.051  0.2817  0.3254 -0.1767
 7436TIP3    H143723   1.604   3.854  11.122 -1.7244  1.0667  1.0204
 7436TIP3    H243724   1.473   3.784  11.093 -1.2958  1.4404 -1.9951
 7437TIP3   OH243725   2.728   2.064   1.947  0.4418  0.3989 -0.4986
 7437TIP3    H143726   2.671   2.120   1.999 -0.4581 -1.4536  0.5792
 7437TIP3    H243727   2.815   2.102   1.958  0.0383  0.8920  1.1854
 7438TIP3   OH243728   1.868   5.732  13.488  0.6568  0.2312 -0.0528
 7438TIP3    H143729   1.855   5.657  13.545  0.3952 -1.0363 -1.7336
 7438TIP3    H243730   1.903   5.801  13.545 -1.0197 -0.5153  1.9033
 7439TIP3   OH243731   4.099   4.904   2.046  0.1369  0.3184 -0.0716
 7439TIP3    H143732   4.094   4.915   1.951 -1.2927 -0.1090 -0.0606
 7439TIP3    H243733   4.064   4.986   2.082 -0.4793 -0.0140  0.0820
 7440TIP3   OH243734   1.423   2.288  16.208 -0.0036 -0.4180  0.4241
 7440TIP3    H143735   1.354   2.321  16.149  1.0352 -1.4297 -1.4174
 7440TIP3    H243736   1.387   2.206  16.243  0.9975 -1.9993 -2.1007
 7441TIP3   OH243737   3.109   3.961   3.678 -0.2734  0.1755  0.1582
 7441TIP3    H143738   3.042   3.945   3.611  0.1417 -0.3501 -0.1331
 7441TIP3    H243739   3.170   4.022   3.636  0.3924 -0.7400 -0.2127
 7442TIP3   OH243740   2.845   5.516   5.424  0.6858 -0.2525  0.3694
 7442TIP3    H143741   2.914   5.450   5.437 -0.0939 -0.9444  1.0477
 7442TIP3    H243742   2.767   5.476   5.462  0.2253  1.1177  0.8657
 7443TIP3   OH243743   2.293   0.077  14.409 -0.6055  0.6247 -0.1963
 7443TIP3    H143744   2.233   0.136  14.455 -1.4729 -0.5267  0.1757
 7443TIP3    H243745   2.271   0.088  14.317  1.4877  3.3245 -0.4348
 7444TIP3   OH243746   5.336   1.846   0.775 -0.1487  0.0373 -0.1087
 7444TIP3    H143747   5.370   1.921   0.823  1.2587 -1.3597  1.1246
 7444TIP3    H243748   5.387   1.772   0.807 -0.9164 -1.3147 -1.9485
 7445TIP3   OH243749   5.774   6.269  14.130 -0.3955  0.4243 -0.3629
 7445TIP3    H143750   5.752   6.360  14.150 -0.0028  0.4982 -0.2523
 7445TIP3    H243751   5.847   6.249  14.189  0.0481  0.2953 -0.9519
 7446TIP3   OH243752   3.229   5.746   6.567 -0.4214 -0.1157 -0.2698
 7446TIP3    H143753   3.264   5.659   6.547 -1.7069 -1.1472  1.8897
 7446TIP3    H243754   3.306   5.797   6.591  0.0187 -1.5021  1.3830
 7447TIP3   OH243755   4.662   3.165  12.988  0.2075 -0.3471 -0.2027
 7447TIP3    H143756   4.674   3.231  13.056  0.2435 -0.2864 -0.2677
 7447TIP3    H243757   4.749   3.154  12.950  0.5213 -1.5598  0.8427
 7448TIP3   OH243758   6.087   2.793   3.509 -0.5680 -0.0121  0.0793
 7448TIP3    H143759   5.995   2.765   3.500 -0.1872 -0.3534 -3.7363
 7448TIP3    H243760   6.085   2.888   3.496 -0.6057  0.2723  2.1027
 7449TIP3   OH243761   4.048   0.261  15.462 -0.2450 -0.2222  0.0891
 7449TIP3    H143762   4.128   0.251  15.514  0.6316  0.4514 -1.1031
 7449TIP3    H243763   4.052   0.351  15.429 -0.7708 -0.6514 -1.1643
 7450TIP3   OH243764   2.402   0.472  15.189 -0.0552  0.3477  0.0936
 7450TIP3    H143765   2.402   0.450  15.096 -0.3064  1.6566 -0.2161
 7450TIP3    H243766   2.469   0.539  15.198  0.0384  0.1507  0.8823
 7451TIP3   OH243767   5.695   6.183  16.966  0.1309 -0.0117 -0.4105
 7451TIP3    H143768   5.711   6.217  16.878  0.4839  0.9311  0.0159
 7451TIP3    H243769   5.599   6.177  16.972  0.0703  0.7979 -0.5290
 7452TIP3   OH243770   1.893   3.358  12.298  0.5882 -0.0800 -0.4558
 7452TIP3    H143771   1.817   3.350  12.356  1.5785 -1.7421  0.6182
 7452TIP3    H243772   1.881   3.444  12.256 -0.6038  0.7606  1.5156
 7453TIP3   OH243773   0.482   2.825  10.544  0.3941  0.1257  0.1076
 7453TIP3    H143774   0.542   2.898  10.555  0.2214  0.4052 -0.7927
 7453TIP3    H243775   0.529   2.763  10.488  0.0089  0.1700 -0.2711
 7454TIP3   OH243776   3.831   1.883  10.595  0.6190  0.1005 -0.0238
 7454TIP3    H143777   3.843   1.789  10.611  1.4416  0.0295 -0.9740
 7454TIP3    H243778   3.904   1.924  10.641  1.2493  0.1293 -1.0304
 7455TIP3   OH243779   5.589   4.774  11.528  0.4117 -1.1246  0.3309
 7455TIP3    H143780   5.655   4.836  11.495 -0.0556  0.1678  1.7402
 7455TIP3    H243781   5.505   4.818  11.512 -0.1222 -2.7505 -1.4283
 7456TIP3   OH243782   3.482   2.550   2.521 -0.2978 -0.2628  0.0391
 7456TIP3    H143783   3.569   2.534   2.556  0.5561 -0.7472 -2.2516
 7456TIP3    H243784   3.491   2.542   2.427 -2.1481  2.7870 -0.4950
 7457TIP3   OH243785   4.542   4.306   2.585 -0.4494 -0.0560  0.2520
 7457TIP3    H143786   4.576   4.230   2.538  2.0106  1.0801  0.1244
 7457TIP3    H243787   4.567   4.292   2.676 -1.3773 -0.1475  0.4980
 7458TIP3   OH243788   2.597   6.307   1.640  0.3594 -0.7501  0.2034
 7458TIP3    H143789   2.585   6.353   1.556  0.5862 -0.8109  0.1381
 7458TIP3    H243790   2.585   6.215   1.618  1.2557 -0.8455  0.0735
 7459TIP3   OH243791   6.415   1.719  14.688  0.4013 -0.3866  0.2055
 7459TIP3    H143792   6.420   1.636  14.640 -0.6248 -2.0671  2.8560
 7459TIP3    H243793   6.326   1.751  14.670  0.2778 -0.6397  0.3528
 7460TIP3   OH243794   0.633   1.554  15.848 -0.2731  0.2033  0.1067
 7460TIP3    H143795   0.718   1.536  15.807 -0.2944 -0.9181  0.5506
 7460TIP3    H243796   0.569   1.537  15.779 -0.3388 -2.1130  0.6967
 7461TIP3   OH243797   1.816   2.286   0.335  0.8580  0.0405  0.3016
 7461TIP3    H143798   1.815   2.258   0.244 -1.3690  1.2601 -0.0940
 7461TIP3    H243799   1.723   2.297   0.357  1.2521 -2.0404  3.2753
 7462TIP3   OH243800   3.402   2.417   0.343  0.3001  0.3320  0.4810
 7462TIP3    H143801   3.412   2.378   0.430 -0.2238  0.4670  0.6017
 7462TIP3    H243802   3.354   2.351   0.292  1.9721 -0.4217 -0.1747
 7463TIP3   OH243803   2.209   6.732  16.111  0.8858  0.2981 -0.2029
 7463TIP3    H143804   2.262   6.711  16.034  1.5405  0.0817  0.3085
 7463TIP3    H243805   2.269   6.776  16.171  0.3605  0.5253  0.1647
 7464TIP3   OH243806   3.306   1.635   4.100  0.9827  0.5487 -0.1265
 7464TIP3    H143807   3.225   1.609   4.056  0.2917  2.0710  0.2372
 7464TIP3    H243808   3.360   1.556   4.097  0.5701  0.3201 -2.8122
 7465TIP3   OH243809   2.662   0.191  14.407 -0.0513 -0.6232 -0.1807
 7465TIP3    H143810   2.640   0.250  14.479  0.1357  0.2870 -0.8703
 7465TIP3    H243811   2.584   0.137  14.396 -0.3507 -0.2763  0.2178
 7466TIP3   OH243812   6.589   3.277   0.342  0.1574  0.1245  0.2264
 7466TIP3    H143813   6.609   3.239   0.256 -0.1133 -0.8782  0.6027
 7466TIP3    H243814   6.553   3.204   0.393 -1.4198  1.1508  0.6060
 7467TIP3   OH243815   0.982   2.340  16.003 -0.5707 -0.3635  0.0822
 7467TIP3    H143816   1.077   2.342  15.990 -0.8157 -1.8037 -2.1107
 7467TIP3    H243817   0.966   2.258  16.048 -0.7919 -0.1022  0.4872
 7468TIP3   OH243818   2.702   4.595  11.735  0.2403  0.4231  0.5276
 7468TIP3    H143819   2.621   4.644  11.744  1.3134  2.3904 -0.3653
 7468TIP3    H243820   2.764   4.641  11.792  1.0206 -0.4233  0.3733
 7469TIP3   OH243821   2.705   0.444  16.233 -0.0779  0.5641 -0.4594
 7469TIP3    H143822   2.613   0.424  16.255 -0.1159  1.3741  0.1466
 7469TIP3    H243823   2.699   0.510  16.164  0.0530 -0.3584 -1.3620
 7470TIP3   OH243824   1.515   4.372   1.575 -0.1702  0.7777 -0.7910
 7470TIP3    H143825   1.563   4.321   1.509 -2.1726 -0.5983 -1.2362
 7470TIP3    H243826   1.512   4.461   1.539  0.7191  0.5395 -1.4767
 7471TIP3   OH243827   5.655   0.513   4.362  0.5452  0.0422  0.1679
 7471TIP3    H143828   5.673   0.597   4.403 -0.1345  0.2622  0.0261
 7471TIP3    H243829   5.649   0.451   4.435  0.5481  0.2054  0.3072
 7472TIP3   OH243830   0.165   6.178  16.601  0.3822  0.0202  0.2011
 7472TIP3    H143831   0.210   6.218  16.527  0.2357 -1.0193 -0.4657
 7472TIP3    H243832   0.176   6.084  16.587  0.3421 -0.1847  1.4904
 7473TIP3   OH243833   3.789   3.497  13.033 -0.6739 -0.5821 -0.6193
 7473TIP3    H143834   3.714   3.438  13.042 -0.7142 -0.8905 -2.8716
 7473TIP3    H243835   3.750   3.584  13.029 -0.9219 -0.7320 -1.6350
 7474TIP3   OH243836   2.622   3.701  13.967  0.1667  0.1048 -0.3505
 7474TIP3    H143837   2.576   3.643  13.906  1.1549 -1.7826  0.6367
 7474TIP3    H243838   2.671   3.760  13.910 -1.4699  0.4947 -1.3921
 7475TIP3   OH243839   1.621   1.002  16.581  0.2168 -0.2579  0.0187
 7475TIP3    H143840   1.580   1.086  16.557  2.2609  0.9854  0.7297
 7475TIP3    H243841   1.550   0.951  16.619 -1.1422  1.0336 -0.7249
 7476TIP3   OH243842   2.299   1.692   5.690 -0.3917 -0.0745 -0.6062
 7476TIP3    H143843   2.294   1.785   5.667  1.2054  0.2947  0.4176
 7476TIP3    H243844   2.392   1.677   5.709 -0.8312 -1.5670  0.5141
 7477TIP3   OH243845   2.448   5.528   5.976  0.2729  0.2390  0.1353
 7477TIP3    H143846   2.517   5.524   6.042 -0.4413  0.4464  0.8972
 7477TIP3    H243847   2.367   5.521   6.025 -0.3500  2.4858 -0.4941
 7478TIP3   OH243848   6.607   6.711   3.388  0.3832  0.3870 -0.1335
 7478TIP3    H143849   6.670   6.757   3.333  2.5297 -0.8762  1.1689
 7478TIP3    H243850   6.563   6.650   3.329  1.6169  0.0710 -0.7495
 7479TIP3   OH243851   5.420   3.118  17.017 -0.2056 -0.4860 -0.3596
 7479TIP3    H143852   5.513   3.124  16.993  0.6125 -0.5335  2.5478
 7479TIP3    H243853   5.403   3.200  17.064 -1.1199 -1.2481  0.6734
 7480TIP3   OH243854   5.337   1.541   3.520  0.0184  0.2121 -0.6364
 7480TIP3    H143855   5.346   1.618   3.576 -1.4658  0.0036 -0.0732
 7480TIP3    H243856   5.328   1.576   3.432  1.4748  0.5841 -0.6465
 7481TIP3   OH243857   2.438   5.984   1.231 -0.0112  0.3071 -0.3858
 7481TIP3    H143858   2.407   6.072   1.251  0.7560  0.2851  1.0004
 7481TIP3    H243859   2.394   5.928   1.295 -2.6995 -0.7495 -3.0601
 7482TIP3   OH243860   4.298   3.481   2.325 -0.4031 -0.1483  0.0372
 7482TIP3    H143861   4.208   3.451   2.330 -0.1615 -0.7559  0.7758
 7482TIP3    H243862   4.321   3.473   2.232 -0.7383 -1.0926  0.0290
 7483TIP3   OH243863   0.801   3.107   4.144 -0.1111  0.2769  0.6273
 7483TIP3    H143864   0.869   3.050   4.111 -1.1688 -0.6455  0.0014
 7483TIP3    H243865   0.755   3.055   4.210 -0.9415  0.4792  0.2129
 7484TIP3   OH243866   3.019   2.880   2.806 -0.1645 -0.1004  0.5138
 7484TIP3    H143867   2.969   2.818   2.859  0.4891 -1.0064  0.0796
 7484TIP3    H243868   3.046   2.948   2.868 -0.1826 -0.6821  1.1707
 7485TIP3   OH243869   6.000   5.057  10.734  0.5658  0.5542 -0.6182
 7485TIP3    H143870   5.934   4.988  10.741  1.4679 -0.4096 -1.4013
 7485TIP3    H243871   5.993   5.088  10.644  0.7501  0.8882 -0.5178
 7486TIP3   OH243872   5.519   5.497  15.069 -0.5515  0.2199 -0.2671
 7486TIP3    H143873   5.590   5.490  15.005 -2.0516 -0.3338 -1.9007
 7486TIP3    H243874   5.557   5.547  15.142  1.7526 -0.7599 -0.7608
 7487TIP3   OH243875   2.077   6.078   3.854 -0.1777 -0.1863  0.7839
 7487TIP3    H143876   2.167   6.104   3.836 -0.4069 -1.0098 -1.7778
 7487TIP3    H243877   2.086   6.001   3.911  0.7653 -0.4928  0.2407
 7488TIP3   OH243878   0.242   2.296  15.721  0.4136  1.1871 -0.4131
 7488TIP3    H143879   0.261   2.388  15.742  4.0270 -0.5260  4.8237
 7488TIP3    H243880   0.327   2.260  15.694 -0.7830 -0.8507 -1.5238
 7489TIP3   OH243881   4.650   1.479  12.022  0.1195 -0.2338  0.0684
 7489TIP3    H143882   4.701   1.439  12.092 -0.0582 -1.4918 -0.5235
 7489TIP3    H243883   4.695   1.456  11.941  0.4414  1.3986 -0.2296
 7490TIP3   OH243884   0.014   5.424   2.670  0.0437  0.4514 -0.0935
 7490TIP3    H143885  -0.049   5.491   2.694  0.7591  0.9269  0.4870
 7490TIP3    H243886   0.073   5.467   2.608  1.3358  0.8126  1.3240
 7491TIP3   OH243887   4.074   3.243   1.888 -0.0932  1.1842  0.0980
 7491TIP3    H143888   4.064   3.198   1.972 -1.6316 -1.5141 -1.4619
 7491TIP3    H243889   4.147   3.196   1.845 -0.5465  1.3213 -0.8274
 7492TIP3   OH243890   4.753   1.857   0.607  0.1742  0.3461 -0.2000
 7492TIP3    H143891   4.813   1.933   0.610  0.7614 -0.0543 -1.6229
 7492TIP3    H243892   4.749   1.827   0.698  3.0896 -0.3336 -0.2309
 7493TIP3   OH243893   5.536   5.294   0.578 -0.3927 -0.5771  0.0209
 7493TIP3    H143894   5.629   5.315   0.572 -0.5281 -0.3860 -1.6725
 7493TIP3    H243895   5.500   5.359   0.639  0.5156 -0.4483  0.4186
 7494TIP3   OH243896   1.500   2.599  14.026  0.7871 -0.1956  0.0468
 7494TIP3    H143897   1.561   2.530  14.002  0.2818 -0.8962  0.7581
 7494TIP3    H243898   1.454   2.565  14.103  0.1862  0.7206  0.0998
 7495TIP3   OH243899   3.301   1.283  11.683  0.3165  0.3512 -0.4641
 7495TIP3    H143900   3.369   1.278  11.751 -2.5690  0.8560  2.6182
 7495TIP3    H243901   3.289   1.377  11.670 -1.2851  0.3211  0.6484
 7496TIP3   OH243902   6.165   0.828  11.636  0.0435 -0.1741  0.4476
 7496TIP3    H143903   6.249   0.859  11.601  0.4683 -0.1619  1.4544
 7496TIP3    H243904   6.103   0.843  11.565  1.0944 -1.1789 -0.7228
 7497TIP3   OH243905   1.263   4.297  12.136 -0.3598 -0.5162  0.0945
 7497TIP3    H143906   1.220   4.376  12.168 -0.0066 -0.2969  0.0258
 7497TIP3    H243907   1.296   4.320  12.050 -3.2573 -1.7825 -1.4238
 7498TIP3   OH243908   2.542   1.225   1.492 -0.8297  0.4976 -0.2063
 7498TIP3    H143909   2.458   1.232   1.537  1.0712 -1.2786  3.9347
 7498TIP3    H243910   2.599   1.286   1.540  0.7057  0.3536 -1.8152
 7499TIP3   OH243911   6.206   0.430   5.368  0.2358  0.1481 -0.8217
 7499TIP3    H143912   6.234   0.515   5.334  1.7129  0.6988  1.7129
 7499TIP3    H243913   6.168   0.449   5.453  2.0823 -1.8895  0.5139
 7500TIP3   OH243914   3.136   6.057   1.922 -0.0281 -0.4846 -0.6721
 7500TIP3    H143915   3.047   6.091   1.917  0.1677  0.5411  2.0787
 7500TIP3    H243916   3.188   6.128   1.959  1.3057 -2.1276  0.7268
 7501TIP3   OH243917   4.217   0.162  16.080 -0.3111 -0.2732  0.0781
 7501TIP3    H143918   4.176   0.075  16.078 -0.5538 -0.1553 -0.1486
 7501TIP3    H243919   4.239   0.176  16.172 -3.6065  0.9390  0.7856
 7502TIP3   OH243920   6.773   2.300   2.888 -0.2045  0.0358  0.0729
 7502TIP3    H143921   6.857   2.276   2.927 -0.5151 -0.4091  0.4800
 7502TIP3    H243922   6.776   2.395   2.880  0.3854  0.0081 -0.0200
 7503TIP3   OH243923   4.391   2.278   1.283 -0.6321 -0.6395 -0.1158
 7503TIP3    H143924   4.379   2.301   1.191  1.0182 -0.0270 -0.1924
 7503TIP3    H243925   4.421   2.360   1.324  0.5121 -1.3998  0.5780
 7504TIP3   OH243926   0.375   5.422   4.652  0.0245 -0.4192 -0.1770
 7504TIP3    H143927   0.296   5.392   4.696 -0.6911 -0.6613 -1.5773
 7504TIP3    H243928   0.366   5.517   4.648 -0.0960 -0.4301 -0.1552
 7505TIP3   OH243929   1.453   4.592   1.430  0.1364  0.0874 -0.2285
 7505TIP3    H143930   1.427   4.525   1.367  2.2888 -0.3335 -0.6942
 7505TIP3    H243931   1.509   4.652   1.379  1.3660  0.1001  1.1139
 7506TIP3   OH243932   4.593   2.775   3.725 -0.0734  0.3333 -0.5405
 7506TIP3    H143933   4.534   2.701   3.709 -2.0996  1.5673  0.9188
 7506TIP3    H243934   4.675   2.749   3.685 -1.1763 -2.0854 -1.3566
 7507TIP3   OH243935   4.100   2.918  11.078  0.3262 -0.2822 -0.1914
 7507TIP3    H143936   4.095   2.997  11.131 -0.5930 -1.9117  2.1960
 7507TIP3    H243937   4.065   2.944  10.993 -0.6805  1.6715  0.8039
 7508TIP3   OH243938   0.987   3.588   5.168 -0.5799 -0.4203  0.1578
 7508TIP3    H143939   1.065   3.532   5.174 -0.0709  0.1616 -0.9807
 7508TIP3    H243940   1.010   3.655   5.105 -1.7545  0.1867  0.3603
 7509TIP3   OH243941   6.035   0.380   2.205 -0.8516  0.2612  0.1776
 7509TIP3    H143942   6.045   0.359   2.298 -3.5752  0.5030  0.5669
 7509TIP3    H243943   6.123   0.406   2.177 -0.1742  1.1615  2.9268
 7510TIP3   OH243944   0.390   2.957  15.805  0.2163  0.0175  0.1979
 7510TIP3    H143945   0.309   2.940  15.757  1.3671 -3.0703 -0.8116
 7510TIP3    H243946   0.403   3.051  15.798 -1.9118  0.2063 -1.8817
 7511TIP3   OH243947   2.902   6.232   4.237  0.2004  0.0002  0.0955
 7511TIP3    H143948   2.923   6.154   4.288  0.7163 -0.0431 -0.1827
 7511TIP3    H243949   2.883   6.199   4.149  0.6955  0.2142 -0.0927
 7512TIP3   OH243950   0.833   1.030   1.264 -0.7877 -0.0427 -0.1829
 7512TIP3    H143951   0.852   1.090   1.336 -0.9726 -0.1580 -0.0366
 7512TIP3    H243952   0.919   0.997   1.237 -0.7484 -0.3260  0.2747
 7513TIP3   OH243953   0.668   1.536  10.873 -0.0941 -0.1144  0.7440
 7513TIP3    H143954   0.647   1.627  10.891  0.5335  0.1974 -0.0973
 7513TIP3    H243955   0.761   1.535  10.852 -0.3957 -0.7174 -0.6786
 7514TIP3   OH243956   3.849   3.361  12.605 -0.1134 -0.0302 -0.4825
 7514TIP3    H143957   3.839   3.456  12.609  0.6915  0.0679 -0.8007
 7514TIP3    H243958   3.896   3.338  12.686 -1.6783 -0.3447  0.3690
 7515TIP3   OH243959   2.356   4.987  16.949  0.0157 -0.8617  0.2492
 7515TIP3    H143960   2.318   5.022  17.030  1.2573 -1.9670  1.3107
 7515TIP3    H243961   2.448   4.974  16.969  0.4999 -0.4565 -1.5905
 7516TIP3   OH243962   3.731   1.960  13.585  0.3437  0.2416  0.3415
 7516TIP3    H143963   3.754   1.867  13.585  0.9009  0.3787  1.1329
 7516TIP3    H243964   3.809   2.004  13.551 -0.5726  0.2754 -1.8199
 7517TIP3   OH243965   5.116   4.865   3.328 -0.2530  0.0067  0.2528
 7517TIP3    H143966   5.187   4.923   3.299  1.0679 -1.3353  0.7814
 7517TIP3    H243967   5.062   4.920   3.385  0.6742  0.8818  0.2925
 7518TIP3   OH243968   6.560   5.172  15.186 -0.1267  0.3164  0.0398
 7518TIP3    H143969   6.555   5.079  15.209  3.7021 -0.3529 -1.4274
 7518TIP3    H243970   6.599   5.214  15.263  0.5140  0.2562 -0.2456
 7519TIP3   OH243971   3.832   6.416  16.976 -0.2681 -0.1316 -0.5571
 7519TIP3    H143972   3.901   6.367  17.022  0.7808  0.1833 -1.7547
 7519TIP3    H243973   3.875   6.497  16.949 -1.6949  0.9812  0.4519
 7520TIP3   OH243974   1.073   4.422  11.823  0.3081 -0.5832  0.3885
 7520TIP3    H143975   1.087   4.487  11.755 -1.3532  2.0376  2.4793
 7520TIP3    H243976   1.161   4.398  11.851  0.9413  1.8681  0.6010
 7521TIP3   OH243977   1.683   4.884   5.943 -0.3401 -0.4330 -0.4564
 7521TIP3    H143978   1.619   4.868   5.873  0.2948  1.8076 -1.6145
 7521TIP3    H243979   1.630   4.896   6.022 -1.0569 -3.1525 -0.4864
 7522TIP3   OH243980   1.299   3.939   1.195 -0.7503 -0.4929  0.4358
 7522TIP3    H143981   1.389   3.956   1.224 -0.3729 -0.1669 -0.8633
 7522TIP3    H243982   1.305   3.858   1.144 -0.9350  0.2256 -0.7581
 7523TIP3   OH243983   1.587   6.172   5.164  0.2668  0.0898  0.2150
 7523TIP3    H143984   1.574   6.229   5.088  0.8216 -1.7019 -1.2882
 7523TIP3    H243985   1.673   6.132   5.149 -0.3556 -1.5680  0.9201
 7524TIP3   OH243986   4.657   6.419  15.349 -0.2621  0.3240 -0.9036
 7524TIP3    H143987   4.570   6.413  15.390  0.2507  0.2873  0.1742
 7524TIP3    H243988   4.697   6.497  15.387  1.7097 -1.8116  1.5666
 7525TIP3   OH243989   5.606   5.731   2.375  0.1486 -0.3576 -0.3383
 7525TIP3    H143990   5.546   5.719   2.303  0.4053 -0.2205 -0.5777
 7525TIP3    H243991   5.554   5.772   2.444 -0.0520 -0.3288 -0.5095
 7526TIP3   OH243992   6.330   1.064  13.136  0.2015  0.1979 -0.3495
 7526TIP3    H143993   6.331   1.006  13.060 -1.4232 -0.1648 -0.1043
 7526TIP3    H243994   6.256   1.123  13.120 -1.3626 -1.1053  1.8315
 7527TIP3   OH243995   4.974   0.614  14.513 -0.0477 -0.2988  0.5441
 7527TIP3    H143996   4.972   0.601  14.418 -1.9829  0.1610  0.5127
 7527TIP3    H243997   4.906   0.557  14.547 -0.5668  0.8686  1.4965
 7528TIP3   OH243998   2.604   4.674   6.244 -0.4479 -0.7666 -0.3235
 7528TIP3    H143999   2.649   4.596   6.213  1.8708  0.6151 -0.5316
 7528TIP3    H244000   2.620   4.675   6.338  1.5011  0.6582 -0.6448
 7529TIP3   OH244001   0.255   6.025   5.818 -0.1537 -0.3288 -0.1611
 7529TIP3    H144002   0.230   5.985   5.735 -0.5952 -1.0217  0.3104
 7529TIP3    H244003   0.338   6.070   5.798 -1.0362  0.8072 -1.3603
 7530TIP3   OH244004   5.015   1.923  14.688 -0.0141 -0.1569  0.3924
 7530TIP3    H144005   4.929   1.951  14.720  0.1367  0.3211  0.3750
 7530TIP3    H244006   5.071   2.000  14.698  0.0206  0.0180 -1.0829
 7531TIP3   OH244007   0.604   1.825  11.579 -0.5470  0.1016 -0.0184
 7531TIP3    H144008   0.575   1.899  11.525  0.1591  0.0824 -0.4316
 7531TIP3    H244009   0.566   1.748  11.536 -3.5333  0.4252  1.9435
 7532TIP3   OH244010   4.409   3.773  13.427  0.0369 -0.2294 -0.0975
 7532TIP3    H144011   4.433   3.809  13.513  0.5012 -0.2461 -0.2172
 7532TIP3    H244012   4.458   3.691  13.420 -0.1942 -0.3529 -0.2729
 7533TIP3   OH244013   5.207   4.544   4.104 -0.3946 -0.0438 -0.2809
 7533TIP3    H144014   5.161   4.610   4.157  0.4982 -1.0445  1.8096
 7533TIP3    H244015   5.271   4.506   4.164  1.1345 -0.7424 -2.3165
 7534TIP3   OH244016   5.518   4.430   1.440 -0.0179 -0.0978 -0.4896
 7534TIP3    H144017   5.549   4.424   1.530  2.3721  0.8339 -1.2183
 7534TIP3    H244018   5.424   4.447   1.449 -0.0545 -1.2845  1.7923
 7535TIP3   OH244019   4.987   2.368   1.467  0.6138 -0.0984  0.8083
 7535TIP3    H144020   4.906   2.377   1.417 -0.0738  0.0285  1.9129
 7535TIP3    H244021   5.057   2.384   1.404 -0.2300 -0.0820 -0.1293
 7536TIP3   OH244022   0.631   2.876  11.850 -0.1107  0.1742 -0.7727
 7536TIP3    H144023   0.621   2.798  11.796  0.6976 -0.5396  0.0919
 7536TIP3    H244024   0.547   2.884  11.896 -0.0182 -0.4689 -0.4892
 7537TIP3   OH244025   4.934   4.765  15.982  0.0127  0.6253  0.6789
 7537TIP3    H144026   4.974   4.686  15.944 -1.1159  0.2132  0.3286
 7537TIP3    H244027   5.008   4.817  16.012  0.8069 -0.2409  0.2511
 7538TIP3   OH244028   5.954   2.958  15.213  0.5861 -0.6355 -0.7963
 7538TIP3    H144029   6.047   2.938  15.221  0.4684 -0.6025  0.8614
 7538TIP3    H244030   5.949   3.054  15.217  0.3522 -0.7020  0.8281
 7539TIP3   OH244031   3.596   0.376   0.838  0.2986  0.0652 -0.5338
 7539TIP3    H144032   3.688   0.370   0.814  0.4408  2.0103 -0.5845
 7539TIP3    H244033   3.582   0.470   0.855 -0.9879 -0.5569  2.1497
 7540TIP3   OH244034   5.084   1.914   4.750 -0.0662  0.3247 -0.5762
 7540TIP3    H144035   5.016   1.928   4.817 -0.5331  0.0194 -0.9856
 7540TIP3    H244036   5.095   1.819   4.746 -0.8836  0.2704 -1.7674
 7541TIP3   OH244037   1.464   1.207   2.812  0.1341  0.4072 -0.9475
 7541TIP3    H144038   1.523   1.275   2.781  0.3725  0.0682 -1.2407
 7541TIP3    H244039   1.404   1.252   2.871  0.3867  0.8412 -1.0225
 7542TIP3   OH244040   2.062   3.386  13.527  0.1561  0.3462 -0.1280
 7542TIP3    H144041   2.011   3.396  13.447  1.4435  0.9718 -0.8877
 7542TIP3    H244042   2.105   3.471  13.539  1.0541 -0.1780  0.4636
 7543TIP3   OH244043   0.698   4.444  16.783  0.1055  0.4478  0.1254
 7543TIP3    H144044   0.618   4.494  16.798  0.0517 -0.3802  2.7917
 7543TIP3    H244045   0.748   4.454  16.864  2.1227 -0.1411 -1.0157
 7544TIP3   OH244046   2.380   6.130   3.795  0.3970  0.3072 -1.0830
 7544TIP3    H144047   2.454   6.081   3.760  0.5391 -1.3081  1.3502
 7544TIP3    H244048   2.417   6.215   3.819  1.1484  0.0213 -1.2127
 7545TIP3   OH244049   5.169   6.299  14.587  0.3212  0.2273 -0.1949
 7545TIP3    H144050   5.264   6.299  14.575  0.4976  1.5119  1.1460
 7545TIP3    H244051   5.136   6.359  14.519  0.1762 -2.4708 -2.6046
 7546TIP3   OH244052   3.178   3.452  10.790  0.0934 -0.2299 -0.1114
 7546TIP3    H144053   3.137   3.438  10.705 -1.2925 -1.4899  0.7392
 7546TIP3    H244054   3.228   3.371  10.806  0.5479  0.1012  0.1669
 7547TIP3   OH244055   2.620   6.191   2.298 -0.0356 -0.1519 -0.1335
 7547TIP3    H144056   2.556   6.189   2.370  2.1311  0.4611  1.8660
 7547TIP3    H244057   2.693   6.243   2.332  0.6156  1.0229 -3.1885
 7548TIP3   OH244058   0.539   1.534  14.144  0.8654 -0.1330  0.0708
 7548TIP3    H144059   0.565   1.549  14.235 -1.9449 -0.7535  1.0107
 7548TIP3    H244060   0.476   1.604  14.125  0.9737 -0.3676 -1.2201
 7549TIP3   OH244061   3.874   5.971  11.817 -0.0431 -0.4350  0.5117
 7549TIP3    H144062   3.918   5.937  11.895 -0.5627  0.9771  1.4439
 7549TIP3    H244063   3.932   6.039  11.784  0.3125 -1.2258 -0.5213
 7550TIP3   OH244064   2.993   1.297  11.419  0.1309 -0.0040  0.4023
 7550TIP3    H144065   3.082   1.300  11.384  0.9153 -0.7170  2.3256
 7550TIP3    H244066   2.986   1.374  11.475  1.1769 -2.4802  4.0828
 7551TIP3   OH244067   5.111   2.963  15.182 -0.0355  0.0555 -0.7426
 7551TIP3    H144068   5.112   2.921  15.096 -1.3504 -0.0002 -0.7418
 7551TIP3    H244069   5.018   2.973  15.203  0.2728  0.9585  0.2398
 7552TIP3   OH244070   2.493   2.262  14.011  0.7719 -0.8905  0.2977
 7552TIP3    H144071   2.574   2.227  14.048  1.8282 -0.6763 -1.7325
 7552TIP3    H244072   2.516   2.351  13.983  0.0709 -1.0934 -0.9887
 7553TIP3   OH244073   5.576   1.109  13.414 -0.3204  0.2344 -0.5863
 7553TIP3    H144074   5.645   1.157  13.368 -1.3271  1.3987 -0.8995
 7553TIP3    H244075   5.587   1.135  13.506 -1.0205  1.2816 -0.7889
 7554TIP3   OH244076   5.705   1.513  16.104  0.2507 -0.5995 -0.1126
 7554TIP3    H144077   5.720   1.454  16.178 -0.9734  0.7056  1.2076
 7554TIP3    H244078   5.704   1.601  16.143 -0.4670  0.1047 -1.6676
 7555TIP3   OH244079   6.234   4.510  14.541  0.2489 -0.0665 -0.0896
 7555TIP3    H144080   6.234   4.574  14.471  0.4481 -1.2602 -1.1936
 7555TIP3    H244081   6.321   4.518  14.581 -0.4919  1.8456  1.1786
 7556TIP3   OH244082   5.983   3.532  15.618  0.3878 -0.7259 -0.1242
 7556TIP3    H144083   5.950   3.512  15.706 -0.7637  0.3411 -0.2900
 7556TIP3    H244084   6.077   3.518  15.624  0.3823 -0.2532  1.4120
 7557TIP3   OH244085   4.269   6.043  14.260  0.0247 -0.2895 -0.2011
 7557TIP3    H144086   4.226   6.103  14.321 -1.0465  0.6768 -1.8854
 7557TIP3    H244087   4.307   5.976  14.316 -1.1078  0.4733  1.5233
 7558TIP3   OH244088   1.524   0.744   0.638  0.3102  0.6954 -0.0406
 7558TIP3    H144089   1.565   0.820   0.680  1.4996  0.7017 -1.1969
 7558TIP3    H244090   1.591   0.676   0.640 -0.4383 -0.0407  0.1723
 7559TIP3   OH244091   6.309   0.872  10.751 -0.0811 -0.2797  0.3969
 7559TIP3    H144092   6.372   0.803  10.731 -1.5757 -1.5422 -0.0308
 7559TIP3    H244093   6.337   0.946  10.696  0.7632 -0.9661 -0.1080
 7560TIP3   OH244094   1.975   4.776   1.656  0.1329  0.2449 -0.2297
 7560TIP3    H144095   1.992   4.855   1.605 -0.0371 -0.1659 -0.9316
 7560TIP3    H244096   1.906   4.731   1.607 -1.0843  0.5626  1.1354
 7561TIP3   OH244097   6.252   6.436   5.317 -0.3481 -0.3482  0.7551
 7561TIP3    H144098   6.290   6.422   5.231 -2.4739 -2.0589  0.0534
 7561TIP3    H244099   6.209   6.522   5.311 -1.9350 -1.2080 -0.4467
 7562TIP3   OH244100   2.290   3.638   5.268  0.8027  0.2786 -0.2091
 7562TIP3    H144101   2.309   3.710   5.208 -1.9447 -0.7992 -2.4895
 7562TIP3    H244102   2.228   3.583   5.221 -0.1733 -1.5299  3.0034
 7563TIP3   OH244103   4.892   1.140   1.307  0.1685  0.0636  0.4157
 7563TIP3    H144104   4.814   1.154   1.254 -0.1336 -1.4167  0.4496
 7563TIP3    H244105   4.866   1.168   1.395 -0.6280 -1.2614  0.6169
 7564TIP3   OH244106   6.535   0.920  11.436 -0.2721  0.3281 -0.7643
 7564TIP3    H144107   6.490   0.971  11.503  0.9521  0.2691  0.1199
 7564TIP3    H244108   6.559   0.985  11.369 -3.4187  0.0539 -2.2581
 7565TIP3   OH244109   3.604   3.921  14.612 -0.4753  0.5136 -0.0859
 7565TIP3    H144110   3.670   3.867  14.569 -1.0412 -0.3857  0.1577
 7565TIP3    H244111   3.616   4.009  14.574  0.2488  0.1478 -0.7105
 7566TIP3   OH244112   1.773   3.455   3.954 -0.6637 -0.5673  0.2195
 7566TIP3    H144113   1.719   3.407   4.017 -1.1936 -0.1253  0.1133
 7566TIP3    H244114   1.709   3.495   3.894 -0.2237  0.1671  0.2365
 7567TIP3   OH244115   2.128   6.090  16.975 -0.1095 -0.6268 -0.1767
 7567TIP3    H144116   2.215   6.086  16.936 -0.7775  1.4871 -2.0108
 7567TIP3    H244117   2.075   6.137  16.911 -2.4317 -1.2557  1.2224
 7568TIP3   OH244118   4.713   0.104  13.167 -0.4690  0.1375  0.6678
 7568TIP3    H144119   4.713   0.028  13.225  1.0087 -0.3661  0.0385
 7568TIP3    H244120   4.785   0.158  13.199  1.7720 -1.1576 -1.9288
 7569TIP3   OH244121   5.757   3.212  11.717  0.4891  0.1004  0.1897
 7569TIP3    H144122   5.853   3.214  11.709  0.3308  0.5718 -1.8604
 7569TIP3    H244123   5.736   3.292  11.767  1.2943 -1.1511  2.6278
 7570TIP3   OH244124   4.930   4.623   2.087  0.1459 -0.0531  0.1573
 7570TIP3    H144125   4.965   4.554   2.143 -1.6295 -4.0192 -3.2801
 7570TIP3    H244126   4.837   4.628   2.110 -0.1074 -0.0959 -0.8397
 7571TIP3   OH244127   5.051   4.074   3.824 -0.2439 -0.2543 -0.2210
 7571TIP3    H144128   5.123   4.106   3.770 -0.6195  0.6396 -0.2062
 7571TIP3    H244129   5.075   4.099   3.914 -0.5862  0.0931 -0.2219
 7572TIP3   OH244130   6.680   5.625  16.915 -0.3104 -0.3175  0.2733
 7572TIP3    H144131   6.617   5.640  16.985 -0.9893 -0.0381 -0.4030
 7572TIP3    H244132   6.639   5.661  16.837  0.9140  0.3834 -0.0713
 7573TIP3   OH244133   6.273   2.970  16.197 -0.2942  0.1761  0.1294
 7573TIP3    H144134   6.285   3.000  16.107 -0.8698  1.1263  0.3698
 7573TIP3    H244135   6.291   3.047  16.251  0.1385 -0.4133  0.8412
 7574TIP3   OH244136   5.643   3.308   6.332 -0.3787 -0.3951 -0.5670
 7574TIP3    H144137   5.578   3.303   6.402  1.4515  1.2504  1.3338
 7574TIP3    H244138   5.681   3.396   6.340  1.8367 -1.1726 -1.8257
 7575TIP3   OH244139   4.762   1.579   0.465 -0.0515  0.2963  0.0669
 7575TIP3    H144140   4.744   1.662   0.508 -2.0420 -0.5486  0.9502
 7575TIP3    H244141   4.827   1.599   0.397  0.0227  2.4030  0.7507
 7576TIP3   OH244142   0.283   1.230  17.062 -0.1055  0.7225  0.0679
 7576TIP3    H144143   0.347   1.181  17.113  0.7752  2.3638  0.6071
 7576TIP3    H244144   0.336   1.286  17.005 -1.0759  0.4799 -1.0833
 7577TIP3   OH244145   5.818   5.236   4.624  0.2489 -0.3342 -0.3980
 7577TIP3    H144146   5.859   5.320   4.647 -2.1576  0.8472 -0.2321
 7577TIP3    H244147   5.795   5.197   4.709  0.3059 -0.6262 -0.5155
 7578TIP3   OH244148   0.355   5.028  12.673  0.5563 -0.2090  0.1651
 7578TIP3    H144149   0.310   5.102  12.632 -0.0856  0.4104  1.9709
 7578TIP3    H244150   0.413   5.067  12.738  0.9252 -1.2322  0.4695
 7579TIP3   OH244151   3.383   4.489   4.592  0.0716 -0.0968  0.7008
 7579TIP3    H144152   3.328   4.419   4.557 -1.6152  0.3177  2.4158
 7579TIP3    H244153   3.325   4.565   4.596  1.6601  1.2130 -0.4056
 7580TIP3   OH244154   6.558   3.104   2.413 -0.1760 -0.6293  0.1120
 7580TIP3    H144155   6.600   3.062   2.487  2.2622 -0.1009 -0.9411
 7580TIP3    H244156   6.481   3.050   2.395 -0.2156 -1.3583  2.3299
 7581TIP3   OH244157   2.872   6.262  15.934  0.8341  0.3983  0.5538
 7581TIP3    H144158   2.847   6.171  15.915 -2.4530  1.7511 -2.0790
 7581TIP3    H244159   2.816   6.288  16.007  0.6934  0.7817  0.3102
 7582TIP3   OH244160   6.415   6.122  11.015  0.5213 -0.0866 -0.3164
 7582TIP3    H144161   6.435   6.206  11.057  3.3027 -1.2225  0.7589
 7582TIP3    H244162   6.486   6.110  10.951 -0.8278 -0.8279 -1.7120
 7583TIP3   OH244163   4.378   2.316   1.013 -0.6082  0.4824  0.0741
 7583TIP3    H144164   4.359   2.224   0.991 -2.1367  1.0343 -1.0437
 7583TIP3    H244165   4.473   2.323   1.009 -0.3958 -1.3783  1.4685
 7584TIP3   OH244166   3.100   6.340  13.391  0.9668 -0.0594  0.2198
 7584TIP3    H144167   3.072   6.426  13.361 -2.2196 -0.8041  0.8592
 7584TIP3    H244168   3.075   6.281  13.319 -0.4829 -0.9281  1.3904
 7585TIP3   OH244169   2.641   3.836   5.331  0.2851  0.4677 -1.1450
 7585TIP3    H144170   2.576   3.864   5.396  0.3441 -1.9714  0.0495
 7585TIP3    H244171   2.714   3.897   5.342 -0.0668  0.6333  0.5014
 7586TIP3   OH244172   0.340   2.614   1.359  0.3599 -1.0065  0.2011
 7586TIP3    H144173   0.373   2.702   1.375  0.1015 -1.3503  2.8344
 7586TIP3    H244174   0.418   2.558   1.359  0.3412 -1.0386  0.6382
 7587TIP3   OH244175   3.006   4.939   3.753 -0.6188  0.0501  0.1767
 7587TIP3    H144176   3.096   4.938   3.785 -0.4041  1.3723 -0.3513
 7587TIP3    H244177   2.997   4.856   3.705  0.8120  0.5684 -1.0521
 7588TIP3   OH244178   1.002   3.970  13.667  0.3425  0.0825 -0.3184
 7588TIP3    H144179   0.918   3.997  13.704  0.8211 -0.4241  1.1808
 7588TIP3    H244180   0.984   3.885  13.626  0.3783 -0.6109  1.0687
 7589TIP3   OH244181   5.839   0.354  16.598  0.0979 -0.3606  0.1937
 7589TIP3    H144182   5.903   0.313  16.539  0.1037 -0.6239  0.3813
 7589TIP3    H244183   5.884   0.357  16.682  0.3107  0.5584  0.0551
 7590TIP3   OH244184   1.908   6.334  11.906  0.2112  0.2650  0.3539
 7590TIP3    H144185   1.860   6.324  11.824  0.5822 -0.0015  0.1653
 7590TIP3    H244186   1.843   6.365  11.969 -0.1135  0.2996  0.0025
 7591TIP3   OH244187   4.229   5.415  17.009 -0.3861 -0.4310 -0.2566
 7591TIP3    H144188   4.291   5.396  17.079 -0.1472  0.2946 -0.2720
 7591TIP3    H244189   4.172   5.482  17.045  0.6079  0.9669 -1.2442
 7592TIP3   OH244190   6.752   0.609  12.584  0.5960 -0.0570 -0.6030
 7592TIP3    H144191   6.823   0.668  12.558  0.5323  0.2324 -0.1205
 7592TIP3    H244192   6.795   0.526  12.601  0.5966 -0.3607 -1.9893
 7593TIP3   OH244193   5.539   0.843  13.306 -0.1228 -0.0749 -0.1131
 7593TIP3    H144194   5.462   0.801  13.344  0.5208  0.1466  1.4848
 7593TIP3    H244195   5.530   0.936  13.327  0.8972 -0.1403  0.7187
 7594TIP3   OH244196   1.454   5.587  11.401  0.1362 -0.3872  0.4433
 7594TIP3    H144197   1.543   5.559  11.382 -0.0226 -0.3783 -0.3303
 7594TIP3    H244198   1.461   5.681  11.418  0.1388 -0.1860 -0.6060
 7595TIP3   OH244199   2.022   5.044   2.705 -0.0662  0.4659 -0.2868
 7595TIP3    H144200   2.083   5.070   2.774 -1.8292  0.3421  1.3447
 7595TIP3    H244201   2.071   4.983   2.651  1.0297 -0.2061  1.4373
 7596TIP3   OH244202   2.644   2.636  11.790  0.1983  0.1832 -0.4535
 7596TIP3    H144203   2.708   2.606  11.855  0.2012  2.6346  0.7197
 7596TIP3    H244204   2.572   2.573  11.797  0.2607  0.3204  1.8504
 7597TIP3   OH244205   5.093   0.935  14.214 -0.0126  0.5140 -0.4198
 7597TIP3    H144206   5.109   1.028  14.229  1.2459  0.4520 -1.3438
 7597TIP3    H244207   5.121   0.920  14.124 -0.3029 -0.7406 -0.3068
 7598TIP3   OH244208   1.601   4.602   5.002 -0.6639 -0.0612 -0.4207
 7598TIP3    H144209   1.674   4.620   4.943  0.7173  1.4301  1.6912
 7598TIP3    H244210   1.560   4.687   5.017 -0.2687 -0.2011  1.6836
 7599TIP3   OH244211   5.790   5.016   3.221  0.2877 -0.3463 -0.2191
 7599TIP3    H144212   5.884   5.023   3.208  0.3644  0.9453  0.9352
 7599TIP3    H244213   5.754   5.097   3.187 -0.7076 -1.8875 -2.9806
 7600TIP3   OH244214   2.498   1.152   5.728  0.1720 -0.5638 -0.1259
 7600TIP3    H144215   2.508   1.195   5.643 -0.0005 -2.6223 -1.2068
 7600TIP3    H244216   2.581   1.168   5.773 -0.4353  2.1698  0.1040
 7601TIP3   OH244217   3.397   3.846  11.518  0.1068 -0.1302 -0.1115
 7601TIP3    H144218   3.444   3.875  11.440 -1.2067 -0.7894 -1.1734
 7601TIP3    H244219   3.385   3.752  11.505  1.3876 -0.5714  1.7067
 7602TIP3   OH244220   0.246   3.289   4.683  0.3926 -0.4576  0.0904
 7602TIP3    H144221   0.335   3.290   4.718 -0.0199 -2.2466  1.2594
 7602TIP3    H244222   0.198   3.228   4.739 -0.9156 -1.5596 -2.1370
 7603TIP3   OH244223   4.822   0.161  16.067 -0.5422 -0.3266 -0.1567
 7603TIP3    H144224   4.727   0.163  16.064 -0.5699 -1.5593 -0.1770
 7603TIP3    H244225   4.846   0.237  16.120 -1.4490  1.1137 -1.7698
 7604TIP3   OH244226   1.659   2.974  13.327  0.0533  1.0820  0.4524
 7604TIP3    H144227   1.621   2.944  13.245 -1.1549  0.2201  1.3052
 7604TIP3    H244228   1.714   3.049  13.302  0.0924  0.5277 -1.1845
 7605TIP3   OH244229   0.267   2.845  16.906 -0.0709  0.1658  0.4662
 7605TIP3    H144230   0.171   2.848  16.912  0.0243  0.6931  1.9522
 7605TIP3    H244231   0.290   2.922  16.855 -0.4361  0.0433  0.1106
 7606TIP3   OH244232   6.115   4.204  12.456 -0.5273  0.2008  0.2935
 7606TIP3    H144233   6.022   4.197  12.478 -0.7731  0.6810 -0.6027
 7606TIP3    H244234   6.118   4.190  12.361  0.4939 -1.4994  0.5526
 7607TIP3   OH244235   2.396   3.998   6.076  0.0822  0.2404  0.0832
 7607TIP3    H144236   2.310   3.978   6.114 -0.6417  0.4149 -1.4043
 7607TIP3    H244237   2.447   4.035   6.148 -0.9313 -0.3299  1.1022
 7608TIP3   OH244238   2.505   5.241  17.092 -0.4089  0.0575 -0.1029
 7608TIP3    H144239   2.469   5.228  17.180  1.0277 -2.2505  0.1797
 7608TIP3    H244240   2.573   5.308  17.104 -0.4892  0.0453  0.4602
 7609TIP3   OH244241   2.895   3.569  15.474 -0.1294  0.5185 -0.5546
 7609TIP3    H144242   2.925   3.479  15.469  0.3679  0.7191 -1.4767
 7609TIP3    H244243   2.846   3.575  15.556  0.3916 -0.4131 -0.1756
 7610TIP3   OH244244   6.149   1.612   4.775  0.1245  0.6519 -0.1322
 7610TIP3    H144245   6.084   1.541   4.770 -0.4642  1.1473  0.3666
 7610TIP3    H244246   6.161   1.640   4.685  0.6158 -0.3084 -0.3756
 7611TIP3   OH244247   1.392   5.883  12.377 -0.0151  0.3052  0.4938
 7611TIP3    H144248   1.477   5.880  12.333  0.3647 -1.4491  1.2949
 7611TIP3    H244249   1.355   5.968  12.352  1.1459  0.2851 -1.3834
 7612TIP3   OH244250   1.423   6.669   4.190 -0.0670 -0.5254  0.1643
 7612TIP3    H144251   1.434   6.741   4.251  0.4508  0.6992 -1.3521
 7612TIP3    H244252   1.413   6.592   4.246  0.1896  0.5915  1.7874
 7613TIP3   OH244253   0.429   4.021   3.354  0.4629 -0.6785  0.3980
 7613TIP3    H144254   0.475   4.059   3.278  0.0281 -0.7281  0.1060
 7613TIP3    H244255   0.402   3.934   3.324  0.8898 -0.9651  0.8470
 7614TIP3   OH244256   2.730   1.756  16.613  0.7873 -0.2927  0.1006
 7614TIP3    H144257   2.737   1.852  16.611  0.5691 -0.2857 -0.5503
 7614TIP3    H244258   2.689   1.734  16.529  0.2752 -0.9062  0.5086
 7615TIP3   OH244259   4.850   0.040   2.152 -0.1475  0.3792  0.5314
 7615TIP3    H144260   4.835   0.075   2.064  0.1107  0.1723  0.4043
 7615TIP3    H244261   4.942   0.014   2.152 -0.8419 -2.2129 -0.0563
 7616TIP3   OH244262   2.885   6.036   6.121 -0.0442 -0.3143  0.1559
 7616TIP3    H144263   2.849   6.088   6.193  1.3399  1.8371 -0.6532
 7616TIP3    H244264   2.965   5.997   6.157 -0.0264 -0.2685  0.1658
 7617TIP3   OH244265   5.162   0.975  14.602  0.0076 -0.6206 -0.1124
 7617TIP3    H144266   5.192   0.894  14.561  0.5589  0.2328 -1.3991
 7617TIP3    H244267   5.067   0.964  14.609 -0.2400 -0.3344 -2.6221
 7618TIP3   OH244268   1.774   5.306   3.310  0.5406  0.1114  0.0500
 7618TIP3    H144269   1.694   5.331   3.265 -0.6721 -1.6247  1.2122
 7618TIP3    H244270   1.817   5.244   3.251 -1.6276 -3.0777  1.7169
 7619TIP3   OH244271   5.633   2.741  12.991 -0.1613 -0.0317 -0.5175
 7619TIP3    H144272   5.644   2.661  13.044 -1.1055  0.0147 -0.2315
 7619TIP3    H244273   5.688   2.806  13.034 -0.8325 -0.0285  0.3596
 7620TIP3   OH244274   6.337   1.513   3.129  0.4921 -0.7840 -0.3300
 7620TIP3    H144275   6.403   1.484   3.192  0.9005 -0.4125 -0.5774
 7620TIP3    H244276   6.305   1.432   3.088  0.2970 -1.0167  0.2805
 7621TIP3   OH244277   6.652   2.343   5.765 -0.7497 -0.3166  0.5434
 7621TIP3    H144278   6.564   2.310   5.780 -0.7090 -0.4972  0.3798
 7621TIP3    H244279   6.649   2.382   5.677 -0.8318  0.2244  0.7810
 7622TIP3   OH244280   0.704   4.677   3.442 -0.1177 -1.1116 -0.3882
 7622TIP3    H144281   0.690   4.662   3.536  2.3649 -1.8821 -0.1223
 7622TIP3    H244282   0.615   4.682   3.406 -1.1329  0.1991  2.1397
 7623TIP3   OH244283   0.697   5.564  16.263 -0.2828 -0.1170 -0.2498
 7623TIP3    H144284   0.719   5.533  16.176  1.6366 -2.1492  0.9002
 7623TIP3    H244285   0.768   5.625  16.285 -1.1369  0.9380 -0.3589
 7624TIP3   OH244286   4.512   5.899   2.435  0.2672 -1.1843  0.0871
 7624TIP3    H144287   4.553   5.932   2.355  0.4563 -1.3761  0.1046
 7624TIP3    H244288   4.427   5.866   2.406 -0.4117  0.3825  0.2660
 7625TIP3   OH244289   5.427   4.461   0.436  0.7156 -0.1415  0.5311
 7625TIP3    H144290   5.516   4.442   0.407 -0.2200 -0.7625 -2.0915
 7625TIP3    H244291   5.438   4.525   0.507  3.2727 -0.8561  0.8353
 7626TIP3   OH244292   4.091   5.768  10.873 -0.0445  0.1983 -0.2177
 7626TIP3    H144293   4.134   5.687  10.846 -2.2028 -0.2669 -2.4207
 7626TIP3    H244294   4.066   5.753  10.964  0.4501 -1.2602 -0.3172
 7627TIP3   OH244295   3.593   0.527   2.340 -0.2675  0.0314 -0.5458
 7627TIP3    H144296   3.513   0.474   2.329  0.3154 -0.9334 -0.2458
 7627TIP3    H244297   3.593   0.550   2.433  0.3061 -0.7925 -0.3398
 7628TIP3   OH244298   2.713   5.330  14.358  0.1996  0.2803 -0.1172
 7628TIP3    H144299   2.725   5.391  14.430 -1.1469  2.2972 -1.5401
 7628TIP3    H244300   2.683   5.249  14.399  0.9546  0.9063  1.7022
 7629TIP3   OH244301   3.762   6.212  16.289  0.3723  0.0500 -0.1321
 7629TIP3    H144302   3.838   6.179  16.241  0.0785 -0.2531 -0.3827
 7629TIP3    H244303   3.696   6.228  16.222  0.7002  1.7043 -0.1064
 7630TIP3   OH244304   6.600   2.874   4.356  0.5449  0.3157  0.0508
 7630TIP3    H144305   6.571   2.792   4.396 -1.4386  2.4983  3.3209
 7630TIP3    H244306   6.519   2.925   4.346  1.6277  1.5428 -2.7593
 7631TIP3   OH244307   3.342   0.283  13.115  0.0439  0.2919 -0.6332
 7631TIP3    H144308   3.278   0.223  13.077 -0.8961  0.5867  0.4752
 7631TIP3    H244309   3.290   0.345  13.166  1.1715  0.8227 -0.1063
 7632TIP3   OH244310   5.281   6.146  11.060 -0.6971  0.7128 -0.5102
 7632TIP3    H144311   5.231   6.172  11.137 -2.9671  0.5434 -1.8762
 7632TIP3    H244312   5.215   6.134  10.991  1.1288 -0.5036 -2.1111
 7633TIP3   OH244313   1.571   1.751   3.259 -0.1345  0.0696  0.2571
 7633TIP3    H144314   1.476   1.749   3.246 -0.0199 -1.6865 -0.3841
 7633TIP3    H244315   1.595   1.661   3.283  1.2228  0.7444  1.5664
 7634TIP3   OH244316   3.103   2.308   3.411 -0.2487  0.7606  0.4711
 7634TIP3    H144317   3.037   2.329   3.477 -0.5800  0.9520  0.0811
 7634TIP3    H244318   3.109   2.212   3.414 -0.6262  0.7329  0.4271
 7635TIP3   OH244319   5.894   1.120   3.619 -0.1594  0.7219 -0.0835
 7635TIP3    H144320   5.975   1.149   3.577 -0.7787  1.2697 -0.8931
 7635TIP3    H244321   5.924   1.075   3.699  1.1069 -1.5377 -1.7673
 7636TIP3   OH244322   5.622   6.771  13.381  0.2951  0.5020 -0.7786
 7636TIP3    H144323   5.681   6.782  13.307  0.6336 -0.8381 -0.7126
 7636TIP3    H244324   5.671   6.720  13.445  0.3566  2.4493  0.7946
 7637TIP3   OH244325   6.194   2.933   6.491  0.2260  0.4774 -0.0717
 7637TIP3    H144326   6.146   2.865   6.444  0.9160 -0.1468  0.1090
 7637TIP3    H244327   6.235   2.986   6.422 -1.0876  1.2927 -0.2369
 7638TIP3   OH244328   2.197   5.185  15.898  0.5857 -0.3689  0.2522
 7638TIP3    H144329   2.106   5.161  15.913  1.1210 -1.6692  1.6262
 7638TIP3    H244330   2.247   5.127  15.957  2.1022  2.4787  1.8852
 7639TIP3   OH244331   5.450   3.851   4.091  0.2110  0.0802 -0.0670
 7639TIP3    H144332   5.464   3.805   4.173  1.2519 -0.5878 -0.6109
 7639TIP3    H244333   5.358   3.837   4.070 -0.3564  1.2453  1.5712
 7640TIP3   OH244334   0.385   3.267  13.442  1.2869 -0.0431 -0.6087
 7640TIP3    H144335   0.369   3.349  13.489 -0.2241 -0.1121 -0.9828
 7640TIP3    H244336   0.353   3.199  13.501  0.3622 -0.2014 -1.2798
 7641TIP3   OH244337   3.904   6.422   5.584 -0.0261  0.3777  0.2453
 7641TIP3    H144338   3.867   6.334   5.587 -1.1479  0.8491  0.5735
 7641TIP3    H244339   3.954   6.424   5.503 -1.9025  0.1683 -0.9610
 7642TIP3   OH244340   1.613   2.318  14.264  0.3199 -0.4304  0.5623
 7642TIP3    H144341   1.690   2.343  14.315  0.9154 -0.7076 -0.1847
 7642TIP3    H244342   1.571   2.249  14.316 -0.7733  1.3750  2.1437
 7643TIP3   OH244343   0.108   4.087  15.418  0.3948  0.7797 -0.1727
 7643TIP3    H144344   0.184   4.040  15.383  0.0626 -0.3842  0.6407
 7643TIP3    H244345   0.040   4.076  15.352  0.4660  0.5437 -0.2051
 7644TIP3   OH244346   4.503   4.310  11.853  0.7839 -0.1852  0.1019
 7644TIP3    H144347   4.468   4.276  11.771  1.3854 -0.3764 -0.0804
 7644TIP3    H244348   4.574   4.250  11.875  1.2600  0.4320  0.2540
 7645TIP3   OH244349   1.008   1.304   4.166  0.1150  0.2352  0.3179
 7645TIP3    H144350   1.075   1.238   4.149 -1.0090 -0.9838  0.5883
 7645TIP3    H244351   1.056   1.387   4.165  1.8956 -0.7316  1.9734
 7646TIP3   OH244352   4.588   4.174   1.306 -0.7403 -0.1967 -0.0293
 7646TIP3    H144353   4.620   4.169   1.396 -1.9435 -0.7983  0.3705
 7646TIP3    H244354   4.625   4.255   1.272  0.2413 -0.2804  0.8025
 7647TIP3   OH244355   5.269   3.249   5.537 -0.2856  0.2862  0.4275
 7647TIP3    H144356   5.184   3.280   5.507 -0.4324 -0.1622  0.3630
 7647TIP3    H244357   5.249   3.191   5.611 -0.1819 -1.1514 -0.6451
 7648TIP3   OH244358   3.195   4.091  11.886 -0.4862  0.2819  0.1747
 7648TIP3    H144359   3.262   4.115  11.822 -0.2185 -1.5130 -0.2358
 7648TIP3    H244360   3.244   4.064  11.964 -0.7031 -1.5598 -0.3121
 7649TIP3   OH244361   5.147   6.370   0.458  0.3481 -0.2617  0.6280
 7649TIP3    H144362   5.094   6.322   0.522  0.0990  1.2643  1.6061
 7649TIP3    H244363   5.173   6.450   0.505 -0.1938  1.0852 -1.3389
 7650TIP3   OH244364   4.838   4.468  13.167  0.6990 -0.2149  0.4074
 7650TIP3    H144365   4.889   4.394  13.198 -0.5308 -1.8301 -1.3083
 7650TIP3    H244366   4.759   4.468  13.222  0.0859 -1.0225 -0.4449
 7651TIP3   OH244367   2.012   4.348   4.890 -0.2180  0.1750 -0.2901
 7651TIP3    H144368   2.059   4.348   4.974  0.4256  2.4162 -0.5899
 7651TIP3    H244369   1.943   4.414   4.902 -1.4003 -0.9470 -0.8652
 7652TIP3   OH244370   6.736   3.782   0.578 -0.3659 -0.1868  0.0019
 7652TIP3    H144371   6.740   3.688   0.564 -0.2711  0.0534 -1.5980
 7652TIP3    H244372   6.650   3.809   0.545 -0.2461  0.3404  0.1066
 7653TIP3   OH244373   5.321   2.673   2.532  0.1455 -0.6739 -0.6585
 7653TIP3    H144374   5.272   2.686   2.613  1.3343  0.4206 -0.1004
 7653TIP3    H244375   5.302   2.582   2.507 -0.2756 -1.0052  0.8083
 7654TIP3   OH244376   4.360   3.224  13.599 -0.0497 -0.3242  0.5841
 7654TIP3    H144377   4.402   3.174  13.529  1.7894 -0.0031  1.4405
 7654TIP3    H244378   4.384   3.315  13.581 -0.9205 -0.0660  0.7169
 7655TIP3   OH244379   2.704   5.407  13.435 -0.3048 -0.3836  0.6769
 7655TIP3    H144380   2.633   5.343  13.440  0.4443 -1.4378 -1.5156
 7655TIP3    H244381   2.714   5.438  13.525 -1.9504 -1.9541  1.4503
 7656TIP3   OH244382   6.137   4.260  11.183  0.1140  0.4159  0.0947
 7656TIP3    H144383   6.087   4.288  11.259  1.6924  1.2919  0.8363
 7656TIP3    H244384   6.128   4.332  11.120 -0.7710 -0.0842 -0.3591
 7657TIP3   OH244385   0.292   5.169  13.092 -0.1288 -0.6915 -0.0026
 7657TIP3    H144386   0.272   5.112  13.167 -1.7629  1.2148  1.0599
 7657TIP3    H244387   0.328   5.248  13.132 -2.6290  1.0491 -1.0822
 7658TIP3   OH244388   6.324   2.650  13.677 -0.0211 -0.0833  0.5590
 7658TIP3    H144389   6.402   2.704  13.692  0.3314 -0.3342 -0.3117
 7658TIP3    H244390   6.260   2.682  13.740  0.7378  0.2256  1.1799
 7659TIP3   OH244391   3.258   5.298   1.508 -0.0565  0.2851 -0.8049
 7659TIP3    H144392   3.310   5.239   1.454  3.0835  3.1582 -1.0841
 7659TIP3    H244393   3.281   5.274   1.598  0.1169  0.1908 -0.8749
 7660TIP3   OH244394   1.535   2.286   5.733 -0.2248 -0.0447 -0.0693
 7660TIP3    H144395   1.589   2.306   5.809  1.8838 -1.4913 -1.1574
 7660TIP3    H244396   1.591   2.302   5.658 -2.0651  0.6947 -1.3342
 7661TIP3   OH244397   1.045   2.021   0.569 -0.9168  0.2243  0.6153
 7661TIP3    H144398   1.042   1.955   0.639  0.0703  1.0173  1.4120
 7661TIP3    H244399   1.105   2.088   0.601 -0.8748  0.8690 -0.7668
 7662TIP3   OH244400   4.389   3.652   6.351  0.0804 -0.3591 -0.0643
 7662TIP3    H144401   4.425   3.715   6.289 -1.7433 -0.6158 -1.4178
 7662TIP3    H244402   4.382   3.700   6.434 -0.7738  1.0523 -0.9395
 7663TIP3   OH244403   2.778   5.685  11.577 -0.2404  0.1160 -1.2416
 7663TIP3    H144404   2.806   5.768  11.616  2.1466 -1.5853  0.8229
 7663TIP3    H244405   2.848   5.661  11.517  0.8091 -2.0310  0.7279
 7664TIP3   OH244406   0.463   6.429   5.576 -0.1472 -0.2791  0.0949
 7664TIP3    H144407   0.410   6.480   5.514 -1.1684 -0.9900  0.3758
 7664TIP3    H244408   0.495   6.493   5.639  0.5217  0.3846 -0.8891
 7665TIP3   OH244409   0.805   5.453   2.648  0.0268 -0.2894  0.0599
 7665TIP3    H144410   0.886   5.472   2.601  0.4460 -1.0805  0.4622
 7665TIP3    H244411   0.767   5.539   2.665  1.3964  0.1637  0.9412
 7666TIP3   OH244412   6.773   2.852   1.179  0.3839  0.5479  0.4005
 7666TIP3    H144413   6.699   2.817   1.129  1.9136 -1.9554 -0.2044
 7666TIP3    H244414   6.753   2.945   1.190 -1.8552  0.3341 -1.5212
 7667TIP3   OH244415   6.614   3.680   4.551 -0.1946  0.2305 -0.1125
 7667TIP3    H144416   6.573   3.598   4.579  0.4928  0.9981  3.3113
 7667TIP3    H244417   6.567   3.749   4.599  1.6237  1.5302 -0.1311
 7668TIP3   OH244418   6.527   6.517   3.218 -0.5183 -0.0899  0.3830
 7668TIP3    H144419   6.480   6.495   3.137 -0.3349  1.0305 -0.0377
 7668TIP3    H244420   6.603   6.460   3.217 -1.4585 -1.3660  0.6777
 7669TIP3   OH244421   1.325   3.803  12.826 -0.3414 -0.0780 -0.7102
 7669TIP3    H144422   1.359   3.805  12.916 -0.0599 -0.2717 -0.8129
 7669TIP3    H244423   1.393   3.759  12.775 -0.5635 -0.0966 -0.9941
 7670TIP3   OH244424   4.533   0.742   1.540  0.1686 -0.0519 -0.2430
 7670TIP3    H144425   4.472   0.708   1.606 -0.9736  1.7788 -0.3352
 7670TIP3    H244426   4.514   0.691   1.461 -1.3930  0.6247 -0.3257
 7671TIP3   OH244427   5.981   1.110  16.841  0.1619  0.4377 -0.0969
 7671TIP3    H144428   5.986   1.054  16.764 -0.8412 -2.7749  2.0625
 7671TIP3    H244429   6.034   1.186  16.819  2.7285 -1.9827 -2.6789
 7672TIP3   OH244430   6.396   3.181  16.361  0.5981 -0.2771 -0.2750
 7672TIP3    H144431   6.470   3.171  16.301  2.0909  3.3957  0.8178
 7672TIP3    H244432   6.430   3.150  16.445  0.1534 -0.7104 -0.2523
 7673TIP3   OH244433   0.500   1.526   6.533 -0.1860 -0.1922  0.1659
 7673TIP3    H144434   0.557   1.600   6.554 -0.6387 -0.2204  1.5398
 7673TIP3    H244435   0.558   1.462   6.492  0.8082 -0.2387  1.5787
 7674TIP3   OH244436   2.407   2.634  15.914  0.1311  0.0380  0.2005
 7674TIP3    H144437   2.482   2.639  15.974  0.5566 -2.4059 -0.0803
 7674TIP3    H244438   2.374   2.724  15.910  2.2331  0.9087  1.3602
 7675TIP3   OH244439   3.836   4.870   4.539 -0.5592  0.1716  0.0335
 7675TIP3    H144440   3.823   4.792   4.486  1.2516 -0.7962  0.9401
 7675TIP3    H244441   3.766   4.929   4.513 -0.5771 -0.8375 -2.3529
 7676TIP3   OH244442   5.127   0.094  16.956 -0.0641  0.0131  0.1553
 7676TIP3    H144443   5.121   0.096  17.052  0.6436 -0.6013  0.2146
 7676TIP3    H244444   5.085   0.175  16.928 -0.9362 -0.1574  0.9535
 7677TIP3   OH244445   3.431   4.090   4.090 -0.0948 -0.3835 -0.6655
 7677TIP3    H144446   3.406   4.068   4.180 -2.5907  0.1238 -1.1931
 7677TIP3    H244447   3.370   4.041   4.035 -0.7368  1.8412 -1.9955
 7678TIP3   OH244448   5.915   4.097   2.121  0.1798 -0.2292 -0.1282
 7678TIP3    H144449   5.950   4.019   2.164 -0.5731  0.1053  1.1188
 7678TIP3    H244450   5.990   4.138   2.079  0.8487 -0.8201  0.4934
 7679TIP3   OH244451   0.693   2.637  14.385 -0.1388  0.6892 -0.4561
 7679TIP3    H144452   0.776   2.601  14.354 -0.5475  1.1779 -2.2320
 7679TIP3    H244453   0.650   2.564  14.430  0.9767  0.2544 -0.0914
 7680TIP3   OH244454   6.181   4.741   0.836 -0.3263 -0.0597 -0.2731
 7680TIP3    H144455   6.115   4.771   0.899  0.7839  1.3681  0.2356
 7680TIP3    H244456   6.234   4.678   0.885 -0.5700 -0.3058 -0.3240
 7681TIP3   OH244457   1.996   1.982  16.434  0.1646  0.0841  0.2074
 7681TIP3    H144458   1.937   1.944  16.499 -1.5535 -0.9231 -1.9108
 7681TIP3    H244459   1.946   2.053  16.393  1.1336  0.5373 -0.2269
 7682TIP3   OH244460   2.976   6.404   0.130  0.3532  0.4576  0.3991
 7682TIP3    H144461   2.914   6.476   0.132  0.5118  0.7323 -2.5014
 7682TIP3    H244462   3.060   6.444   0.151  0.3928  1.0775 -0.9052
 7683TIP3   OH244463   6.742   3.668  16.129 -0.7020  0.6650  0.3187
 7683TIP3    H144464   6.681   3.703  16.065  0.2797 -0.5826 -1.3405
 7683TIP3    H244465   6.687   3.614  16.186 -1.4805  1.2688  0.1569
 7684TIP3   OH244466   3.828   4.461   6.483 -0.6682 -0.3335  0.0463
 7684TIP3    H144467   3.883   4.396   6.526  0.2845 -0.4661 -1.3449
 7684TIP3    H244468   3.756   4.410   6.444 -0.1135 -0.5249 -0.7410
 7685TIP3   OH244469   1.743   5.123  12.999 -0.3006 -0.2529 -0.2515
 7685TIP3    H144470   1.661   5.110  12.951  0.6160 -0.4045 -1.8394
 7685TIP3    H244471   1.800   5.167  12.936  1.0405 -0.7135  0.6189
 7686TIP3   OH244472   4.703   0.012   3.611 -0.2184  0.2057 -0.3937
 7686TIP3    H144473   4.798   0.020   3.602 -0.0933 -0.3848  0.3520
 7686TIP3    H244474   4.687   0.014   3.705 -1.0000  0.8256 -0.5284
 7687TIP3   OH244475   3.197   6.684   5.214  0.5309 -0.8975  0.0352
 7687TIP3    H144476   3.265   6.692   5.148  0.1121  1.1481 -0.2031
 7687TIP3    H244477   3.224   6.744   5.284 -0.1190 -1.4185  0.7490
 7688TIP3   OH244478   4.621   2.566  14.598  0.2319  0.2035  0.0583
 7688TIP3    H144479   4.588   2.573  14.508 -0.4840 -0.0311  0.3048
 7688TIP3    H244480   4.614   2.655  14.633 -0.4863  0.0838  0.2300
 7689TIP3   OH244481   4.614   0.503  15.074 -0.3797  0.7057 -0.3420
 7689TIP3    H144482   4.591   0.594  15.092 -1.4315  0.4877 -0.5634
 7689TIP3    H244483   4.554   0.451  15.128  0.2332  0.1424 -0.1891
 7690TIP3   OH244484   3.859   4.665  13.773 -0.2067  0.3626  0.2967
 7690TIP3    H144485   3.954   4.682  13.778  0.2582 -1.4882 -1.5191
 7690TIP3    H244486   3.832   4.708  13.693 -0.8508  0.5880  0.6372
 7691TIP3   OH244487   3.165   4.318   2.622 -0.1184  0.1472 -0.2048
 7691TIP3    H144488   3.221   4.393   2.643  0.9579 -0.7488  0.1885
 7691TIP3    H244489   3.194   4.288   2.536  0.4761 -0.7260  0.2852
 7692TIP3   OH244490   0.037   1.695   2.284 -0.4148 -0.4193 -0.3716
 7692TIP3    H144491   0.124   1.715   2.317 -0.3731  1.9384 -1.8186
 7692TIP3    H244492   0.050   1.623   2.222  0.5622  0.1999 -0.8888
 7693TIP3   OH244493   5.436   4.298  15.086  0.9181  0.1357  0.2730
 7693TIP3    H144494   5.391   4.237  15.027  0.6436  0.3003  0.3122
 7693TIP3    H244495   5.373   4.316  15.155 -0.1449  2.8005 -1.3083
 7694TIP3   OH244496   1.142   6.569  10.943  0.0198 -0.1868  0.6372
 7694TIP3    H144497   1.060   6.574  10.895  0.0810  0.3132  0.5794
 7694TIP3    H244498   1.184   6.654  10.927  1.3634 -1.0757 -0.8229
 7695TIP3   OH244499   4.251   2.048   1.917  0.1549  0.5444 -0.3565
 7695TIP3    H144500   4.292   2.050   2.003 -0.1314  3.7287 -0.2523
 7695TIP3    H244501   4.323   2.029   1.856  0.0989 -3.3442  0.6269
 7696TIP3   OH244502   3.859   3.148   2.135  0.2120  0.4180 -0.4370
 7696TIP3    H144503   3.808   3.162   2.215 -1.1672 -0.3021 -1.1981
 7696TIP3    H244504   3.795   3.128   2.067  1.4153  0.5141 -1.6313
 7697TIP3   OH244505   4.316   3.611  14.130 -0.0670  0.7634  0.3057
 7697TIP3    H144506   4.341   3.588  14.041  1.2003  1.7936  0.3845
 7697TIP3    H244507   4.380   3.567  14.186 -0.6780  0.3642  0.7087
 7698TIP3   OH244508   4.137   3.403  15.252 -0.7531 -0.5122 -0.1815
 7698TIP3    H144509   4.082   3.337  15.210 -2.1097 -1.1667  2.4817
 7698TIP3    H244510   4.086   3.483  15.251 -0.8059 -0.5372  0.2045
 7699TIP3   OH244511   0.463   3.269  11.671 -0.3912  0.1817 -0.1226
 7699TIP3    H144512   0.372   3.256  11.644 -0.4292 -2.7461  1.1837
 7699TIP3    H244513   0.457   3.323  11.750 -0.8178  1.7612 -1.2068
 7700TIP3   OH244514   5.403   2.418  13.321 -0.1198  0.3389 -0.4678
 7700TIP3    H144515   5.416   2.513  13.314  1.6648  0.2331  0.9875
 7700TIP3    H244516   5.413   2.387  13.231 -1.9839  1.6623 -1.1531
 7701TIP3   OH244517   5.862   5.794  14.027 -0.0307  0.0792  0.5157
 7701TIP3    H144518   5.917   5.786  13.949  0.3032  2.1335  0.5187
 7701TIP3    H244519   5.812   5.712  14.029  2.3013 -1.4245 -0.0149
 7702TIP3   OH244520   2.569   2.214   5.603 -0.0179 -0.0910  0.4164
 7702TIP3    H144521   2.626   2.290   5.619  0.3246 -0.2218 -0.1640
 7702TIP3    H244522   2.530   2.231   5.518  0.5247 -0.8532  0.0102
 7703TIP3   OH244523   6.682   6.332  12.930  0.1423  0.4787  0.4394
 7703TIP3    H144524   6.707   6.272  13.000  0.0650 -0.2935 -0.1876
 7703TIP3    H244525   6.640   6.405  12.975 -0.3575 -0.2445  1.1655
 7704TIP3   OH244526   2.102   0.491   1.662 -0.2221 -0.3588 -0.0076
 7704TIP3    H144527   2.125   0.425   1.727 -2.1353  0.1440  1.2340
 7704TIP3    H244528   2.181   0.545   1.653  0.0159 -0.3324  2.0470
 7705TIP3   OH244529   5.538   1.640   0.127 -0.3036 -0.2712  0.4019
 7705TIP3    H144530   5.603   1.583   0.168 -0.8833 -0.9228  0.4276
 7705TIP3    H244531   5.500   1.689   0.200  1.3154  1.3320  0.2021
 7706TIP3   OH244532   4.496   6.411   3.245 -0.6108 -0.0313  0.4461
 7706TIP3    H144533   4.513   6.395   3.152  0.1788  1.8116  0.2506
 7706TIP3    H244534   4.415   6.461   3.247 -1.8477 -1.9725  0.9164
 7707TIP3   OH244535   3.085   5.193   4.977  0.7769  0.3502 -0.8610
 7707TIP3    H144536   3.006   5.140   4.963  1.9733 -1.6187 -0.3744
 7707TIP3    H244537   3.054   5.271   5.023 -0.9285 -0.2948 -0.8837
 7708TIP3   OH244538   1.006   0.809  15.443 -0.7757  0.1259  0.4884
 7708TIP3    H144539   0.968   0.865  15.376  0.3736  1.6568  1.0827
 7708TIP3    H244540   0.937   0.799  15.508 -1.3671 -0.0645 -0.1688
 7709TIP3   OH244541   4.625   4.253  14.108 -0.1212 -0.1374 -0.2550
 7709TIP3    H144542   4.677   4.330  14.086 -0.4235 -0.2539 -1.4225
 7709TIP3    H244543   4.686   4.179  14.096 -0.3134 -0.2093 -0.7758
 7710TIP3   OH244544   1.574   5.170   4.875 -0.3650 -0.3151 -0.4525
 7710TIP3    H144545   1.495   5.223   4.863  0.0180  0.2466 -0.4752
 7710TIP3    H244546   1.592   5.174   4.969  1.3184  1.9681 -0.8448
 7711TIP3   OH244547   6.223   6.136   5.790 -0.1354 -0.6249 -0.1374
 7711TIP3    H144548   6.259   6.161   5.875 -2.3528  2.5735 -0.0386
 7711TIP3    H244549   6.272   6.189   5.727 -1.1896 -0.0313 -0.4645
 7712TIP3   OH244550   2.596   2.016   3.593 -0.3415 -0.3145  0.0541
 7712TIP3    H144551   2.630   1.938   3.550 -1.8498 -1.2999  0.6206
 7712TIP3    H244552   2.514   2.035   3.548  0.9754  2.1679 -1.4397
 7713TIP3   OH244553   2.453   3.937  14.026 -0.5204  0.1708  1.0544
 7713TIP3    H144554   2.488   3.848  14.028 -2.0992 -0.5229 -0.5180
 7713TIP3    H244555   2.359   3.926  14.042 -0.8809  1.4438 -0.0991
 7714TIP3   OH244556   5.186   3.990   4.585  0.1425 -0.4403 -0.1693
 7714TIP3    H144557   5.247   3.924   4.553 -0.5011 -0.7771 -0.7300
 7714TIP3    H244558   5.232   4.073   4.573  0.1652 -0.6212 -1.3960
 7715TIP3   OH244559   1.018   1.897   0.321 -0.6569  0.0761 -0.2467
 7715TIP3    H144560   1.044   1.932   0.406  2.3666 -1.9370 -0.2838
 7715TIP3    H244561   1.018   1.973   0.262 -0.7612  1.1235  1.0937
 7716TIP3   OH244562   6.556   4.742   4.175  0.3100  0.1449 -0.0651
 7716TIP3    H144563   6.485   4.685   4.203  0.5047  0.1843  0.5146
 7716TIP3    H244564   6.635   4.687   4.178  0.8273  0.9209  2.3777
 7717TIP3   OH244565   1.188   0.245  16.606  0.4578  0.3037 -0.1038
 7717TIP3    H144566   1.238   0.225  16.685  0.0232 -0.0877  0.0736
 7717TIP3    H244567   1.153   0.333  16.620 -0.3590 -0.1219  0.5152
 7718TIP3   OH244568   1.540   4.543   4.145 -0.3160 -0.0247  0.2468
 7718TIP3    H144569   1.581   4.629   4.154  0.9140 -0.3088 -2.3183
 7718TIP3    H244570   1.594   4.485   4.199  1.2539  0.0601 -1.2202
 7719TIP3   OH244571   4.453   5.376  14.563  0.1300  0.3923 -0.2629
 7719TIP3    H144572   4.513   5.404  14.631 -0.5476  1.1429  0.0296
 7719TIP3    H244573   4.487   5.415  14.483 -0.1726  1.1124 -0.0401
 7720TIP3   OH244574   6.772   4.606   2.120 -0.3302  0.3320 -0.0430
 7720TIP3    H144575   6.770   4.627   2.213 -0.8589 -0.1689  0.0658
 7720TIP3    H244576   6.685   4.629   2.088 -0.6806 -0.9642 -0.0696
 7721TIP3   OH244577   2.284   6.117   5.448 -0.1313 -0.2770 -0.1163
 7721TIP3    H144578   2.190   6.126   5.431 -0.3392  1.3905  1.7514
 7721TIP3    H244579   2.289   6.064   5.528  0.5129 -0.1939 -0.0996
 7722TIP3   OH244580   5.552   6.160  11.096  0.0477  0.5110 -0.1519
 7722TIP3    H144581   5.588   6.225  11.035 -2.0544  1.4814 -0.4229
 7722TIP3    H244582   5.457   6.165  11.082 -0.2333 -1.6583  0.8214
 7723TIP3   OH244583   3.351   4.878   0.424 -0.7985 -0.6804 -0.4427
 7723TIP3    H144584   3.334   4.798   0.373  0.1820 -0.5273 -1.0178
 7723TIP3    H244585   3.348   4.949   0.360  3.9000 -0.8355 -0.9566
 7724TIP3   OH244586   2.072   3.849  12.037  0.1407  0.0504 -0.0248
 7724TIP3    H144587   2.109   3.935  12.016  0.0712 -0.2131 -1.2311
 7724TIP3    H244588   2.083   3.797  11.957  0.0368 -1.0183  0.6434
 7725TIP3   OH244589   0.130   2.600  11.925  0.4297 -0.6904 -0.3773
 7725TIP3    H144590   0.212   2.596  11.974 -1.0512  0.1958  2.2295
 7725TIP3    H244591   0.101   2.509  11.918 -0.4156 -0.6454  2.2737
 7726TIP3   OH244592   5.086   2.756   3.618 -0.5888  0.1414 -0.1390
 7726TIP3    H144593   5.074   2.739   3.712 -2.0124  1.6058 -0.0310
 7726TIP3    H244594   5.140   2.835   3.614 -1.0784  0.4587 -0.5398
 7727TIP3   OH244595   4.299   3.527  13.554  0.2116  0.4859 -0.3419
 7727TIP3    H144596   4.285   3.571  13.637  1.6209  1.4316 -0.5796
 7727TIP3    H244597   4.224   3.552  13.500 -0.1849  0.7008  0.3072
 7728TIP3   OH244598   5.139   0.769   0.968 -0.5059  0.2435  0.1366
 7728TIP3    H144599   5.088   0.784   1.048 -1.5304 -1.5024 -0.1619
 7728TIP3    H244600   5.210   0.711   0.996 -0.2779  0.4474 -0.0216
 7729TIP3   OH244601   5.349   2.704  12.252 -0.1856  0.1702 -0.5844
 7729TIP3    H144602   5.256   2.688  12.235 -0.6019  1.0343  0.8564
 7729TIP3    H244603   5.388   2.617  12.254 -1.0864 -0.2367 -0.4790
 7730TIP3   OH244604   4.922   6.607   4.071  0.1775 -0.1872  0.1110
 7730TIP3    H144605   4.840   6.564   4.093 -0.0856 -0.3913 -1.2591
 7730TIP3    H244606   4.920   6.617   3.976  1.1858  0.9295  0.1971
 7731TIP3   OH244607   1.008   3.081   0.115  0.2467  0.5013 -0.6897
 7731TIP3    H144608   1.070   3.018   0.078  0.1567  0.2034 -0.3375
 7731TIP3    H244609   0.925   3.062   0.070 -0.1589 -0.6553  0.4944
 7732TIP3   OH244610   0.049   1.537  16.400  0.2707 -0.1541 -0.0760
 7732TIP3    H144611   0.122   1.482  16.372  0.5800  0.6833 -0.9674
 7732TIP3    H244612   0.039   1.601  16.329 -1.0974 -0.0439  0.2031
 7733TIP3   OH244613   4.125   0.364  11.662 -0.2235 -0.8010  0.1139
 7733TIP3    H144614   4.146   0.368  11.569 -1.6601  1.1086 -0.1299
 7733TIP3    H244615   4.096   0.274  11.676 -0.4793 -0.9549 -1.3769
 7734TIP3   OH244616   0.755   5.411  16.043 -0.4008  0.4962 -0.1477
 7734TIP3    H144617   0.709   5.329  16.061 -1.3150  1.0565  0.1069
 7734TIP3    H244618   0.738   5.429  15.951  2.0739 -0.9981 -0.9294
 7735TIP3   OH244619   4.406   5.241  11.202 -0.1041 -0.4597 -0.2688
 7735TIP3    H144620   4.318   5.213  11.176 -0.1495  0.5095 -1.1695
 7735TIP3    H244621   4.464   5.198  11.139 -0.2269  2.0191 -2.1599
 7736TIP3   OH244622   5.468   6.414  15.313 -0.2031 -0.6291 -0.0170
 7736TIP3    H144623   5.383   6.370  15.319 -1.2769  1.2960 -0.7473
 7736TIP3    H244624   5.494   6.427  15.404 -1.9916  1.1454  0.2916
 7737TIP3   OH244625   3.557   2.684  14.145 -0.4594  0.1618 -0.1392
 7737TIP3    H144626   3.477   2.690  14.198 -0.3794  2.7675 -0.2733
 7737TIP3    H244627   3.527   2.699  14.055 -0.0247 -0.3684 -0.3756
 7738TIP3   OH244628   5.682   5.968  14.125  0.1377  0.2255 -0.0832
 7738TIP3    H144629   5.733   5.895  14.090 -0.0589 -0.7667  1.6205
 7738TIP3    H244630   5.735   6.045  14.108  1.3215 -0.5619 -0.0404
 7739TIP3   OH244631   0.837   4.477  12.559 -0.0040  0.8155  0.3920
 7739TIP3    H144632   0.761   4.494  12.614 -0.3778 -2.4049  0.9852
 7739TIP3    H244633   0.809   4.501  12.471 -0.7662  2.2425  1.0220
 7740TIP3   OH244634   4.102   6.462  15.665 -0.4210  0.1864 -0.2235
 7740TIP3    H144635   4.009   6.473  15.686 -0.1268  0.0069  1.2214
 7740TIP3    H244636   4.118   6.526  15.596 -1.2948  1.2742  0.5471
 7741TIP3   OH244637   6.530   6.061   0.079  0.0951 -0.0161  0.5595
 7741TIP3    H144638   6.549   6.050   0.173 -2.5616  0.5609  1.1926
 7741TIP3    H244639   6.537   6.155   0.064 -1.3178  0.1041  0.6058
 7742TIP3   OH244640   5.540   3.695   2.925  0.0670 -0.2363  0.3721
 7742TIP3    H144641   5.522   3.787   2.908  0.7710 -0.2486 -0.4831
 7742TIP3    H244642   5.623   3.695   2.972 -0.1847 -0.4114  0.8246
 7743TIP3   OH244643   6.783   5.805   1.107  0.5916  0.2202 -0.2338
 7743TIP3    H144644   6.764   5.895   1.133  2.4495 -0.0335  2.1468
 7743TIP3    H244645   6.710   5.753   1.143  0.8847  0.4276  0.6423
 7744TIP3   OH244646   1.857   2.150   5.166 -0.1883  0.2115  0.1730
 7744TIP3    H144647   1.930   2.146   5.228 -0.5151 -0.3369  0.5319
 7744TIP3    H244648   1.823   2.239   5.175 -0.4529  0.0268  1.0409
 7745TIP3   OH244649   3.470   5.509   1.546  0.1909  0.2743 -0.2334
 7745TIP3    H144650   3.486   5.533   1.455  2.4328  0.5034  0.2082
 7745TIP3    H244651   3.436   5.419   1.541 -1.6988  1.0128 -1.4004
 7746TIP3   OH244652   3.569   4.107  10.734  0.1427 -0.2540  0.1380
 7746TIP3    H144653   3.521   4.160  10.670  2.4020  2.4373  0.5789
 7746TIP3    H244654   3.651   4.085  10.690  0.9769  0.1442  1.4581
 7747TIP3   OH244655   2.448   4.545   1.465 -0.2700  0.1025  0.2001
 7747TIP3    H144656   2.479   4.575   1.550 -0.9621  0.8317  0.2036
 7747TIP3    H244657   2.500   4.595   1.402 -0.2650  0.0917  0.1953
 7748TIP3   OH244658   1.084   5.595   1.268 -0.4268  0.1588  0.0279
 7748TIP3    H144659   1.164   5.577   1.218 -1.1569 -1.7740 -0.4562
 7748TIP3    H244660   1.108   5.575   1.358 -0.2189  0.0662 -0.0462
 7749TIP3   OH244661   5.481   0.769   3.884  0.5256  0.5073  0.0535
 7749TIP3    H144662   5.430   0.688   3.883 -0.0598  0.8519  1.5499
 7749TIP3    H244663   5.507   0.781   3.792 -0.1133 -0.8983 -0.3364
 7750TIP3   OH244664   5.305   1.890  15.882  0.6865  0.2023 -0.2676
 7750TIP3    H144665   5.340   1.943  15.810 -0.4502  0.6315 -0.5043
 7750TIP3    H244666   5.221   1.930  15.904  1.2001  0.3393  1.5835
 7751TIP3   OH244667   3.989   6.312  15.975 -0.4654 -0.4833 -0.0570
 7751TIP3    H144668   3.948   6.269  15.899 -0.3674  1.0539 -0.9856
 7751TIP3    H244669   3.916   6.350  16.023 -0.5373 -1.5366  0.7035
 7752TIP3   OH244670   2.303   2.981  14.075  0.7368  0.1661  0.2055
 7752TIP3    H144671   2.276   2.894  14.048  3.6650 -0.4715 -0.9080
 7752TIP3    H244672   2.393   2.989  14.044  1.4874  2.5228  2.7180
 7753TIP3   OH244673   3.924   6.757   0.690  0.5855  0.1767 -0.0834
 7753TIP3    H144674   3.999   6.816   0.694  1.8197 -1.2084 -2.1744
 7753TIP3    H244675   3.887   6.771   0.603  0.2483 -1.3460 -0.1922
 7754TIP3   OH244676   1.773   5.347   5.274 -1.0030 -0.1545 -0.0281
 7754TIP3    H144677   1.845   5.395   5.315  1.2759 -1.5453 -2.3571
 7754TIP3    H244678   1.800   5.255   5.277 -2.4800 -0.6476 -1.3465
 7755TIP3   OH244679   4.091   1.917  12.833 -0.0043 -0.0386 -0.6167
 7755TIP3    H144680   4.181   1.924  12.864  0.2922 -0.0716 -1.4420
 7755TIP3    H244681   4.041   1.975  12.891  0.2227 -1.4537  1.0210
 7756TIP3   OH244682   4.222   0.048   6.284  0.2697 -0.4485  0.1322
 7756TIP3    H144683   4.286  -0.019   6.304  0.3944 -0.3045  0.2200
 7756TIP3    H244684   4.144   0.022   6.334  1.3681  1.2378  2.8547
 7757TIP3   OH244685   2.906   2.534  14.071  0.1679 -0.1542  0.4533
 7757TIP3    H144686   2.974   2.471  14.048  0.7255  1.0833 -1.3503
 7757TIP3    H244687   2.953   2.610  14.106 -0.3002  0.5164 -0.3525
 7758TIP3   OH244688   2.041   6.623   5.216  0.3684  0.0846  0.1758
 7758TIP3    H144689   1.961   6.631   5.164 -0.1354 -2.1115  0.5854
 7758TIP3    H244690   2.063   6.714   5.239 -1.3207  0.8127 -0.9403
 7759TIP3   OH244691   5.769   0.181  15.751  0.4660 -0.0221 -0.3224
 7759TIP3    H144692   5.686   0.185  15.703  0.2312  0.7720  0.1481
 7759TIP3    H244693   5.822   0.119  15.701  0.1617  0.6594 -1.5093
 7760TIP3   OH244694   4.202   3.801   1.664  1.2973  0.2308 -0.6825
 7760TIP3    H144695   4.213   3.845   1.580 -2.2182 -1.0430 -1.9128
 7760TIP3    H244696   4.162   3.868   1.721  0.6481  0.1437 -1.0288
 7761TIP3   OH244697   0.701   0.172  13.843  0.0411 -0.2559 -0.2878
 7761TIP3    H144698   0.679   0.104  13.907  0.9995  0.2776  0.6232
 7761TIP3    H244699   0.619   0.218  13.828 -0.1991 -0.4109  0.5360
 7762TIP3   OH244700   1.268   3.195  15.512 -0.2692 -0.4915  0.2482
 7762TIP3    H144701   1.360   3.222  15.502 -1.0671  1.9996 -0.7662
 7762TIP3    H244702   1.251   3.202  15.606  0.7483 -1.6147  0.5303
 7763TIP3   OH244703   1.787   5.373  14.711  0.1914 -0.0811  0.1987
 7763TIP3    H144704   1.775   5.455  14.758 -1.2701 -0.2168  0.0919
 7763TIP3    H244705   1.815   5.399  14.624  1.5650  0.2229  0.7176
 7764TIP3   OH244706   0.722   4.250  16.593  0.2784  0.6704  0.4116
 7764TIP3    H144707   0.719   4.320  16.527 -3.2804  0.3970  0.1832
 7764TIP3    H244708   0.712   4.296  16.676 -1.6966  0.5052  0.2879
 7765TIP3   OH244709   0.607   3.844  16.401  0.3862 -0.1702 -0.3160
 7765TIP3    H144710   0.574   3.810  16.317  1.1353 -0.0830 -0.6538
 7765TIP3    H244711   0.679   3.784  16.424 -0.6958 -1.0061  0.9508
 7766TIP3   OH244712   4.269   5.955  15.806 -0.1319  0.4948  0.3535
 7766TIP3    H144713   4.199   6.011  15.772  0.7010  0.3629 -1.6666
 7766TIP3    H244714   4.327   6.015  15.853 -1.2149  0.7160  1.4277
 7767TIP3   OH244715   3.574   3.392   5.073  0.2885 -0.0292 -0.1434
 7767TIP3    H144716   3.594   3.302   5.050 -0.8801 -0.6362  1.1559
 7767TIP3    H244717   3.589   3.442   4.993  2.2718 -1.1606 -0.5055
 7768TIP3   OH244718   6.307   5.754   0.080  0.4184 -0.2202 -0.1369
 7768TIP3    H144719   6.281   5.765  -0.012  3.0237  1.5765 -0.7214
 7768TIP3    H244720   6.299   5.842   0.117 -0.0562 -0.8256  1.2105
 7769TIP3   OH244721   1.450   3.389  15.915  0.3959 -0.1490  0.4595
 7769TIP3    H144722   1.498   3.406  15.997 -0.1197  2.5905  0.2587
 7769TIP3    H244723   1.485   3.454  15.854 -1.9421  0.4042 -0.3406
 7770TIP3   OH244724   5.844   4.660  16.622 -0.3552  0.0302 -0.1453
 7770TIP3    H144725   5.766   4.612  16.593 -0.9726 -0.3500  2.0387
 7770TIP3    H244726   5.914   4.629  16.565 -1.3467 -1.2647 -0.6867
 7771TIP3   OH244727   5.443   3.019  13.270 -0.1692 -0.0751 -0.1047
 7771TIP3    H144728   5.454   2.938  13.320  2.5603 -1.2830 -2.5185
 7771TIP3    H244729   5.525   3.066  13.282 -0.7395  1.1245 -0.8257
 7772TIP3   OH244730   6.390   2.112  12.544  0.0730  0.0820 -0.1761
 7772TIP3    H144731   6.428   2.135  12.459  1.9420  0.2236  0.6691
 7772TIP3    H244732   6.417   2.021  12.559 -0.8862 -0.1856 -0.0838
 7773TIP3   OH244733   4.072   2.654  16.661 -0.5164 -0.3544  0.5810
 7773TIP3    H144734   4.101   2.568  16.632 -0.0202 -0.3731  1.1253
 7773TIP3    H244735   3.977   2.651  16.653 -0.4668 -0.7697  0.1016
 7774TIP3   OH244736   2.781   3.498   1.849  0.3478 -0.6471  0.5061
 7774TIP3    H144737   2.840   3.465   1.916  1.4131 -0.5656 -0.3853
 7774TIP3    H244738   2.714   3.430   1.840  1.6316 -1.8426 -0.1715
 7775TIP3   OH244739   3.366   5.009   2.866  0.1740  0.2299 -0.1856
 7775TIP3    H144740   3.318   5.045   2.792  1.5771 -0.2083 -1.3111
 7775TIP3    H244741   3.407   5.085   2.907 -1.9779  0.7064  1.1916
 7776TIP3   OH244742   6.390   2.156  11.053 -0.1123  0.2732 -0.1902
 7776TIP3    H144743   6.409   2.249  11.061  1.7559 -0.1118 -0.1285
 7776TIP3    H244744   6.417   2.133  10.964 -0.5306 -0.2218 -0.1935
 7777TIP3   OH244745   1.467   1.022   3.012 -0.2366  0.2013  0.5008
 7777TIP3    H144746   1.385   0.988   2.977 -0.2707  0.7766  0.0193
 7777TIP3    H244747   1.505   1.073   2.941  1.3031 -1.3459  0.1831
 7778TIP3   OH244748   3.401   3.721   3.188  0.1646  0.1256  0.1999
 7778TIP3    H144749   3.409   3.750   3.097  0.4548  1.5243  0.6639
 7778TIP3    H244750   3.381   3.801   3.237 -0.5987 -0.7157  1.2899
 7779TIP3   OH244751   1.878   1.021  16.757 -0.4892  0.2897  0.0579
 7779TIP3    H144752   1.919   0.940  16.786 -2.6063 -0.8797 -0.1331
 7779TIP3    H244753   1.785   1.003  16.758 -0.9123  2.1462 -1.7536
 7780TIP3   OH244754   0.716   2.011  14.127 -1.1409  0.6608 -0.3987
 7780TIP3    H144755   0.658   2.033  14.054 -0.9646  0.2260 -0.6749
 7780TIP3    H244756   0.794   1.975  14.085 -2.5705 -3.3177  0.0962
 7781TIP3   OH244757   6.143   6.201   3.919  0.0296  0.0985 -0.2025
 7781TIP3    H144758   6.084   6.173   3.849 -0.4945 -3.0273  1.4289
 7781TIP3    H244759   6.088   6.253   3.977 -0.8310 -1.6542  0.5848
 7782TIP3   OH244760   0.613   2.728   5.800 -0.3524 -0.6660 -0.1176
 7782TIP3    H144761   0.586   2.808   5.755 -1.9425 -0.1321  1.7142
 7782TIP3    H244762   0.655   2.675   5.732  0.5656  1.6357 -1.3844
 7783TIP3   OH244763   2.872   6.276  16.633  0.4666 -0.1569  0.1985
 7783TIP3    H144764   2.927   6.203  16.660  0.5453 -0.9879 -2.1047
 7783TIP3    H244765   2.782   6.244  16.642  0.4216  0.2206  1.2135
 7784TIP3   OH244766   5.779   4.302  14.716  0.0951 -0.3556  0.3883
 7784TIP3    H144767   5.825   4.369  14.665  0.2192  0.6118  1.7498
 7784TIP3    H244768   5.846   4.268  14.775 -0.7675  0.6746  2.0018
 7785TIP3   OH244769   0.416   3.459  17.122  0.1720 -0.5554 -0.1044
 7785TIP3    H144770   0.510   3.449  17.108 -0.0870 -1.2485 -1.4905
 7785TIP3    H244771   0.381   3.370  17.117 -0.4958 -0.3548  0.9136
 7786TIP3   OH244772   0.558   1.951  15.415 -0.1832 -0.0695  0.7834
 7786TIP3    H144773   0.600   1.933  15.331 -0.9171  0.7644  0.2315
 7786TIP3    H244774   0.564   1.868  15.463  0.7567 -0.3839  0.1429
 7787TIP3   OH244775   4.146   5.516  16.469  0.5328 -0.0244 -0.3493
 7787TIP3    H144776   4.201   5.470  16.532 -0.8853  0.8672  1.6208
 7787TIP3    H244777   4.126   5.600  16.511 -1.3763  0.1289 -1.4775
 7788TIP3   OH244778   5.586   0.003  15.592  0.3830 -0.0098  0.3257
 7788TIP3    H144779   5.584   0.001  15.496  1.5600 -0.4919  0.2922
 7788TIP3    H244780   5.499   0.032  15.618  0.0133 -0.0081 -0.8889
 7789TIP3   OH244781   1.806   3.854   0.720 -0.0012  0.0728  0.3431
 7789TIP3    H144782   1.736   3.850   0.785  0.3829 -2.1456  0.6438
 7789TIP3    H244783   1.763   3.885   0.640 -0.6053  2.1529  1.4498
 7790TIP3   OH244784   6.413   2.861   5.190 -0.4736  0.5125 -0.2979
 7790TIP3    H144785   6.442   2.950   5.169  1.0385 -0.0497 -0.6917
 7790TIP3    H244786   6.395   2.822   5.105 -1.5645  0.5810 -0.0977
 7791TIP3   OH244787   5.218   0.369   2.123 -0.2319 -0.2608  0.2266
 7791TIP3    H144788   5.252   0.285   2.092  0.9720  0.9642 -1.9178
 7791TIP3    H244789   5.135   0.380   2.076  0.3677  0.4433 -0.6833
 7792TIP3   OH244790   1.272   5.451  15.177 -0.3383 -0.0492 -0.5604
 7792TIP3    H144791   1.341   5.461  15.111 -0.3231 -0.8687 -0.6772
 7792TIP3    H244792   1.258   5.357  15.182 -2.7119  0.1968 -1.8172
 7793TIP3   OH244793   5.336   5.731  13.968 -0.3679  0.0841  0.3297
 7793TIP3    H144794   5.370   5.674  13.899 -1.0696  0.1833 -0.1067
 7793TIP3    H244795   5.241   5.733  13.953 -0.2737  1.9725 -0.1156
 7794TIP3   OH244796   2.558   2.307   5.045 -0.1889 -0.0120 -0.5920
 7794TIP3    H144797   2.562   2.345   5.133 -2.4359 -1.5449  0.2208
 7794TIP3    H244798   2.636   2.252   5.040  1.6489  2.5053 -0.7815
 7795TIP3   OH244799   0.719   4.536   5.835 -0.3800  0.1697  0.5245
 7795TIP3    H144800   0.746   4.449   5.865  0.6575  0.3960  0.2835
 7795TIP3    H244801   0.788   4.563   5.775 -0.4992  1.3135  0.8857
 7796TIP3   OH244802   1.798   4.571  11.320  0.2249 -0.7277 -0.5778
 7796TIP3    H144803   1.857   4.645  11.331 -0.5506 -0.1186 -0.5512
 7796TIP3    H244804   1.712   4.604  11.345 -0.0868 -1.6981 -0.3231
 7797TIP3   OH244805   2.848   5.476   2.029 -0.0003 -0.0158 -0.1998
 7797TIP3    H144806   2.830   5.568   2.048  0.2030  0.0675 -0.4047
 7797TIP3    H244807   2.762   5.434   2.030 -0.0692  0.1292  0.1347
 7798TIP3   OH244808   2.669   3.470  13.271 -1.3099 -0.1134  0.0948
 7798TIP3    H144809   2.574   3.457  13.269 -1.2009 -0.8013 -0.9840
 7798TIP3    H244810   2.694   3.448  13.361 -2.1368 -0.2116  0.3087
 7799TIP3   OH244811   5.529   6.583   2.019  0.5237  0.0288 -0.1263
 7799TIP3    H144812   5.537   6.676   2.042  0.9978 -0.4243  1.6729
 7799TIP3    H244813   5.614   6.546   2.043  0.9496 -0.5697 -2.4362
 7800TIP3   OH244814   6.032   0.720   5.420 -0.2823  0.9854  0.6957
 7800TIP3    H144815   6.121   0.723   5.454  0.1270  1.4759 -0.3889
 7800TIP3    H244816   5.994   0.803   5.446 -0.4174  0.7873  1.1357
 7801TIP3   OH244817   5.955   4.830  12.567 -0.5119 -0.6508  0.0068
 7801TIP3    H144818   5.969   4.850  12.660  1.0575 -2.3414  0.1749
 7801TIP3    H244819   5.863   4.806  12.561 -1.1511  1.5400  0.7188
 7802TIP3   OH244820   3.353   3.267  11.445 -0.0775  0.5163 -1.0301
 7802TIP3    H144821   3.307   3.198  11.492 -1.1459  1.0746 -1.2556
 7802TIP3    H244822   3.446   3.249  11.461 -0.4033  0.0944  0.4129
 7803TIP3   OH244823   3.568   3.753   4.124  0.2424  0.1310 -0.1106
 7803TIP3    H144824   3.587   3.785   4.035 -1.6989 -0.9483 -0.9410
 7803TIP3    H244825   3.635   3.687   4.140  0.3959  0.0866 -0.9032
 7804TIP3   OH244826   1.607   1.930  14.500 -0.1861  0.1461 -0.6421
 7804TIP3    H144827   1.598   1.894  14.412 -2.2755  0.2210 -0.4697
 7804TIP3    H244828   1.569   2.017  14.494  1.4805  0.9215 -0.1342
 7805TIP3   OH244829   5.122   3.718  12.604 -0.6960 -0.1007 -0.1676
 7805TIP3    H144830   5.119   3.799  12.552  0.4266  0.4448  0.5906
 7805TIP3    H244831   5.202   3.674  12.575 -0.1327  0.1425  0.9847
 7806TIP3   OH244832   5.042   3.667  16.055  0.2900  0.4208  0.4102
 7806TIP3    H144833   5.057   3.650  16.148  0.2793 -0.3770  0.2617
 7806TIP3    H244834   5.115   3.724  16.030  2.5191 -2.5580 -0.0433
 7807TIP3   OH244835   6.128   3.047   3.216  0.4625 -0.4135 -0.1087
 7807TIP3    H144836   6.125   3.031   3.310 -0.7452 -1.1194 -0.2525
 7807TIP3    H244837   6.168   3.133   3.207  0.5663 -0.3349  1.0561
 7808TIP3   OH244838   1.070   0.150   3.321  0.1053 -0.0537 -0.3689
 7808TIP3    H144839   1.162   0.158   3.346 -0.2333 -1.0841  1.2470
 7808TIP3    H244840   1.049   0.235   3.282  1.3570  0.6893  0.5211
 7809TIP3   OH244841   0.318   0.838  13.030  0.9624  0.4478  0.3918
 7809TIP3    H144842   0.365   0.917  13.058 -0.6217  2.7878 -3.1730
 7809TIP3    H244843   0.241   0.871  12.985 -0.8096 -3.2358  0.5376
 7810TIP3   OH244844   0.522   4.346  16.377 -0.1506  0.0634  0.2344
 7810TIP3    H144845   0.463   4.373  16.307  1.1871  0.4330 -0.7670
 7810TIP3    H244846   0.580   4.282  16.337  0.1052 -0.3345  1.2155
 7811TIP3   OH244847   6.315   2.846  12.095  0.2471  0.0527 -0.0186
 7811TIP3    H144848   6.252   2.871  12.162  0.3292 -0.4621  0.2494
 7811TIP3    H244849   6.278   2.881  12.014  0.1681  0.7058  0.2945
 7812TIP3   OH244850   3.529   4.155  15.528 -0.0981  0.2250 -0.3589
 7812TIP3    H144851   3.476   4.113  15.595  3.5561 -2.3237  1.0934
 7812TIP3    H244852   3.541   4.087  15.461  2.6929  0.1058  0.1895
 7813TIP3   OH244853   3.730   4.965  12.195 -0.6173  0.1976 -0.1812
 7813TIP3    H144854   3.788   4.893  12.173  0.6329  1.3212 -0.6662
 7813TIP3    H244855   3.738   5.025  12.121 -0.2821  1.6503  1.0053
 7814TIP3   OH244856   1.571   2.855  16.054 -0.2661  0.7921  0.0898
 7814TIP3    H144857   1.553   2.947  16.037  0.1689  1.1198  1.3112
 7814TIP3    H244858   1.524   2.836  16.135  0.7119  0.3080  0.5596
 7815TIP3   OH244859   0.642   0.620   0.924  0.2781  0.5049 -0.1948
 7815TIP3    H144860   0.647   0.543   0.980  0.4076  0.1457 -0.6970
 7815TIP3    H244861   0.589   0.683   0.974  1.4830  0.6809  0.8879
 7816TIP3   OH244862   3.234   4.646  17.110  0.6993 -0.8853  0.0556
 7816TIP3    H144863   3.272   4.652  17.022  1.8578 -3.7281  0.3234
 7816TIP3    H244864   3.208   4.736  17.130  3.3119  0.3937 -1.8997
 7817TIP3   OH244865   6.610   1.774  13.494 -0.8031  0.1237  0.1313
 7817TIP3    H144866   6.556   1.765  13.572  0.1553 -0.2720  0.7571
 7817TIP3    H244867   6.596   1.693  13.445 -0.9119  0.0980  0.2050
 7818TIP3   OH244868   5.770   0.582   2.687 -0.1373 -0.0442 -0.3717
 7818TIP3    H144869   5.692   0.638   2.684 -0.5469 -0.5864 -0.1565
 7818TIP3    H244870   5.832   0.622   2.627 -0.7798  0.1180 -0.9292
 7819TIP3   OH244871   3.701   6.090   0.533  0.3052 -0.8229  0.0100
 7819TIP3    H144872   3.645   6.018   0.505  0.3550 -1.2219  0.9089
 7819TIP3    H244873   3.749   6.055   0.609 -0.2156  0.4006  0.9198
 7820TIP3   OH244874   2.412   2.509   4.092  0.1052  0.5276 -0.2119
 7820TIP3    H144875   2.399   2.601   4.115  0.8081  0.3138  1.1089
 7820TIP3    H244876   2.387   2.461   4.171 -1.5925 -0.5032 -1.3572
 7821TIP3   OH244877   1.264   3.595   6.773 -0.2672 -0.2242  0.2702
 7821TIP3    H144878   1.343   3.544   6.794 -0.3551 -0.9989 -1.2619
 7821TIP3    H244879   1.287   3.685   6.796  0.9840 -0.4833  0.0529
 7822TIP3   OH244880   5.125   1.861   3.207  0.0211  0.5782 -0.0713
 7822TIP3    H144881   5.158   1.877   3.296 -0.9645  0.6438  0.2861
 7822TIP3    H244882   5.040   1.819   3.220 -0.0616  0.4517 -0.9875
 7823TIP3   OH244883   5.708   1.311   5.868  0.1797  0.4490 -0.0762
 7823TIP3    H144884   5.740   1.388   5.821  1.6975  0.0729  0.2949
 7823TIP3    H244885   5.706   1.338   5.960  0.9551 -0.0185  0.0847
 7824TIP3   OH244886   0.572   1.971   2.905  0.0617  0.1058 -0.3659
 7824TIP3    H144887   0.663   1.950   2.926  0.1723  2.1230  1.3181
 7824TIP3    H244888   0.578   2.026   2.827  0.4887  2.2858  1.1700
 7825TIP3   OH244889   2.000   0.049   3.045 -0.0777  0.3137  0.0309
 7825TIP3    H144890   1.933   0.062   2.977 -1.0513  1.7232  1.2153
 7825TIP3    H244891   2.059   0.124   3.035 -0.1753  0.4794  0.6605
 7826TIP3   OH244892   6.047   1.870   5.308  0.1319  0.1515  0.5411
 7826TIP3    H144893   6.059   1.901   5.218 -0.7882 -0.5839  0.1601
 7826TIP3    H244894   6.030   1.776   5.300 -0.2962  0.1423  1.4520
 7827TIP3   OH244895   0.928   2.372  16.909  0.2492  0.3377 -0.0563
 7827TIP3    H144896   0.897   2.297  16.858 -0.6420  0.2493  0.5994
 7827TIP3    H244897   0.928   2.445  16.847 -0.0125  0.0468 -0.4013
 7828TIP3   OH244898   3.296   2.335  14.329 -0.0880  0.7933  0.0809
 7828TIP3    H144899   3.376   2.338  14.277  0.1697 -1.5821  0.3153
 7828TIP3    H244900   3.306   2.259  14.386 -1.1361  2.3420  2.3987
 7829TIP3   OH244901   3.314   5.128   0.589 -0.1278 -0.2893  0.3132
 7829TIP3    H144902   3.374   5.059   0.615  0.8147 -0.0318 -1.1071
 7829TIP3    H244903   3.359   5.173   0.517 -1.5111  0.6410  0.0086
 7830TIP3   OH244904   5.946   5.977  16.569  0.0789  0.0925  0.2012
 7830TIP3    H144905   5.948   5.979  16.473 -0.8385  0.5189  0.1817
 7830TIP3    H244906   5.969   6.066  16.595 -2.5676  0.8033  0.2913
 7831TIP3   OH244907   5.198   3.804   4.965 -0.0311  0.6993 -0.0919
 7831TIP3    H144908   5.228   3.742   5.032 -0.6001 -0.2897 -0.7293
 7831TIP3    H244909   5.106   3.820   4.986 -0.4445 -0.2622 -1.0981
 7832TIP3   OH244910   6.256   3.752   0.066  0.4770  0.3097 -0.1957
 7832TIP3    H144911   6.206   3.822   0.108  0.8466  0.0496  0.6948
 7832TIP3    H244912   6.305   3.795  -0.003 -0.9731  0.5745 -1.0761
 7833TIP3   OH244913   1.321   0.927   0.494 -0.1981 -0.1247 -0.0884
 7833TIP3    H144914   1.370   0.985   0.553  0.5218  0.4213 -1.1993
 7833TIP3    H244915   1.378   0.851   0.483 -0.4362 -0.3316  0.0853
 7834TIP3   OH244916   0.019   4.750  11.004 -0.4205  0.0269  0.1016
 7834TIP3    H144917   0.009   4.660  11.035 -1.6896  0.8972  2.2789
 7834TIP3    H244918  -0.052   4.761  10.940 -0.3184 -0.4904 -0.1038
 7835TIP3   OH244919   5.850   3.332   0.805  0.5629  0.8525 -0.9270
 7835TIP3    H144920   5.800   3.268   0.754 -0.6042  0.4631  0.6687
 7835TIP3    H244921   5.913   3.368   0.742 -1.0333  0.6213 -2.7384
 7836TIP3   OH244922   6.062   6.587   2.658 -0.7257  0.0690 -0.7607
 7836TIP3    H144923   6.039   6.677   2.681 -0.0800 -0.5345  2.4218
 7836TIP3    H244924   6.133   6.596   2.595 -1.4656  1.7688 -1.3919
 7837TIP3   OH244925   6.566   1.449   3.872  0.1771  0.3655 -0.2378
 7837TIP3    H144926   6.655   1.472   3.901  0.6166 -0.2438 -1.0651
 7837TIP3    H244927   6.531   1.531   3.837  0.3206  0.6720  0.3333
 7838TIP3   OH244928   3.031   0.936  16.693  0.3904  0.4109 -0.2080
 7838TIP3    H144929   3.014   1.030  16.705 -0.3217  0.1756  0.6424
 7838TIP3    H244930   2.981   0.912  16.615 -0.4824  0.4504  0.3406
 7839TIP3   OH244931   5.103   6.360   5.985 -0.0704  0.5342  0.2540
 7839TIP3    H144932   5.082   6.274   6.020 -0.6827  0.6170  0.0915
 7839TIP3    H244933   5.112   6.347   5.891 -2.0426  0.9920 -0.0251
 7840TIP3   OH244934   1.314   5.682   5.144  0.3161  0.4879 -0.2608
 7840TIP3    H144935   1.312   5.608   5.205  0.0700 -0.2668 -1.1697
 7840TIP3    H244936   1.394   5.730   5.168  0.3912  0.0254  0.4471
 7841TIP3   OH244937   1.013   4.463  14.213  0.0074  0.3328  0.0533
 7841TIP3    H144938   1.022   4.386  14.270 -2.7716 -0.4116 -0.3979
 7841TIP3    H244939   1.090   4.516  14.231  1.2351 -1.8584  1.4820
 7842TIP3   OH244940   6.410   2.992   2.983 -0.0048  0.0513 -0.0339
 7842TIP3    H144941   6.350   2.947   3.043  1.6805 -1.4239  0.5972
 7842TIP3    H244942   6.495   2.987   3.027  0.6705  1.6858 -1.1337
 7843TIP3   OH244943   3.419   6.260  14.484 -0.4187  0.2895 -0.3024
 7843TIP3    H144944   3.358   6.188  14.499 -0.9147  0.5791 -0.8897
 7843TIP3    H244945   3.505   6.225  14.509 -0.8733 -0.0079  0.8441
 7844TIP3   OH244946   3.428   3.294  11.742 -0.0025 -0.0305 -0.2605
 7844TIP3    H144947   3.332   3.297  11.737 -0.0697  0.2503  1.0240
 7844TIP3    H244948   3.455   3.385  11.755  0.3159 -0.3058  1.1238
 7845TIP3   OH244949   0.665   2.354  17.218  0.4085  0.1994  0.3408
 7845TIP3    H144950   0.649   2.273  17.171  0.3084  0.8043 -0.6860
 7845TIP3    H244951   0.750   2.342  17.259 -0.3123 -1.0384  1.5495
 7846TIP3   OH244952   2.242   2.345   1.381  0.0432 -0.3469  0.0543
 7846TIP3    H144953   2.294   2.345   1.462  1.5554 -0.0604 -0.9094
 7846TIP3    H244954   2.299   2.385   1.316 -1.2046 -0.5004 -1.1483
 7847TIP3   OH244955   2.698   2.146  13.798  0.2792 -0.0258  0.2873
 7847TIP3    H144956   2.774   2.200  13.821 -0.0833  0.3701  0.5719
 7847TIP3    H244957   2.701   2.072  13.859  1.1599 -0.6915 -0.5450
 7848TIP3   OH244958   3.953   3.061  15.731  0.1497  0.7131  0.5007
 7848TIP3    H144959   3.913   3.001  15.669  0.7289  0.2252  0.5886
 7848TIP3    H244960   3.995   3.004  15.796  2.9274  1.1541 -0.8284
 7849TIP3   OH244961   3.383   4.736   2.121 -0.4082  0.4749 -0.4303
 7849TIP3    H144962   3.462   4.790   2.125 -0.2498  0.1880  0.4216
 7849TIP3    H244963   3.416   4.646   2.123 -0.8124  0.3501  1.5287
 7850TIP3   OH244964   0.135   6.596  13.697  0.1816  0.6139 -0.1085
 7850TIP3    H144965   0.057   6.547  13.671  0.1364  0.3343  0.5395
 7850TIP3    H244966   0.207   6.551  13.654  0.2974 -0.9046  1.6092
 7851TIP3   OH244967   4.520   2.896  11.401  0.5264 -0.3170 -0.0554
 7851TIP3    H144968   4.592   2.863  11.454 -0.4994 -1.9735  0.3376
 7851TIP3    H244969   4.553   2.892  11.311  1.0323 -0.7436  0.1499
 7852TIP3   OH244970   1.930   6.297  10.953 -0.0914 -0.4665 -0.1330
 7852TIP3    H144971   1.893   6.375  10.911 -2.0872 -0.9610  0.6718
 7852TIP3    H244972   1.997   6.332  11.012 -1.0553  0.6685  0.3185
 7853TIP3   OH244973   3.351   3.910  14.467 -0.0743 -0.0563  0.4016
 7853TIP3    H144974   3.283   3.916  14.533 -0.0532 -0.7220  0.4797
 7853TIP3    H244975   3.433   3.911  14.516  0.1116  3.9473  0.1585
 7854TIP3   OH244976   5.654   3.755   5.303 -0.0850  0.4421 -0.4068
 7854TIP3    H144977   5.580   3.772   5.245 -1.6892 -0.1483  1.4263
 7854TIP3    H244978   5.646   3.662   5.325  0.3129  0.7443  1.0352
 7855TIP3   OH244979   1.448   3.037   4.528  0.0527  0.1818  0.3888
 7855TIP3    H144980   1.423   3.095   4.456  1.7623 -0.8383 -1.0617
 7855TIP3    H244981   1.365   3.011   4.568 -0.8887  1.1269 -0.9276
 7856TIP3   OH244982   4.413   4.733   4.801 -0.2021  0.0662  0.1533
 7856TIP3    H144983   4.388   4.660   4.745  1.3979  0.5126 -1.1942
 7856TIP3    H244984   4.331   4.780   4.817 -0.6991 -0.1123 -1.7676
 7857TIP3   OH244985   1.190   5.684   0.474  0.3341 -0.0340  0.0176
 7857TIP3    H144986   1.103   5.669   0.513 -0.1718  1.6888 -0.3986
 7857TIP3    H244987   1.246   5.617   0.514 -0.9053 -0.3554  1.2677
 7858TIP3   OH244988   2.473   4.834   4.859  0.4126 -1.0353  0.0120
 7858TIP3    H144989   2.436   4.767   4.801  2.3288 -2.2252  0.1074
 7858TIP3    H244990   2.494   4.907   4.801  0.9022 -1.6242 -0.5655
 7859TIP3   OH244991   3.430   0.068  16.091  0.6586  0.1568  0.8686
 7859TIP3    H144992   3.402   0.131  16.025  0.0758 -2.0325 -1.0229
 7859TIP3    H244993   3.350   0.047  16.140  0.7023  0.2955  1.0016
 7860TIP3   OH244994   1.216   4.909   2.111 -0.9990  0.0404 -0.3092
 7860TIP3    H144995   1.222   4.953   2.195 -0.6775  2.4949 -1.5763
 7860TIP3    H244996   1.224   4.816   2.132 -2.2581  0.5129  2.4837
 7861TIP3   OH244997   5.601   5.694  15.312  0.1776 -0.2494 -0.7384
 7861TIP3    H144998   5.643   5.776  15.338  0.4257 -0.1907 -1.3285
 7861TIP3    H244999   5.507   5.714  15.313  0.2938  0.4469 -2.2446
 7862TIP3   OH245000   0.413   2.403   4.319  0.2982 -0.0973  0.4763
 7862TIP3    H145001   0.331   2.371   4.281  0.8974 -0.9484 -0.1535
 7862TIP3    H245002   0.449   2.327   4.364  0.6001  0.3533  0.9944
 7863TIP3   OH245003   2.049   4.736   0.330 -0.6630 -0.3629 -0.3520
 7863TIP3    H145004   2.038   4.749   0.425 -1.5708 -1.6874 -0.2677
 7863TIP3    H245005   2.092   4.651   0.323  2.4512  1.1778 -1.0155
 7864TIP3   OH245006   3.804   4.902   0.766 -0.3074  0.1724 -0.2554
 7864TIP3    H145007   3.870   4.878   0.700 -0.3811  1.5131 -0.8271
 7864TIP3    H245008   3.769   4.818   0.796  1.3277 -0.5396 -0.2869
 7865TIP3   OH245009   3.812   2.219  13.698  0.8450  0.1471  0.2139
 7865TIP3    H145010   3.872   2.292  13.711  0.0890  1.1418 -1.6597
 7865TIP3    H245011   3.819   2.199  13.604 -0.0184 -1.2502  0.4285
 7866TIP3   OH245012   5.403   1.252  13.890  0.0901 -0.1206  0.5800
 7866TIP3    H145013   5.471   1.241  13.956 -1.0796  0.8672  1.9609
 7866TIP3    H245014   5.346   1.320  13.925 -1.2777 -0.5118 -0.8445
 7867TIP3   OH245015   3.476   4.893   5.454  0.7194 -0.3102  0.0951
 7867TIP3    H145016   3.517   4.865   5.536  0.1069  1.0737  0.9006
 7867TIP3    H245017   3.495   4.986   5.448 -0.4940 -0.0951 -0.5941
 7868TIP3   OH245018   6.778   4.998  14.139 -0.0936 -0.3610  0.4490
 7868TIP3    H145019   6.748   5.089  14.148 -0.5303 -0.5663  1.1147
 7868TIP3    H245020   6.701   4.951  14.108 -0.0223 -0.6007  0.6399
 7869TIP3   OH245021   2.158   5.614   4.175  0.2293 -0.6520  0.1493
 7869TIP3    H145022   2.137   5.527   4.210  1.4538 -1.2619 -0.5690
 7869TIP3    H245023   2.175   5.598   4.082  1.2552  0.2223  0.1787
 7870TIP3   OH245024   0.389   5.983   2.505  0.3053 -0.5214  0.5103
 7870TIP3    H145025   0.444   5.989   2.426  0.6413  2.5666  0.9335
 7870TIP3    H245026   0.321   6.048   2.492 -1.0895 -1.6952  1.7162
 7871TIP3   OH245027   1.309   1.830  13.301 -0.9145 -0.1378 -0.1918
 7871TIP3    H145028   1.231   1.775  13.309 -1.4560  0.4479 -1.3038
 7871TIP3    H245029   1.287   1.893  13.232  0.1983  0.6161  0.1224
 7872TIP3   OH245030   4.141   6.079   4.038 -0.2143 -0.0181  0.3642
 7872TIP3    H145031   4.164   5.990   4.013  0.3056  0.1701  0.1755
 7872TIP3    H245032   4.108   6.119   3.957  2.5330  0.9464 -0.3397
 7873TIP3   OH245033   3.432   4.796  15.638 -0.0797  0.6207  0.1236
 7873TIP3    H145034   3.373   4.797  15.563 -0.4843  0.4497  0.4382
 7873TIP3    H245035   3.520   4.794  15.600 -0.3014 -0.4666 -0.3353
 7874TIP3   OH245036   0.351   4.066  15.249  0.7840  0.2990  0.3725
 7874TIP3    H145037   0.308   4.133  15.196  1.2099 -0.2350 -0.6808
 7874TIP3    H245038   0.428   4.110  15.285  1.4090  0.2302 -0.8241
 7875TIP3   OH245039   3.032   6.463  14.724 -0.3519 -0.3632 -0.4118
 7875TIP3    H145040   2.968   6.392  14.724 -0.2909 -0.4284  0.4604
 7875TIP3    H245041   2.992   6.532  14.671 -0.7821 -0.7196 -0.5552
 7876TIP3   OH245042   3.589   5.134  16.928 -0.0818  0.2972  0.4410
 7876TIP3    H145043   3.660   5.106  16.870  1.3286  0.3119  2.1384
 7876TIP3    H245044   3.539   5.197  16.876  0.7974 -0.1524 -0.9662
 7877TIP3   OH245045   5.100   6.399   5.140  0.4586  0.4081 -0.1070
 7877TIP3    H145046   5.065   6.312   5.120 -0.2682  0.2422  1.7892
 7877TIP3    H245047   5.038   6.460   5.100  2.4389  0.0922 -3.8634
 7878TIP3   OH245048   2.083   0.472   5.468 -0.2892 -0.1592  0.1505
 7878TIP3    H145049   2.129   0.467   5.385  0.1800  0.8366  0.3394
 7878TIP3    H245050   2.063   0.565   5.479 -2.5546 -0.6184 -0.0360
 7879TIP3   OH245051   0.302   6.364  14.561 -0.1428  0.0706  0.0271
 7879TIP3    H145052   0.348   6.374  14.478  0.5192 -0.6806  0.2953
 7879TIP3    H245053   0.369   6.334  14.622 -0.6112  0.6853  0.8525
 7880TIP3   OH245054   2.535   4.096   5.864 -0.2021  0.5148  0.1057
 7880TIP3    H145055   2.576   4.027   5.812 -0.0023  2.1329 -1.9775
 7880TIP3    H245056   2.471   4.051   5.918 -0.5878 -1.2332 -1.7417
 7881TIP3   OH245057   4.864   5.920  14.515 -0.6151  0.1532  0.5314
 7881TIP3    H145058   4.920   5.941  14.439 -2.7777  1.2710 -0.8126
 7881TIP3    H245059   4.777   5.906  14.477 -1.0033 -2.8439  2.4461
 7882TIP3   OH245060   2.982   3.332  15.815  0.5223  0.2016 -0.0563
 7882TIP3    H145061   2.998   3.247  15.774 -0.2724 -0.9179  1.9014
 7882TIP3    H245062   3.061   3.349  15.866  0.3589  0.2624  0.1747
 7883TIP3   OH245063   2.172   4.276   2.271 -0.3922 -0.3219 -0.0928
 7883TIP3    H145064   2.128   4.270   2.356 -0.9902  1.9600 -0.2089
 7883TIP3    H245065   2.104   4.255   2.207 -1.0926  2.1359 -0.2104
 7884TIP3   OH245066   5.345   6.287   4.815  0.0508  0.0843  0.0293
 7884TIP3    H145067   5.385   6.254   4.734 -1.8928 -2.0767 -0.1186
 7884TIP3    H245068   5.251   6.283   4.799 -0.3619 -0.0236  2.2390
 7885TIP3   OH245069   5.235   1.604   4.240 -0.3061  0.1874  0.0341
 7885TIP3    H145070   5.243   1.622   4.146 -1.5866 -0.4995 -0.2075
 7885TIP3    H245071   5.142   1.614   4.259  0.1668  1.9103  1.5707
 7886TIP3   OH245072   3.711   2.027   1.050  0.0544  0.1699 -0.4299
 7886TIP3    H145073   3.743   2.082   1.122  1.0384  0.3973 -1.0278
 7886TIP3    H245074   3.616   2.034   1.055  0.1019 -0.0310  1.0162
 7887TIP3   OH245075   3.704   5.720   1.555  0.2517 -0.2876 -0.3786
 7887TIP3    H145076   3.788   5.688   1.520  0.4729 -0.0050 -0.1079
 7887TIP3    H245077   3.639   5.689   1.492  0.3957 -1.7485  0.1765
 7888TIP3   OH245078   2.350   2.077   1.426  0.2837  0.5547  0.5659
 7888TIP3    H145079   2.401   2.111   1.353  0.4655 -0.9796 -0.0313
 7888TIP3    H245080   2.343   2.151   1.487  2.1930  1.1255  0.1150
 7889TIP3   OH245081   4.461   3.666  12.173  0.1371  0.2673 -0.2243
 7889TIP3    H145082   4.421   3.657  12.259  0.3320 -1.1789 -0.2826
 7889TIP3    H245083   4.516   3.745  12.180 -0.7092  0.7805  0.6238
 7890TIP3   OH245084   0.202   3.871  12.784 -0.2224 -0.0806  0.0095
 7890TIP3    H145085   0.164   3.824  12.859  0.5658  1.4713  1.4239
 7890TIP3    H245086   0.153   3.839  12.709 -1.3725 -1.3349  1.2524
 7891TIP3   OH245087   5.489   1.160   2.258  0.1708  0.0926 -0.7090
 7891TIP3    H145088   5.443   1.233   2.217 -2.3162 -2.2346 -2.2635
 7891TIP3    H245089   5.439   1.143   2.339 -0.0987 -0.7463 -1.0475
 7892TIP3   OH245090   4.916   5.727   4.037 -0.1888 -0.2515  0.4789
 7892TIP3    H145091   4.932   5.730   4.131 -0.7931 -1.7815  0.6475
 7892TIP3    H245092   4.962   5.804   4.002  2.4260 -1.2092  1.6911
 7893TIP3   OH245093   0.516   5.097   0.529 -0.0756 -0.0999 -0.0943
 7893TIP3    H145094   0.553   5.134   0.448 -0.3000 -0.3496 -0.3111
 7893TIP3    H245095   0.467   5.021   0.500  0.4048 -0.5866  0.3540
 7894TIP3   OH245096   2.918   2.344   1.946  0.1441  0.0571 -0.1292
 7894TIP3    H145097   2.920   2.346   2.042  0.1216 -0.1237 -0.1237
 7894TIP3    H245098   2.857   2.414   1.922  1.0671  0.8950 -0.0547
 7895TIP3   OH245099   1.101   2.349  13.616  0.6087 -0.1944  0.2149
 7895TIP3    H145100   1.015   2.310  13.628  1.3963 -2.1626 -0.2185
 7895TIP3    H245101   1.148   2.286  13.561  2.0641  1.2264 -0.2233
 7896TIP3   OH245102   1.154   2.717  11.868 -0.6050 -0.5159  0.1718
 7896TIP3    H145103   1.162   2.662  11.790  0.4013 -0.4271  0.2112
 7896TIP3    H245104   1.161   2.656  11.941 -0.9511 -0.5185  0.2055
 7897TIP3   OH245105   3.265   0.961  10.786  0.2497 -0.2347  0.6444
 7897TIP3    H145106   3.171   0.948  10.792 -0.2211  1.7840 -1.5799
 7897TIP3    H245107   3.301   0.873  10.771 -1.2275 -1.0256  1.6303
 7898TIP3   OH245108   1.315   3.075  16.992 -0.8971 -0.1334  0.3433
 7898TIP3    H145109   1.399   3.114  17.017 -0.2061 -0.7425 -1.0115
 7898TIP3    H245110   1.316   3.075  16.897 -3.3285  1.7348  0.2812
 7899TIP3   OH245111   6.118   4.517   4.669 -0.5780  0.1507 -0.0541
 7899TIP3    H145112   6.147   4.585   4.730  0.3047  0.8153 -1.2169
 7899TIP3    H245113   6.108   4.562   4.585  0.2789 -1.1923 -0.8945
 7900TIP3   OH245114   2.947   5.328  14.772 -0.2230  0.6509  0.6723
 7900TIP3    H145115   3.001   5.359  14.845 -0.0119  0.3339  0.6531
 7900TIP3    H245116   2.904   5.407  14.739 -0.3578  0.7877  1.1699
 7901TIP3   OH245117   6.605   1.210  10.891 -0.0111 -0.1228  0.2547
 7901TIP3    H145118   6.533   1.158  10.855  0.6826 -1.8715  1.3282
 7901TIP3    H245119   6.683   1.157  10.878  0.8913  1.1279  0.4160
 7902TIP3   OH245120   5.839   0.729   0.704  0.5066 -0.1304 -0.1931
 7902TIP3    H145121   5.782   0.658   0.676  3.4417 -2.6171 -0.1374
 7902TIP3    H245122   5.925   0.705   0.670  1.7789  2.9258  0.6830
 7903TIP3   OH245123   0.489   4.674  11.955  0.0357 -0.2915 -0.1410
 7903TIP3    H145124   0.431   4.691  11.881  0.4435  0.3882 -0.3090
 7903TIP3    H245125   0.440   4.705  12.031 -0.8977 -2.1214  0.0427
 7904TIP3   OH245126   5.293   2.201   1.466 -0.6526 -0.7386  0.7429
 7904TIP3    H145127   5.315   2.191   1.559  0.9246  1.3274  0.6156
 7904TIP3    H245128   5.323   2.119   1.426 -1.2492 -1.6027  2.0015
 7905TIP3   OH245129   5.201   4.253   6.041  0.0266  0.0610  0.3045
 7905TIP3    H145130   5.206   4.187   6.110 -0.4192 -0.7296 -0.4203
 7905TIP3    H245131   5.161   4.208   5.967  2.7725  0.2059 -1.3242
 7906TIP3   OH245132   0.118   6.284   2.337  0.3699  0.0091 -0.5677
 7906TIP3    H145133   0.117   6.305   2.244  0.1195  0.1825 -0.5274
 7906TIP3    H245134   0.046   6.336   2.374  1.8038  1.5853  0.0756
 7907TIP3   OH245135   3.304   5.423  15.176 -1.1721 -0.0502 -0.3415
 7907TIP3    H145136   3.343   5.375  15.103 -1.4717  0.2409 -0.6959
 7907TIP3    H245137   3.211   5.427  15.154 -1.0481  1.3037 -0.6675
 7908TIP3   OH245138   5.933   3.892   5.857 -0.8964 -0.1660 -0.1830
 7908TIP3    H145139   5.897   3.803   5.852  0.7337 -0.8515 -0.1866
 7908TIP3    H245140   5.884   3.934   5.927 -1.3120 -1.2619  0.1993
 7909TIP3   OH245141   6.513   3.990  11.717  0.5738 -0.1971  0.2522
 7909TIP3    H145142   6.546   4.014  11.631 -0.0344  1.5126  0.4597
 7909TIP3    H245143   6.489   4.074  11.757 -1.8201 -1.1841  0.9736
 7910TIP3   OH245144   0.043   6.563  11.329  0.0004 -0.1060  0.3469
 7910TIP3    H145145   0.046   6.628  11.398  2.2157  0.2040  0.0079
 7910TIP3    H245146   0.110   6.499  11.353 -1.1039 -1.4576 -0.0990
 7911TIP3   OH245147   5.179   3.875   4.155 -0.1203 -0.3846  0.4819
 7911TIP3    H145148   5.114   3.813   4.121 -2.0926  0.0989  3.1526
 7911TIP3    H245149   5.169   3.869   4.250  4.9008 -1.4362  1.0486
 7912TIP3   OH245150   4.194   5.559   0.450  0.4751  0.2203 -0.2968
 7912TIP3    H145151   4.174   5.523   0.536  0.9875  0.4764 -0.0718
 7912TIP3    H245152   4.176   5.652   0.458 -0.2635  0.1174 -0.7052
 7913TIP3   OH245153   5.871   3.507  12.517  0.0730  0.4041 -0.1270
 7913TIP3    H145154   5.915   3.506  12.601 -0.4677  0.0707  0.1532
 7913TIP3    H245155   5.884   3.419  12.481 -1.5341 -0.1261  0.5710
 7914TIP3   OH245156   4.449   5.511   6.902  0.0223  0.0503 -0.1768
 7914TIP3    H145157   4.470   5.423   6.931 -0.1844  0.2749  0.6855
 7914TIP3    H245158   4.505   5.568   6.955 -0.8190  0.5037  0.2419
 7915TIP3   OH245159   2.078   3.779  15.347 -0.0804 -0.3564  0.4630
 7915TIP3    H145160   2.051   3.782  15.255  0.2974  1.3503  0.3930
 7915TIP3    H245161   2.144   3.710  15.350 -0.7987 -1.0911 -0.3569
 7916TIP3   OH245162   3.591   4.458   2.318 -0.1459 -0.0754  0.1729
 7916TIP3    H145163   3.622   4.371   2.292 -0.3121 -0.2786  0.6576
 7916TIP3    H245164   3.508   4.468   2.272 -0.1216 -0.1672  0.1075
 7917TIP3   OH245165   2.734   6.285   4.438  0.0528 -0.1750 -0.0872
 7917TIP3    H145166   2.816   6.303   4.484 -0.3589  2.2950 -0.2301
 7917TIP3    H245167   2.759   6.279   4.346  0.5892 -3.1532  0.2199
 7918TIP3   OH245168   0.658   5.140   3.423 -0.4835 -0.3018 -0.4798
 7918TIP3    H145169   0.683   5.230   3.405  0.3703 -0.8010 -1.9002
 7918TIP3    H245170   0.736   5.100   3.461 -0.7230 -0.5360 -0.2368
 7919TIP3   OH245171   1.408   4.250   3.987  0.2119  0.2277  0.0608
 7919TIP3    H145172   1.444   4.229   3.900  3.5641  2.3952  0.8268
 7919TIP3    H245173   1.475   4.304   4.028 -2.3336  1.1744  3.1638
 7920TIP3   OH245174   2.000   0.035  16.434  0.1060 -0.1203  0.2327
 7920TIP3    H145175   2.061   0.105  16.410  3.2541 -2.5033  0.9855
 7920TIP3    H245176   2.017  -0.034  16.370 -0.3183 -1.6323  1.7373
 7921TIP3   OH245177   4.454   0.719  12.750  0.4920 -0.4042  1.0447
 7921TIP3    H145178   4.439   0.667  12.829 -0.1544 -2.6132 -0.4965
 7921TIP3    H245179   4.520   0.671  12.701  0.8994  0.9504  0.2209
 7922TIP3   OH245180   2.881   2.695   5.659 -0.0685  0.1411  0.1567
 7922TIP3    H145181   2.882   2.751   5.581 -0.4475  0.0964  0.1208
 7922TIP3    H245182   2.829   2.619   5.634 -0.5644  0.3367  0.5987
 7923TIP3   OH245183   0.700   4.426   3.147 -0.8081 -0.7239 -0.4824
 7923TIP3    H145184   0.621   4.473   3.172  0.2880  1.7877 -1.5073
 7923TIP3    H245185   0.754   4.492   3.103  1.8965 -2.3317  0.2822
 7924TIP3   OH245186   6.684   1.054   3.358  0.9399  0.4556  0.0912
 7924TIP3    H145187   6.682   0.989   3.428  1.3402  0.0746 -0.2512
 7924TIP3    H245188   6.669   1.003   3.278  0.2670  0.9161 -0.0839
 7925TIP3   OH245189   6.750   1.316   5.696 -0.5563 -0.2420 -0.0171
 7925TIP3    H145190   6.743   1.345   5.605 -1.2820 -0.7997 -0.1371
 7925TIP3    H245191   6.740   1.221   5.692 -0.8169 -0.2441  0.6698
 7926TIP3   OH245192   0.624   6.762  13.608  0.6005  0.2610 -0.3730
 7926TIP3    H145193   0.589   6.846  13.578  1.8153  0.3442 -1.6109
 7926TIP3    H245194   0.697   6.786  13.665  0.6148  0.0560 -0.3074
 7927TIP3   OH245195   2.378   3.828  10.843  0.5767 -0.3522 -0.8531
 7927TIP3    H145196   2.393   3.819  10.749  0.9898  0.6619 -0.8910
 7927TIP3    H245197   2.405   3.918  10.863 -0.3690 -0.2641  0.0660
 7928TIP3   OH245198   5.035   5.519  17.024 -0.2183 -0.0250 -0.3550
 7928TIP3    H145199   5.041   5.454  17.094 -1.3879 -0.6735 -0.8404
 7928TIP3    H245200   4.950   5.503  16.983 -0.4992  1.7828 -0.5289
 7929TIP3   OH245201   3.932   1.594  13.862  0.4460 -0.3173 -0.5351
 7929TIP3    H145202   3.995   1.665  13.849  0.4061 -0.3955 -1.1677
 7929TIP3    H245203   3.923   1.587  13.957 -0.5079  1.3738 -0.4850
 7930TIP3   OH245204   4.206   0.572  13.277  0.1658 -0.2015 -0.2448
 7930TIP3    H145205   4.166   0.641  13.330  0.4530  0.9527 -1.5320
 7930TIP3    H245206   4.142   0.554  13.208  0.3801 -0.7728 -0.3006
 7931TIP3   OH245207   0.731   3.371  12.896 -0.6066  0.2424  0.0935
 7931TIP3    H145208   0.653   3.417  12.864 -1.4940 -0.4424  1.2549
 7931TIP3    H245209   0.698   3.307  12.958  0.9877  0.6976  1.4606
 7932TIP3   OH245210   6.036   5.918   3.226  0.4077  0.0361 -0.0738
 7932TIP3    H145211   6.061   5.893   3.137  1.0304  1.6140 -0.3604
 7932TIP3    H245212   5.941   5.927   3.222  0.5511  1.3582 -0.9330
 7933TIP3   OH245213   1.018   1.466   4.535 -0.0112 -0.3646  0.3540
 7933TIP3    H145214   1.001   1.542   4.478  0.7562  0.1637  0.8184
 7933TIP3    H245215   0.964   1.397   4.498  0.1133  0.1019 -0.7526
 7934TIP3   OH245216   2.793   1.203  16.484 -0.0988 -0.0092 -0.3258
 7934TIP3    H145217   2.726   1.210  16.552  2.4060 -0.3750  2.2836
 7934TIP3    H245218   2.837   1.287  16.485  2.4545 -1.2953  1.2967
 7935TIP3   OH245219   2.283   3.755   2.119 -0.5416  0.4221  0.3255
 7935TIP3    H145220   2.264   3.748   2.025 -0.2552  0.3285  0.2737
 7935TIP3    H245221   2.219   3.819   2.152 -0.1545  1.0227 -0.0750
 7936TIP3   OH245222   0.254   5.312   2.784 -0.3043  0.6709 -0.0163
 7936TIP3    H145223   0.287   5.240   2.729 -0.1122 -0.7583  1.8921
 7936TIP3    H245224   0.179   5.346   2.736  0.7473  0.4587 -1.8793
 7937TIP3   OH245225   4.391   6.182  13.906 -0.2380  0.2101  0.3491
 7937TIP3    H145226   4.436   6.134  13.837  0.4763  0.7063  0.4642
 7937TIP3    H245227   4.351   6.257  13.862 -3.5601 -1.8721 -0.2734
 7938TIP3   OH245228   3.262   1.717  15.509 -0.2705 -0.5541  0.9780
 7938TIP3    H145229   3.225   1.632  15.486  0.7047 -0.4089 -1.2535
 7938TIP3    H245230   3.324   1.736  15.439  3.0898 -0.1937  3.8675
 7939TIP3   OH245231   0.539   0.135  14.172 -0.3674  0.3343 -0.2455
 7939TIP3    H145232   0.559   0.227  14.155  0.4008  0.3988  0.9919
 7939TIP3    H245233   0.446   0.127  14.152 -1.1603  2.0905  2.5252
 7940TIP3   OH245234   0.089   4.059  11.740 -0.2265  0.7605  0.2713
 7940TIP3    H145235   0.129   4.003  11.673  0.4527  1.2971  0.2168
 7940TIP3    H245236   0.129   4.030  11.822  0.8344  1.7584  0.1362
 7941TIP3   OH245237   0.251   6.324   3.320 -0.2569 -0.3975 -0.8487
 7941TIP3    H145238   0.190   6.364   3.258 -1.8041 -0.8687  0.3385
 7941TIP3    H245239   0.240   6.375   3.401  1.2557 -0.2021 -0.7624
 7942TIP3   OH245240   3.729   6.001  11.266 -0.3192  0.1316  0.0472
 7942TIP3    H145241   3.679   6.008  11.185  0.8498  0.7471 -0.6367
 7942TIP3    H245242   3.668   6.029  11.335 -0.6533  1.7283 -0.8698
 7943TIP3   OH245243   2.439   5.299  16.256  0.1880 -0.3500 -0.5612
 7943TIP3    H145244   2.526   5.260  16.267  0.2039 -0.3861 -0.8217
 7943TIP3    H245245   2.384   5.254  16.320 -0.0485 -1.5587 -1.6074
 7944TIP3   OH245246   3.642   4.554   2.599 -0.2328 -0.0771  0.4776
 7944TIP3    H145247   3.560   4.603   2.604  0.8393  1.7422  0.6070
 7944TIP3    H245248   3.640   4.511   2.514 -0.7018  1.0919 -0.1066
 7945TIP3   OH245249   4.394   6.405  15.432  0.0090 -0.0415 -0.0785
 7945TIP3    H145250   4.351   6.413  15.347  1.8336 -0.9787 -1.1290
 7945TIP3    H245251   4.372   6.317  15.462  1.6793 -0.7528 -0.9086
 7946TIP3   OH245252   6.284   3.059  14.227 -0.3996  0.2229  0.3866
 7946TIP3    H145253   6.375   3.078  14.250 -0.1795 -0.1864 -0.1113
 7946TIP3    H245254   6.243   3.145  14.217 -0.6183  0.3969  2.7087
 7947TIP3   OH245255   2.360   3.025   4.480 -0.1585  0.3495  0.0304
 7947TIP3    H145256   2.364   3.102   4.423  0.0252  0.1579 -0.2165
 7947TIP3    H245257   2.272   3.027   4.516 -0.6040 -0.0696 -1.0194
 7948TIP3   OH245258   5.692   3.062   5.607  0.1488  0.3990 -0.2611
 7948TIP3    H145259   5.685   2.976   5.567 -0.3323  0.8591 -1.1697
 7948TIP3    H245260   5.784   3.070   5.631  0.6935  0.5730 -2.3037
 7949TIP3   OH245261   1.070   4.397  13.228  0.1766  0.4879  0.6205
 7949TIP3    H145262   1.062   4.347  13.310 -1.4481 -0.8442 -0.3409
 7949TIP3    H245263   1.008   4.357  13.168  1.2248  1.5670 -1.2506
 7950TIP3   OH245264   1.194   3.121  12.017  0.5055 -0.1037  0.1676
 7950TIP3    H145265   1.159   3.189  11.959  0.4141 -1.7700 -1.8072
 7950TIP3    H245266   1.122   3.059  12.028  1.6236 -1.6545 -0.9150
 7951TIP3   OH245267   3.077   2.907  11.862 -0.3969  0.4327 -0.6274
 7951TIP3    H145268   2.994   2.872  11.895 -0.0943 -0.2028 -0.5391
 7951TIP3    H245269   3.098   2.979  11.922  0.9668 -1.7460  1.5958
 7952TIP3   OH245270   0.297   4.269   4.502  0.4957 -0.5069  0.0262
 7952TIP3    H145271   0.303   4.175   4.487 -1.8984 -0.7195  0.2543
 7952TIP3    H245272   0.250   4.303   4.426  0.7358  0.3987  0.2781
 7953TIP3   OH245273   4.869   1.779   2.340  0.3539 -0.0707  0.5598
 7953TIP3    H145274   4.807   1.806   2.272 -0.7341 -0.5688  1.3562
 7953TIP3    H245275   4.841   1.691   2.364  1.1209 -0.1350  1.2311
 7954TIP3   OH245276   3.154   0.140  12.621  0.1745 -0.0574  0.6322
 7954TIP3    H145277   3.140   0.046  12.611  0.4644 -0.0568  0.1791
 7954TIP3    H245278   3.070   0.174  12.652 -0.2539 -0.3143 -0.2309
 7955TIP3   OH245279   0.862   5.471   1.516  0.4927  0.2132 -0.0402
 7955TIP3    H145280   0.868   5.516   1.600 -0.3576  1.1186 -0.4502
 7955TIP3    H245281   0.852   5.541   1.452  2.6295 -0.3880 -1.0699
 7956TIP3   OH245282   5.671   4.286   1.623  0.1433 -0.2317  0.1318
 7956TIP3    H145283   5.578   4.271   1.610 -0.1552  2.2714 -1.0020
 7956TIP3    H245284   5.714   4.219   1.568 -1.0506  1.1295 -2.5691
 7957TIP3   OH245285   6.695   3.667   1.093 -0.5073  0.6695 -0.3600
 7957TIP3    H145286   6.788   3.683   1.077 -0.2705  0.3753  0.7230
 7957TIP3    H245287   6.685   3.572   1.080 -0.4128  0.5063  0.6946
 7958TIP3   OH245288   5.310   5.046   2.566 -0.4599  0.1237 -0.1548
 7958TIP3    H145289   5.285   5.022   2.477  0.5882 -0.3569 -0.3252
 7958TIP3    H245290   5.405   5.052   2.564 -0.4080 -0.0874  0.9768
 7959TIP3   OH245291   4.132   5.916   1.737 -0.4600  0.2801 -0.6303
 7959TIP3    H145292   4.206   5.860   1.711  0.9097  1.1227  1.3260
 7959TIP3    H245293   4.069   5.855   1.776 -0.2747 -0.2796 -1.1912
 7960TIP3   OH245294   0.715   0.121   2.527 -0.4087  0.3682  0.0017
 7960TIP3    H145295   0.715   0.052   2.594  1.5089 -0.0700 -0.4220
 7960TIP3    H245296   0.683   0.198   2.572  0.8454  0.0725  1.4472
 7961TIP3   OH245297   1.854   4.627   4.860 -0.4567 -0.1381 -0.1887
 7961TIP3    H145298   1.879   4.719   4.875  0.6542 -0.5889  0.8274
 7961TIP3    H245299   1.874   4.612   4.768 -1.3375  0.8439 -0.5571
 7962TIP3   OH245300   0.877   0.122  15.374 -0.1837 -0.1184  0.2511
 7962TIP3    H145301   0.822   0.058  15.419  0.0197  1.1552  2.3606
 7962TIP3    H245302   0.814   0.182  15.333 -0.3802 -0.0870  0.5940
 7963TIP3   OH245303   2.984   5.924   1.266 -0.5244  0.2243  0.4882
 7963TIP3    H145304   2.964   5.984   1.195 -0.7930 -0.4781 -0.0383
 7963TIP3    H245305   3.067   5.956   1.302 -0.2346  0.4081 -0.3383
 7964TIP3   OH245306   1.926   5.426   4.718  0.1330  0.1730 -0.0515
 7964TIP3    H145307   1.926   5.522   4.709 -0.0669  0.1534 -0.2833
 7964TIP3    H245308   1.905   5.411   4.810  0.0867  0.3519 -0.0316
 7965TIP3   OH245309   0.412   1.156   1.285  0.1392 -0.2313  0.0579
 7965TIP3    H145310   0.442   1.071   1.255 -0.4601 -0.3538 -0.2111
 7965TIP3    H245311   0.371   1.196   1.208  0.1968  0.1975  0.2433
 7966TIP3   OH245312   4.285   6.664   1.337 -0.4265 -0.3773  0.4845
 7966TIP3    H145313   4.322   6.750   1.357 -0.6119 -0.0097 -0.7102
 7966TIP3    H245314   4.243   6.637   1.418  2.5821 -0.8835  1.9487
 7967TIP3   OH245315   1.152   5.290  11.913  0.1131  0.0218  0.3692
 7967TIP3    H145316   1.182   5.367  11.865 -1.7265  1.7510  1.8682
 7967TIP3    H245317   1.223   5.269  11.973  0.6040  0.5839 -0.0199
 7968TIP3   OH245318   4.952   2.066   3.022 -0.3213 -0.0100 -0.2519
 7968TIP3    H145319   4.994   1.987   3.057 -0.4877  1.0407  2.4895
 7968TIP3    H245320   4.861   2.060   3.052  0.2415  2.3654  2.1309
 7969TIP3   OH245321   6.372   1.399  12.892 -0.2067 -0.3762 -0.1368
 7969TIP3    H145322   6.421   1.362  12.819 -0.5462  0.3176 -0.7157
 7969TIP3    H245323   6.328   1.324  12.932  1.4342 -1.0290  0.4787
 7970TIP3   OH245324   1.911   6.646  12.147 -0.4115  0.7246 -0.0651
 7970TIP3    H145325   1.836   6.588  12.141  0.9632 -0.9935 -1.1756
 7970TIP3    H245326   1.902   6.706  12.074  1.1510 -1.8045 -2.4422
 7971TIP3   OH245327   2.647   1.028  11.259 -0.1986  0.7280  0.9867
 7971TIP3    H145328   2.578   1.066  11.204  0.8654  0.9383 -0.2359
 7971TIP3    H245329   2.719   1.091  11.254  0.2064  0.3546  1.9863
 7972TIP3   OH245330   5.721   1.747   4.092 -1.0385 -0.4014  0.1610
 7972TIP3    H145331   5.688   1.807   4.025 -0.3411  0.3604  0.4895
 7972TIP3    H245332   5.644   1.724   4.144 -0.9118  2.2703  1.6333
 7973TIP3   OH245333   3.536   4.933   5.719 -0.3202  0.1241 -0.1649
 7973TIP3    H145334   3.526   5.028   5.723 -1.8178  0.0090 -0.7280
 7973TIP3    H245335   3.506   4.902   5.805  2.1608  0.2859  0.8056
 7974TIP3   OH245336   2.864   3.514   4.372  0.1579 -0.3912 -0.5671
 7974TIP3    H145337   2.811   3.579   4.326 -0.1787 -0.7198 -0.6451
 7974TIP3    H245338   2.842   3.525   4.464  1.3992  0.7842 -0.4019
 7975TIP3   OH245339   1.120   5.543   4.869 -0.7254 -0.0793  0.2774
 7975TIP3    H145340   1.054   5.477   4.852 -0.5382 -0.3869  0.7435
 7975TIP3    H245341   1.203   5.497   4.861 -0.4916  0.6951 -2.0714
 7976TIP3   OH245342   0.197   6.144  14.906  0.1433  0.3803 -0.2435
 7976TIP3    H145343   0.199   6.199  14.985 -0.0473  0.7764 -0.5162
 7976TIP3    H245344   0.156   6.062  14.935 -2.3594  1.4910 -0.5392
 7977TIP3   OH245345   3.479   0.210  14.061 -0.1168 -0.2030  0.1372
 7977TIP3    H145346   3.396   0.220  14.013 -0.3760 -0.8849  0.4324
 7977TIP3    H245347   3.470   0.126  14.106 -0.2712  0.8394  2.1322
 7978TIP3   OH245348   1.074   2.014   5.392  0.0117  0.0211 -0.3870
 7978TIP3    H145349   1.140   1.955   5.355  0.0553 -1.3073  1.7164
 7978TIP3    H245350   1.008   1.955   5.428 -0.1129  1.2562  1.4594
 7979TIP3   OH245351   3.280   6.109  13.468  0.2612 -0.0123 -0.0425
 7979TIP3    H145352   3.256   6.115  13.375 -0.6792 -0.4838  0.1701
 7979TIP3    H245353   3.375   6.098  13.467  0.3714  0.9291 -0.9228
 7980TIP3   OH245354   2.614   5.683   3.007  0.9893 -1.1912 -0.4419
 7980TIP3    H145355   2.549   5.645   2.947  1.5267 -1.6887 -0.7084
 7980TIP3    H245356   2.610   5.627   3.085 -1.8273  1.1600  1.2296
 7981TIP3   OH245357   3.012   1.636   5.844  0.8065  0.1503  0.3240
 7981TIP3    H145358   3.013   1.603   5.754 -1.3658 -0.3476  0.4698
 7981TIP3    H245359   3.083   1.701   5.846  1.5494 -0.5613 -1.4482
 7982TIP3   OH245360   3.646   0.255  12.616 -0.1239  0.5279  0.2320
 7982TIP3    H145361   3.733   0.292  12.625  0.7837 -1.3048 -0.7275
 7982TIP3    H245362   3.623   0.223  12.703  0.7345 -0.2087  0.1887
 7983TIP3   OH245363   3.990   0.812  12.756 -0.5266  0.6529 -0.1977
 7983TIP3    H145364   4.065   0.768  12.716 -0.3103 -0.0523  0.9653
 7983TIP3    H245365   3.915   0.783  12.703 -0.6786 -2.7918  1.7497
 7984TIP3   OH245366   4.678   1.474  12.709 -0.1650  0.2188  0.6205
 7984TIP3    H145367   4.761   1.432  12.732 -0.9158 -0.9601  1.1593
 7984TIP3    H245368   4.660   1.532  12.783  0.5873  1.1183  0.1245
 7985TIP3   OH245369   6.560   4.454  13.968 -0.1073  0.5568 -0.3210
 7985TIP3    H145370   6.649   4.423  13.953  0.2313  1.3586  0.0035
 7985TIP3    H245371   6.526   4.474  13.881 -0.2973 -0.6195 -0.5255
 7986TIP3   OH245372   4.500   5.356  12.485 -0.4818 -0.0691 -0.1640
 7986TIP3    H145373   4.407   5.374  12.475 -0.4317  0.0539 -0.3985
 7986TIP3    H245374   4.537   5.369  12.398 -0.7932 -3.3139 -0.8651
 7987TIP3   OH245375   4.626   5.675   4.945 -0.1923  0.1097  0.3781
 7987TIP3    H145376   4.564   5.612   4.908  0.3669 -0.6828  0.7610
 7987TIP3    H245377   4.700   5.621   4.973 -0.8276  0.6196  3.1755
 7988TIP3   OH245378   6.028   4.476   1.210 -0.9296  0.2104  0.1499
 7988TIP3    H145379   6.001   4.507   1.124  2.6276 -0.8747 -1.4193
 7988TIP3    H245380   6.118   4.508   1.220 -0.9649 -0.4631  3.0681
 7989TIP3   OH245381   6.612   6.786   1.433 -0.8908  0.6081  0.3697
 7989TIP3    H145382   6.669   6.728   1.483  1.2668  0.1645 -2.4751
 7989TIP3    H245383   6.641   6.874   1.456 -2.1155  0.5060  2.3625
 7990TIP3   OH245384   1.914   2.574   0.570  0.2179 -0.0358 -0.1084
 7990TIP3    H145385   1.990   2.615   0.611 -0.8719  2.5755 -0.5593
 7990TIP3    H245386   1.852   2.563   0.643  0.4448 -0.7032 -0.0194
 7991TIP3   OH245387   6.321   6.427  16.903  0.4349  0.2612 -0.5273
 7991TIP3    H145388   6.395   6.478  16.934  1.4126 -2.5247  1.9847
 7991TIP3    H245389   6.359   6.366  16.839  0.5208 -1.6898  1.3277
 7992TIP3   OH245390   6.109   1.335  11.394 -0.0732 -0.1511 -0.7862
 7992TIP3    H145391   6.032   1.288  11.363  0.3853 -0.0064 -2.1836
 7992TIP3    H245392   6.178   1.269  11.398  0.2353  0.1254 -1.4793
 7993TIP3   OH245393   0.192   6.321  15.119  0.7197  0.3682 -0.3470
 7993TIP3    H145394   0.114   6.344  15.169  0.0144  0.7066 -1.5910
 7993TIP3    H245395   0.252   6.395  15.133 -0.1217  1.2547 -1.3499
 7994TIP3   OH245396   4.797   1.535   1.821  0.1169 -0.9312  0.2565
 7994TIP3    H145397   4.727   1.478   1.853  0.6334 -0.5313  2.1204
 7994TIP3    H245398   4.750   1.604   1.772 -0.7540 -1.0179  0.9495
 7995TIP3   OH245399   4.686   0.165  11.222 -0.1778  0.2084  1.1879
 7995TIP3    H145400   4.667   0.236  11.283  2.9463  1.4284  0.8249
 7995TIP3    H245401   4.751   0.111  11.267  0.4284 -0.1821 -0.1305
 7996TIP3   OH245402   4.648   0.541   4.317 -0.0654  0.4473  0.0625
 7996TIP3    H145403   4.617   0.631   4.331  2.1230  1.0565  1.2086
 7996TIP3    H245404   4.709   0.525   4.389 -0.3045 -1.9174 -0.2193
 7997TIP3   OH245405   6.610   4.200   4.543 -0.5924  0.4032  0.2766
 7997TIP3    H145406   6.655   4.202   4.628  0.5024  2.2661 -0.3219
 7997TIP3    H245407   6.633   4.115   4.506 -2.9190 -1.4160  2.7913
 7998TIP3   OH245408   5.944   2.447   2.616 -0.2461  0.0545  0.3784
 7998TIP3    H145409   5.850   2.466   2.610 -0.0608  0.6792 -0.7885
 7998TIP3    H245410   5.949   2.367   2.669 -1.5187 -0.6464 -0.5151
 7999TIP3   OH245411   2.839   3.789   1.397 -0.1761 -0.1464 -0.2039
 7999TIP3    H145412   2.911   3.738   1.359 -1.0172 -1.0064 -0.6769
 7999TIP3    H245413   2.762   3.734   1.384 -1.0097  1.0028 -0.2027
 8000TIP3   OH245414   2.012   6.094   5.392  0.0378 -0.1452  0.2327
 8000TIP3    H145415   1.974   6.041   5.322 -2.8211  1.8010  0.2503
 8000TIP3    H245416   1.973   6.180   5.382  2.0572  1.0783  2.2673
 8001TIP3   OH245417   4.358   3.884   2.031 -0.7774 -0.1130 -0.1007
 8001TIP3    H145418   4.451   3.875   2.052 -0.7824  1.7615  0.8569
 8001TIP3    H245419   4.339   3.809   1.974  1.9248  0.7934 -2.3628
 8002TIP3   OH245420   3.161   2.865   0.096  0.4065 -0.0972 -0.1746
 8002TIP3    H145421   3.216   2.788   0.082  2.3353  1.6414 -2.7359
 8002TIP3    H245422   3.140   2.863   0.190  1.2934 -3.1237  0.0103
 8003TIP3   OH245423   0.373   4.666  11.466 -0.0414 -0.3593 -0.9464
 8003TIP3    H145424   0.409   4.585  11.502 -0.1299  1.2469  3.0426
 8003TIP3    H245425   0.294   4.639  11.420  0.1684 -2.5641 -0.0628
 8004TIP3   OH245426   1.795   4.719   2.119 -0.0626  0.1474 -0.1065
 8004TIP3    H145427   1.851   4.688   2.048 -0.6527 -0.5715 -0.2641
 8004TIP3    H245428   1.776   4.640   2.171 -2.1961  0.0826 -0.9416
 8005TIP3   OH245429   6.192   4.540   5.074  0.2994  0.3064  0.0588
 8005TIP3    H145430   6.203   4.612   5.011 -2.3719  2.2649  1.7126
 8005TIP3    H245431   6.272   4.542   5.127  0.4094  1.8751 -0.1322
 8006TIP3   OH245432   5.523   5.954   0.484  0.0865  0.0274 -0.0058
 8006TIP3    H145433   5.500   6.006   0.561  0.9630  0.9127 -0.3388
 8006TIP3    H245434   5.441   5.911   0.459 -0.9218  2.1567 -0.4195
 8007TIP3   OH245435   4.167   2.400  11.634  0.1110 -0.4106 -0.0287
 8007TIP3    H145436   4.090   2.363  11.678  1.0168 -1.3939  0.7689
 8007TIP3    H245437   4.233   2.404  11.702  0.9132 -0.0182 -0.8252
 8008TIP3   OH245438   6.621   1.875   0.610  0.1170  0.0818 -0.4562
 8008TIP3    H145439   6.553   1.942   0.618  0.7125  0.6821 -0.3277
 8008TIP3    H245440   6.677   1.888   0.687  0.7203 -0.0057 -0.8737
 8009TIP3   OH245441   1.902   2.963  16.040  0.6166 -0.0211  0.2832
 8009TIP3    H145442   1.985   2.933  16.079 -0.2373  0.2934  2.4389
 8009TIP3    H245443   1.839   2.895  16.064  0.6339 -1.3008 -3.1190
 8010TIP3   OH245444   2.931   3.920  13.287  0.1517 -0.4204 -0.5774
 8010TIP3    H145445   2.842   3.886  13.278 -0.4545  1.1211 -0.4947
 8010TIP3    H245446   2.920   4.005  13.329  1.7118 -0.4490 -0.1074
 8011TIP3   OH245447   6.203   5.721  14.160  0.0854 -0.4609 -0.4445
 8011TIP3    H145448   6.137   5.767  14.212 -0.2668 -0.7180 -0.6596
 8011TIP3    H245449   6.260   5.790  14.126  0.6406 -0.3329  0.7229
 8012TIP3   OH245450   3.633   5.246  11.749 -0.5998  0.4167  0.4283
 8012TIP3    H145451   3.544   5.250  11.784 -0.6808 -0.8606  0.3555
 8012TIP3    H245452   3.628   5.184  11.676  0.5725 -0.4624  1.0895
 8013TIP3   OH245453   5.851   2.863  15.800 -0.3095  0.1967 -0.4463
 8013TIP3    H145454   5.774   2.855  15.743  2.0938 -2.1190 -3.5144
 8013TIP3    H245455   5.890   2.947  15.777 -0.1074 -0.1200 -1.2804
 8014TIP3   OH245456   0.597   1.777  16.270 -0.2179  0.2179 -0.2327
 8014TIP3    H145457   0.613   1.759  16.178 -0.0089  0.6398 -0.2807
 8014TIP3    H245458   0.511   1.738  16.288 -1.2124  1.9619 -1.1203
 8015TIP3   OH245459   6.656   5.381   0.906 -0.4342 -0.4004  0.0852
 8015TIP3    H145460   6.646   5.310   0.970 -1.5211 -0.9440 -0.6859
 8015TIP3    H245461   6.750   5.386   0.891 -0.0850  0.1919  2.2499
 8016TIP3   OH245462   4.912   2.299  13.452 -0.5550 -0.1474  0.0555
 8016TIP3    H145463   5.007   2.306  13.444 -0.4853 -0.3821  0.6349
 8016TIP3    H245464   4.892   2.344  13.534 -0.9166 -0.3295  0.0646
 8017TIP3   OH245465   0.895   5.831  14.453  0.0105 -0.5740  0.4385
 8017TIP3    H145466   0.963   5.788  14.402  0.8781  0.1939  0.9124
 8017TIP3    H245467   0.908   5.800  14.542  0.9032  0.9268  0.8625
 8018TIP3   OH245468   1.868   3.691  16.177  0.1356 -0.3286 -0.5297
 8018TIP3    H145469   1.851   3.623  16.112 -1.3925 -0.0949 -0.3993
 8018TIP3    H245470   1.782   3.708  16.217  0.9004  0.0984  0.9866
 8019TIP3   OH245471   5.673   1.291   3.622  0.7319  0.4515 -0.1543
 8019TIP3    H145472   5.763   1.268   3.598  0.0967 -3.1941  0.7058
 8019TIP3    H245473   5.672   1.288   3.718 -0.5150 -0.3639 -0.1869
 8020TIP3   OH245474   0.850   2.180  15.692 -0.4836 -0.1651 -0.2962
 8020TIP3    H145475   0.945   2.185  15.707 -0.7994 -0.8726  2.0630
 8020TIP3    H245476   0.839   2.212  15.602  1.9765  0.0118 -0.5780
 8021TIP3   OH245477   5.184   5.281   3.589 -0.4466  0.1447  0.4100
 8021TIP3    H145478   5.211   5.249   3.675  0.2967 -0.9404 -0.2111
 8021TIP3    H245479   5.093   5.309   3.602 -1.6143 -3.4639  0.7049
 8022TIP3   OH245480   2.341   1.363  11.715 -0.0675  0.4164  0.4535
 8022TIP3    H145481   2.282   1.367  11.639 -1.3682  0.7896  1.4671
 8022TIP3    H245482   2.391   1.445  11.710  3.1889 -1.6063 -2.5975
 8023TIP3   OH245483   1.179   3.775  13.138  0.6224 -0.6264  1.0225
 8023TIP3    H145484   1.136   3.698  13.175 -0.6973  0.6999  2.2855
 8023TIP3    H245485   1.107   3.830  13.107  1.4416  1.1423  2.1969
 8024TIP3   OH245486   4.577   2.127   6.050  0.6565  0.3377  0.6177
 8024TIP3    H145487   4.606   2.147   6.139 -0.8375 -1.1282  1.4656
 8024TIP3    H245488   4.488   2.161   6.045  0.4050 -0.3961 -0.0130
 8025TIP3   OH245489   6.482   0.228  10.651 -0.3510 -0.4940  0.3637
 8025TIP3    H145490   6.441   0.260  10.571  0.3470  0.1199  0.2380
 8025TIP3    H245491   6.410   0.192  10.703 -0.9655  0.1190 -0.0551
 8026TIP3   OH245492   3.239   5.575   6.252 -0.2983 -0.1751 -0.3956
 8026TIP3    H145493   3.162   5.524   6.224  1.0840 -2.1681 -0.6991
 8026TIP3    H245494   3.264   5.535   6.336  0.6366  0.1913 -0.4988
 8027TIP3   OH245495   0.143   5.069  13.655 -0.2029 -0.3618 -0.0878
 8027TIP3    H145496   0.119   5.047  13.564 -0.3743  0.9508 -0.3662
 8027TIP3    H245497   0.096   5.004  13.708 -1.8902  0.2422 -0.8105
 8028TIP3   OH245498   0.652   4.097   0.432 -0.2131  0.0670  0.6542
 8028TIP3    H145499   0.676   4.189   0.429 -0.2005  0.0603  0.5600
 8028TIP3    H245500   0.564   4.094   0.395  0.6794 -0.2707 -1.4857
 8029TIP3   OH245501   5.700   5.587   1.358 -0.2181 -0.5893  0.0638
 8029TIP3    H145502   5.668   5.595   1.448  2.4128 -1.1391  1.1067
 8029TIP3    H245503   5.658   5.508   1.324  0.1510 -1.4022  1.4486
 8030TIP3   OH245504   4.772   4.644  11.650 -0.5746 -0.0400  0.1747
 8030TIP3    H145505   4.764   4.722  11.595 -2.1681  0.8533  1.6326
 8030TIP3    H245506   4.800   4.677  11.735 -1.3910 -1.0563  0.8496
 8031TIP3   OH245507   6.408   1.978  17.141  0.0126  0.1881  0.6055
 8031TIP3    H145508   6.440   1.991  17.230  1.3543  0.0504  0.1607
 8031TIP3    H245509   6.418   1.884  17.126  0.6010  0.3389  0.0197
 8032TIP3   OH245510   6.429   0.237  15.362  0.7420 -0.0676 -0.3970
 8032TIP3    H145511   6.493   0.216  15.430  0.1638  0.0189  0.1722
 8032TIP3    H245512   6.347   0.250  15.409  0.3378 -0.0134 -1.1109
 8033TIP3   OH245513   5.788   1.350  10.607  0.1802 -0.3685 -0.2967
 8033TIP3    H145514   5.792   1.375  10.514  0.4578 -2.7944 -0.9621
 8033TIP3    H245515   5.870   1.383  10.644 -0.6399  2.0220 -0.5203
 8034TIP3   OH245516   0.120   2.199   5.674  0.0989  0.4905  0.3688
 8034TIP3    H145517   0.052   2.188   5.740 -0.7338  0.2695 -0.5103
 8034TIP3    H245518   0.199   2.222   5.724  0.0461 -1.8865  1.6398
 8035TIP3   OH245519   2.851   2.844  11.538 -0.6121 -0.0342 -0.1003
 8035TIP3    H145520   2.790   2.845  11.611 -0.0976  0.3252  0.3212
 8035TIP3    H245521   2.812   2.903  11.473 -0.5000  0.5255  0.3424
 8036TIP3   OH245522   6.587   3.939  13.791 -0.2824  0.1384  0.4711
 8036TIP3    H145523   6.674   3.961  13.823 -1.2484  2.2433  1.8149
 8036TIP3    H245524   6.577   3.991  13.711 -1.3549  2.2599  1.9123
 8037TIP3   OH245525   1.009   3.326  11.939  0.2606 -0.4654 -0.0269
 8037TIP3    H145526   1.011   3.404  11.884 -0.1106 -1.2200 -1.1190
 8037TIP3    H245527   0.918   3.296  11.933  0.2895 -0.7196  0.7712
 8038TIP3   OH245528   0.218   0.602   3.121 -0.3684 -0.0382 -0.0070
 8038TIP3    H145529   0.291   0.544   3.097  0.8087  1.3968  0.0402
 8038TIP3    H245530   0.259   0.673   3.169 -1.7086  1.2099 -0.6830
 8039TIP3   OH245531   3.886   3.657  12.640 -0.1104  0.3588  0.4061
 8039TIP3    H145532   3.863   3.678  12.549  0.5219  0.7907  0.3496
 8039TIP3    H245533   3.855   3.732  12.691  1.7111  1.2371  0.2596
 8040TIP3   OH245534   6.568   4.413  13.674 -0.2063  0.2623 -0.5589
 8040TIP3    H145535   6.554   4.493  13.623 -0.3604 -0.7373 -2.0889
 8040TIP3    H245536   6.521   4.345  13.627  0.4561 -0.8728  0.3848
 8041TIP3   OH245537   6.636   1.515  17.226 -0.0038  0.2771  0.0773
 8041TIP3    H145538   6.711   1.563  17.191 -0.4773  0.3313 -0.9009
 8041TIP3    H245539   6.669   1.472  17.304  1.0446  0.3051 -0.3411
 8042TIP3   OH245540   1.431   0.900  13.666 -0.1512  0.4297 -0.1454
 8042TIP3    H145541   1.360   0.932  13.720 -1.0379 -0.7216 -0.6156
 8042TIP3    H245542   1.402   0.914  13.576  1.0400  1.7402 -0.3490
 8043TIP3   OH245543   6.510   3.387  13.009 -0.2650 -0.0377 -0.0549
 8043TIP3    H145544   6.519   3.482  13.003 -2.7236  0.2903  0.6444
 8043TIP3    H245545   6.560   3.353  12.935  0.0130  1.8408 -0.7611
 8044TIP3   OH245546   5.982   2.597  14.409 -0.2239  0.0788 -0.5079
 8044TIP3    H145547   5.968   2.691  14.417 -0.8627 -0.0798  0.3359
 8044TIP3    H245548   6.055   2.588  14.348 -1.3574  1.0632 -2.0546
 8045TIP3   OH245549   5.704   0.479  11.031  0.9777 -0.0394  0.2961
 8045TIP3    H145550   5.777   0.454  10.975  0.5945  2.1751 -1.2645
 8045TIP3    H245551   5.658   0.547  10.981 -1.1555 -0.2034  1.9807
 8046TIP3   OH245552   2.640   5.799  13.034  0.7359 -0.5568 -0.1628
 8046TIP3    H145553   2.566   5.796  12.973  2.1694 -0.8081 -1.9223
 8046TIP3    H245554   2.713   5.761  12.986  2.1864  0.2569  1.3324
 8047TIP3   OH245555   0.344   5.801   5.389  0.5628 -0.1890  0.2211
 8047TIP3    H145556   0.413   5.745   5.353  1.4629  0.8626  0.2757
 8047TIP3    H245557   0.317   5.856   5.316 -1.5789 -1.8695 -0.3170
 8048TIP3   OH245558   4.153   2.070   4.526 -0.1136 -0.2308  0.3374
 8048TIP3    H145559   4.191   2.054   4.612 -1.0969  0.9888  1.0129
 8048TIP3    H245560   4.201   2.144   4.491  0.1300 -0.5782 -0.0681
 8049TIP3   OH245561   5.343   3.694  14.685  0.7251 -0.2817  0.1588
 8049TIP3    H145562   5.257   3.721  14.653  0.6077 -1.8313 -0.9182
 8049TIP3    H245563   5.339   3.598  14.683  2.1598 -0.3664  0.9820
 8050TIP3   OH245564   3.979   4.676   2.862 -0.0447  0.2672  0.6444
 8050TIP3    H145565   4.011   4.766   2.857 -2.1189  1.0101 -0.0965
 8050TIP3    H245566   4.055   4.624   2.886  0.6417  2.5473  3.6185
 8051TIP3   OH245567   3.009   6.655   4.650 -0.0382 -0.9510  1.1960
 8051TIP3    H145568   2.983   6.745   4.630  1.5770 -0.6226  0.5047
 8051TIP3    H245569   3.012   6.652   4.746 -0.6275 -0.4258  1.2358
 8052TIP3   OH245570   3.509   1.872  12.995 -0.4545  0.3146  0.5822
 8052TIP3    H145571   3.434   1.927  13.019 -0.6282 -0.1850  1.1902
 8052TIP3    H245572   3.542   1.911  12.914 -0.3918  1.4981  1.1670
 8053TIP3   OH245573   2.721   1.920  16.929  0.1870  0.5686 -0.8152
 8053TIP3    H145574   2.795   1.894  16.875  1.6437 -0.2677  1.5044
 8053TIP3    H245575   2.749   2.002  16.970 -1.0063  1.3422 -1.5344
 8054TIP3   OH245576   0.541   5.970   6.003  0.3197 -0.1409 -0.2296
 8054TIP3    H145577   0.503   5.950   6.089  0.1651 -2.4857 -0.8107
 8054TIP3    H245578   0.581   6.057   6.014 -0.5830  0.0397  1.9039
 8055TIP3   OH245579   6.187   4.561   0.102 -0.0348 -0.2384  0.1195
 8055TIP3    H145580   6.183   4.654   0.124  0.5904 -0.2164  0.1359
 8055TIP3    H245581   6.224   4.558   0.014  0.3929 -0.4988  0.3053
 8056TIP3   OH245582   3.937   3.200  15.473 -0.0692 -0.3556 -0.7743
 8056TIP3    H145583   3.983   3.145  15.536 -3.8491 -2.0393  0.6910
 8056TIP3    H245584   3.959   3.289  15.498 -0.9862 -0.9954  2.6630
 8057TIP3   OH245585   2.153   5.297   2.097  0.3923 -0.5812  0.6895
 8057TIP3    H145586   2.137   5.320   2.189 -1.2981  2.0933 -0.2075
 8057TIP3    H245587   2.085   5.234   2.076 -1.2644  1.2546  0.4118
 8058TIP3   OH245588   6.278   6.284   0.088  0.0289 -0.1019 -0.1679
 8058TIP3    H145589   6.236   6.361   0.050 -0.6164 -0.4795 -0.2172
 8058TIP3    H245590   6.249   6.212   0.033 -0.4646 -0.5765  0.7144
 8059TIP3   OH245591   4.893   2.941  12.459  0.0691  0.1656 -0.2750
 8059TIP3    H145592   4.975   2.893  12.450 -0.9919 -1.4821 -1.4449
 8059TIP3    H245593   4.834   2.880  12.505 -1.1105  0.5437 -1.2549
 8060TIP3   OH245594   4.473   3.401   6.183  0.2706  0.2061 -0.2709
 8060TIP3    H145595   4.493   3.330   6.244  1.5206  0.9183  0.1692
 8060TIP3    H245596   4.473   3.480   6.237 -1.4110  0.5183 -0.7074
 8061TIP3   OH245597   4.594   0.097   5.564  0.5874  0.2872 -0.0148
 8061TIP3    H145598   4.590   0.024   5.502 -0.3614  1.2331 -1.0916
 8061TIP3    H245599   4.682   0.093   5.600  0.4933 -1.5001  0.0754
 8062TIP3   OH245600   4.360   0.052  10.474 -0.1018  0.3340  0.4948
 8062TIP3    H145601   4.330   0.019  10.389  0.7118  0.7392  0.0410
 8062TIP3    H245602   4.376  -0.027  10.526  3.3997 -0.1511 -1.1213
 8063TIP3   OH245603   1.041   5.685  14.153  0.2729  0.0741 -0.2389
 8063TIP3    H145604   0.999   5.755  14.104  0.7424  1.9980  2.0006
 8063TIP3    H245605   0.977   5.614  14.154 -0.2955  0.5352 -2.3492
 8064TIP3   OH245606   0.643   3.783  12.940 -0.2227 -0.1779 -0.2851
 8064TIP3    H145607   0.609   3.696  12.917  0.3383 -0.4889  0.0408
 8064TIP3    H245608   0.567   3.830  12.975 -0.3700 -0.8027  0.2616
 8065TIP3   OH245609   1.324   6.431  15.245 -0.1088 -0.7328  0.2066
 8065TIP3    H145610   1.295   6.340  15.231  1.7702 -1.3570  0.2776
 8065TIP3    H245611   1.384   6.426  15.319  0.2363  0.5373  0.0167
 8066TIP3   OH245612   2.489   4.415   4.393 -0.5257  0.0770  0.2125
 8066TIP3    H145613   2.542   4.494   4.400  0.3768 -0.4084 -0.9081
 8066TIP3    H245614   2.399   4.446   4.390 -0.2194  1.0084  0.4975
 8067TIP3   OH245615   1.214   6.272  14.341 -0.7496  0.0836 -0.2746
 8067TIP3    H145616   1.277   6.213  14.301 -1.3301  0.2269 -1.4338
 8067TIP3    H245617   1.131   6.251  14.298 -1.7333 -0.9109  2.0666
 8068TIP3   OH245618   5.537   6.118   1.713 -0.0925  0.3966 -0.1926
 8068TIP3    H145619   5.627   6.122   1.745  0.3988  0.4617 -1.5499
 8068TIP3    H245620   5.496   6.198   1.746  0.2678  0.2451  0.6394
 8069TIP3   OH245621   3.848   2.290   3.528 -0.5018 -0.0264  1.0156
 8069TIP3    H145622   3.763   2.289   3.483  1.2919  0.3871 -2.5436
 8069TIP3    H245623   3.862   2.381   3.552  0.6694  0.6217 -1.9563
 8070TIP3   OH245624   3.039   5.330   5.355  0.2650  0.4345  0.8874
 8070TIP3    H145625   3.092   5.254   5.334 -2.4733 -1.2154 -0.2995
 8070TIP3    H245626   3.008   5.362   5.270 -1.0178  1.0564  1.5694
 8071TIP3   OH245627   4.926   0.704   0.097  0.0266  0.2288  0.5712
 8071TIP3    H145628   4.992   0.771   0.078  1.9358 -1.5856  0.5641
 8071TIP3    H245629   4.862   0.712   0.027  1.9035 -0.0152 -1.2114
 8072TIP3   OH245630   5.224   3.187   4.747 -0.6951  0.1304 -0.3427
 8072TIP3    H145631   5.283   3.162   4.677  0.0583 -0.9981  0.6712
 8072TIP3    H245632   5.145   3.135   4.732  0.4341 -2.0590  1.0933
 8073TIP3   OH245633   1.255   2.273   0.712 -0.1160 -0.3820 -0.1907
 8073TIP3    H145634   1.315   2.338   0.748  2.0133 -2.3670 -0.0421
 8073TIP3    H245635   1.209   2.237   0.788  0.1615 -0.4576 -0.0576
 8074TIP3   OH245636   2.851   1.009  14.447 -0.1849  0.3648 -0.5797
 8074TIP3    H145637   2.799   1.060  14.386 -0.7994  0.3458 -0.0769
 8074TIP3    H245638   2.826   0.918  14.430  0.2571  0.2952 -0.8674
 8075TIP3   OH245639   6.538   3.135  10.868  0.8374  0.3986 -0.4459
 8075TIP3    H145640   6.560   3.228  10.866  1.1309  0.4498  2.8248
 8075TIP3    H245641   6.460   3.129  10.923  0.4158 -1.2439 -1.1761
 8076TIP3   OH245642   3.068   2.612   4.981 -0.0987 -0.0986 -0.2177
 8076TIP3    H145643   2.977   2.582   4.988 -0.1668  0.4409  1.3969
 8076TIP3    H245644   3.071   2.659   4.897 -1.9463  1.9526  0.8102
 8077TIP3   OH245645   1.145   6.651   1.201 -0.3747  0.1420 -0.1993
 8077TIP3    H145646   1.216   6.676   1.141 -0.4197  0.7027 -0.0196
 8077TIP3    H245647   1.106   6.574   1.160  0.8454 -0.6390  0.1016
 8078TIP3   OH245648   6.666   6.442  16.507  0.2637  0.3622  0.3882
 8078TIP3    H145649   6.715   6.520  16.534  2.5680 -1.2523  1.1215
 8078TIP3    H245650   6.678   6.381  16.581 -1.8758 -0.5069  0.0336
 8079TIP3   OH245651   5.836   2.213  16.777  0.6233 -0.1704 -0.0675
 8079TIP3    H145652   5.837   2.233  16.871  0.0263 -0.4057 -0.0120
 8079TIP3    H245653   5.744   2.196  16.757  1.0581 -2.3938 -0.2164
 8080TIP3   OH245654   5.883   2.069   6.222  0.3764  0.8996 -0.6710
 8080TIP3    H145655   5.978   2.056   6.225 -0.0846 -2.8458  0.7588
 8080TIP3    H245656   5.862   2.107   6.307  0.3036 -1.0933  0.2390
 8081TIP3   OH245657   5.183   2.325  16.917 -0.3657  0.1328  0.2285
 8081TIP3    H145658   5.200   2.232  16.906  0.6247  0.4862 -1.4700
 8081TIP3    H245659   5.191   2.362  16.829 -1.1901  1.7559  0.7968
 8082TIP3   OH245660   6.742   3.043   4.081 -0.1301  0.0509  0.3277
 8082TIP3    H145661   6.647   3.036   4.089 -0.1749  1.0002  0.6851
 8082TIP3    H245662   6.775   2.955   4.100 -1.1735 -1.3433 -3.7973
 8083TIP3   OH245663   3.971   4.697   4.908  0.0809  0.1783 -0.1377
 8083TIP3    H145664   4.017   4.619   4.878 -1.7316 -0.7437 -0.6233
 8083TIP3    H245665   4.032   4.769   4.893  1.4132 -1.0261 -0.5707
 8084TIP3   OH245666   4.223   5.219  16.394 -0.3566  0.1818 -0.2886
 8084TIP3    H145667   4.141   5.176  16.370  0.1816  0.0758 -1.9710
 8084TIP3    H245668   4.272   5.225  16.312  1.3662  0.1636  0.7209
 8085TIP3   OH245669   6.749   5.647  10.422 -0.1622  0.3462 -0.0281
 8085TIP3    H145670   6.674   5.603  10.462  0.4364  0.2474  1.0042
 8085TIP3    H245671   6.722   5.739  10.417 -0.9027  0.0894 -0.9824
 8086TIP3   OH245672   2.861   4.350   0.040 -0.0220 -0.0576 -0.4162
 8086TIP3    H145673   2.881   4.315   0.127 -0.8719  1.7099  0.4979
 8086TIP3    H245674   2.816   4.278  -0.005 -2.1346 -0.0502  1.5998
 8087TIP3   OH245675   6.696   2.039  14.504  0.3010  0.0284  0.2580
 8087TIP3    H145676   6.613   1.999  14.478  0.9655 -0.8797 -0.5367
 8087TIP3    H245677   6.689   2.051  14.598 -0.3253 -1.0223  0.3595
 8088TIP3   OH245678   0.522   6.340   4.754  0.9994 -0.1226  0.1619
 8088TIP3    H145679   0.519   6.436   4.759  3.0672 -0.0518  0.4265
 8088TIP3    H245680   0.431   6.313   4.767  0.5709  1.7485  1.3227
 8089TIP3   OH245681   4.198   4.284  16.987 -0.0013  0.3333  0.7339
 8089TIP3    H145682   4.201   4.309  17.080  3.5012  1.6790  0.3011
 8089TIP3    H245683   4.122   4.331  16.952  0.6138  2.4506  2.1762
 8090TIP3   OH245684   5.976   3.879  12.962  0.1116  0.6336 -0.0269
 8090TIP3    H145685   5.967   3.829  12.881  1.2429 -0.7133  0.6618
 8090TIP3    H245686   5.899   3.855  13.013  1.2795 -1.4217  0.8241
 8091TIP3   OH245687   5.335   6.100   4.077  0.3794  0.2972 -0.1710
 8091TIP3    H145688   5.313   6.065   3.991  0.8091 -1.6033  0.4548
 8091TIP3    H245689   5.272   6.058   4.137  0.9739  0.5100  0.6130
 8092TIP3   OH245690   4.167   5.801  12.928 -0.0003 -0.3758  0.6225
 8092TIP3    H145691   4.145   5.710  12.909  0.4487 -0.9814  2.8607
 8092TIP3    H245692   4.164   5.844  12.843  0.7475 -2.6785 -0.6241
 8093TIP3   OH245693   4.983   3.341  11.600  0.1079  0.0749  0.0582
 8093TIP3    H145694   4.989   3.301  11.514  1.1694 -1.4750  0.8235
 8093TIP3    H245695   4.892   3.328  11.627  0.0822 -0.5292 -0.3219
 8094TIP3   OH245696   1.815   3.646   2.138 -0.0510 -0.2514  0.2653
 8094TIP3    H145697   1.749   3.706   2.172  0.2219 -0.0535  0.4519
 8094TIP3    H245698   1.845   3.597   2.214 -0.4102 -0.7634  0.0799
 8095TIP3   OH245699   3.796   0.553   2.785 -0.3591  0.4125 -0.0491
 8095TIP3    H145700   3.799   0.606   2.705 -0.1996 -1.1550 -1.1197
 8095TIP3    H245701   3.797   0.463   2.753 -0.7628 -0.2354  1.7253
 8096TIP3   OH245702   5.764   0.558  12.011 -0.1504  0.8537  0.0011
 8096TIP3    H145703   5.751   0.599  12.097  1.5462 -1.4486  1.4400
 8096TIP3    H245704   5.678   0.523  11.988 -0.1066 -0.7345  2.0278
 8097TIP3   OH245705   3.535   3.801   4.435  0.4333  0.1008 -0.3545
 8097TIP3    H145706   3.527   3.838   4.347  1.4948  0.3617 -0.3500
 8097TIP3    H245707   3.627   3.775   4.441  0.0122 -1.3105  0.1255
 8098TIP3   OH245708   5.798   5.839   0.897 -0.0061 -0.6214  0.7021
 8098TIP3    H145709   5.889   5.818   0.878  0.1433 -0.2312  0.9811
 8098TIP3    H245710   5.751   5.816   0.817  0.1534 -1.9838  0.9892
 8099TIP3   OH245711   4.625   2.065  16.640 -0.1569  0.3389  0.2828
 8099TIP3    H145712   4.646   2.017  16.721  0.7452  2.3631  1.2870
 8099TIP3    H245713   4.709   2.077  16.597 -0.3821  0.9546  0.0126
 8100TIP3   OH245714   2.885   0.935   0.580  0.5538  0.1971  0.0610
 8100TIP3    H145715   2.915   0.856   0.624 -1.1174 -0.0779  0.7508
 8100TIP3    H245716   2.956   0.958   0.520  0.6499 -2.3896 -0.8898
 8101TIP3   OH245717   0.513   4.737  13.858 -0.6985  0.4379 -0.1172
 8101TIP3    H145718   0.461   4.662  13.887  0.5198 -0.8040 -1.1091
 8101TIP3    H245719   0.601   4.719  13.890 -0.5485  1.8417  0.3037
 8102TIP3   OH245720   6.011   5.801  13.783 -0.0452 -0.5284  0.0827
 8102TIP3    H145721   6.047   5.859  13.715 -0.9808  0.7401  0.6685
 8102TIP3    H245722   6.042   5.714  13.757 -0.2120 -0.0415 -1.8669
 8103TIP3   OH245723   5.046   4.597  12.393  0.3533  0.2127  0.1515
 8103TIP3    H145724   5.058   4.666  12.459  0.2460  1.1570 -0.7918
 8103TIP3    H245725   4.952   4.581  12.392  0.3157  0.4333  0.0077
 8104TIP3   OH245726   5.050   4.003   3.124 -0.1685 -0.4900 -0.6141
 8104TIP3    H145727   5.011   3.916   3.126  0.0413 -0.5806 -0.4963
 8104TIP3    H245728   5.009   4.046   3.049  0.9568 -1.2586 -1.6827
 8105TIP3   OH245729   4.807   1.946  10.953  0.1769  0.2726 -0.8230
 8105TIP3    H145730   4.804   1.866  10.901 -1.7124  0.9696 -1.8527
 8105TIP3    H245731   4.807   1.916  11.044 -4.2850 -0.9511 -1.0898
 8106TIP3   OH245732   4.916   2.421   2.356 -0.1505  0.4533  0.1195
 8106TIP3    H145733   4.853   2.352   2.377 -1.7500  1.7409 -0.4304
 8106TIP3    H245734   4.878   2.501   2.391  1.0616  1.3007 -0.4472
 8107TIP3   OH245735   4.204   1.679   4.005 -0.5318  0.0357 -0.0256
 8107TIP3    H145736   4.192   1.612   4.072  0.8489 -0.2907 -0.1003
 8107TIP3    H245737   4.195   1.633   3.922  0.1280 -0.0040 -0.0757
 8108TIP3   OH245738   0.160   3.386   6.315 -0.0660 -0.2649 -0.0344
 8108TIP3    H145739   0.149   3.381   6.410 -1.7897  0.1356 -0.1958
 8108TIP3    H245740   0.237   3.442   6.303  1.1434 -1.6255  1.1373
 8109TIP3   OH245741   4.507   3.830  11.120 -0.0341 -0.1601  0.1936
 8109TIP3    H145742   4.492   3.825  11.026  1.0390  0.9739 -0.0316
 8109TIP3    H245743   4.497   3.922  11.142 -4.1076 -0.8705  1.8454
 8110TIP3   OH245744   6.167   4.324   6.350 -0.1480  0.2179  0.1618
 8110TIP3    H145745   6.165   4.231   6.374 -1.2101 -0.2181 -1.5769
 8110TIP3    H245746   6.248   4.357   6.389  1.4073 -1.9748 -1.1439
 8111TIP3   OH245747   2.676   5.287  16.012 -0.1778  0.3312  0.7750
 8111TIP3    H145748   2.706   5.281  16.103 -0.2999 -0.0878  0.7856
 8111TIP3    H245749   2.580   5.285  16.019 -0.1627 -1.2925  0.5188
 8112TIP3   OH245750   4.477   1.934  11.788  0.2846 -0.1636  0.4862
 8112TIP3    H145751   4.498   1.912  11.697 -1.0899 -2.2652  0.6430
 8112TIP3    H245752   4.509   1.859  11.838  2.2263  1.5680  1.9077
 8113TIP3   OH245753   6.612   0.371  16.906 -0.1818  0.3530 -0.5836
 8113TIP3    H145754   6.520   0.347  16.924  0.6285 -1.8017  0.9491
 8113TIP3    H245755   6.631   0.330  16.822 -0.1995 -0.5110 -0.1803
 8114TIP3   OH245756   6.509   4.872   1.578  0.1483  0.3898  0.5681
 8114TIP3    H145757   6.462   4.793   1.606  0.4666  0.3374  0.9595
 8114TIP3    H245758   6.526   4.920   1.659  0.0105  0.8293  0.3360
 8115TIP3   OH245759   0.997   2.805   3.147 -0.7608  0.1799 -0.0612
 8115TIP3    H145760   1.031   2.893   3.133 -0.3727 -0.0833 -0.7906
 8115TIP3    H245761   0.966   2.777   3.061 -1.3917 -0.1779  0.2828
 8116TIP3   OH245762   0.147   3.477   0.565  0.1176 -0.6047  0.3249
 8116TIP3    H145763   0.107   3.468   0.479 -0.1101 -2.6655  0.6277
 8116TIP3    H245764   0.073   3.493   0.624  0.0540 -1.3723  0.4515
 8117TIP3   OH245765   3.963   0.622   0.804 -0.1456 -0.1665 -0.0931
 8117TIP3    H145766   3.977   0.683   0.732 -2.1413  0.3277 -0.1070
 8117TIP3    H245767   4.034   0.641   0.866  1.2409 -0.1982 -1.6511
 8118TIP3   OH245768   3.691   6.592  12.812  0.1342  0.6753  0.2068
 8118TIP3    H145769   3.762   6.580  12.749 -0.3029  3.8230 -0.9338
 8118TIP3    H245770   3.735   6.608  12.895  0.7622  1.4518 -0.2726
 8119TIP3   OH245771   1.356   2.849   1.577 -0.1738 -0.1884 -0.2727
 8119TIP3    H145772   1.437   2.900   1.572 -1.8004  2.5348  0.5372
 8119TIP3    H245773   1.368   2.793   1.654  0.7360  0.5750  0.1573
 8120TIP3   OH245774   3.968   5.713   1.437  1.2644 -0.9869 -0.4093
 8120TIP3    H145775   4.008   5.796   1.461  0.1218  0.0759 -2.1439
 8120TIP3    H245776   3.927   5.729   1.353 -1.2890 -2.5488  0.4974
 8121TIP3   OH245777   1.509   5.901  11.718  0.1934 -0.2614 -0.2287
 8121TIP3    H145778   1.448   5.849  11.666 -0.9755  0.4523  0.4283
 8121TIP3    H245779   1.474   5.990  11.717  0.8054  0.0062  0.7740
 8122TIP3   OH245780   1.029   5.986  12.176 -0.1881  0.7161  0.0548
 8122TIP3    H145781   0.971   6.010  12.103  1.2468  4.3412  0.0059
 8122TIP3    H245782   1.102   5.939  12.134 -0.8151  0.1581 -0.4333
 8123TIP3   OH245783   3.606   3.583  17.175  0.4553  0.2217 -0.1384
 8123TIP3    H145784   3.618   3.547  17.087  0.6210  0.9669 -0.4243
 8123TIP3    H245785   3.694   3.580  17.214 -0.1981 -3.2826  1.2561
 8124TIP3   OH245786   4.447   0.521  12.925  0.5688 -0.1946 -0.0879
 8124TIP3    H145787   4.511   0.529  12.995 -0.5828 -0.4033  1.0020
 8124TIP3    H245788   4.459   0.433  12.891  0.6200 -0.3537  0.3469
 8125TIP3   OH245789   5.423   6.175   2.903 -0.0755 -0.6029 -0.2777
 8125TIP3    H145790   5.409   6.270   2.912  1.2755 -0.4969  0.8390
 8125TIP3    H245791   5.396   6.139   2.987 -0.3524 -1.1919 -0.6176
 8126TIP3   OH245792   4.498   5.809   0.582 -0.3132 -0.1315 -0.6844
 8126TIP3    H145793   4.420   5.799   0.637  0.1318  1.4096  0.2778
 8126TIP3    H245794   4.568   5.827   0.645  0.8792 -1.7742 -1.5243
 8127TIP3   OH245795   5.025   3.185   2.159  0.1125 -0.2891  0.0863
 8127TIP3    H145796   5.008   3.093   2.138  1.8600 -0.2697 -1.5568
 8127TIP3    H245797   5.119   3.188   2.178 -0.3752  0.7459  2.5077
 8128TIP3   OH245798   5.838   5.071  15.154  0.4682  0.5867  0.2631
 8128TIP3    H145799   5.910   5.011  15.175  0.2913  0.1664 -0.3316
 8128TIP3    H245800   5.812   5.107  15.239  1.3696  0.7340  0.4881
 8129TIP3   OH245801   1.212   4.716   1.469  0.4563 -0.2490  0.2691
 8129TIP3    H145802   1.148   4.645   1.475  0.2842 -0.1468 -0.3619
 8129TIP3    H245803   1.296   4.671   1.460  0.9143 -0.4728  4.3913
 8130TIP3   OH245804   1.943   0.302  13.882  0.6634  0.1395  0.1658
 8130TIP3    H145805   2.013   0.356  13.846  0.4972  1.5614  1.9019
 8130TIP3    H245806   1.896   0.360  13.942 -0.1492 -1.6452  1.3078
 8131TIP3   OH245807   0.251   1.193   4.142  0.3300 -0.0781  0.1223
 8131TIP3    H145808   0.346   1.201   4.149  0.3903 -1.2237  0.7282
 8131TIP3    H245809   0.231   1.108   4.181 -0.7662 -0.6072 -1.5689
 8132TIP3   OH245810   3.744   2.890   3.789 -0.2628 -0.3863 -0.5165
 8132TIP3    H145811   3.663   2.852   3.756 -1.4438  1.4029  0.2103
 8132TIP3    H245812   3.775   2.946   3.717 -0.9894  0.8226  0.0979
 8133TIP3   OH245813   6.186   0.772   4.151  0.2801  0.6112  0.5850
 8133TIP3    H145814   6.091   0.781   4.156  0.2119 -0.1925  0.7547
 8133TIP3    H245815   6.203   0.750   4.060  0.0760 -1.8693  1.1282
 8134TIP3   OH245816   4.003   1.590  12.795  0.0594 -0.3959 -0.1973
 8134TIP3    H145817   3.996   1.684  12.806 -1.6317 -0.6536  1.1367
 8134TIP3    H245818   4.090   1.568  12.828  0.0053  0.5394  0.5798
 8135TIP3   OH245819   5.824   6.533   4.257  0.3081  0.0167 -0.1348
 8135TIP3    H145820   5.877   6.578   4.323 -0.1818  0.6333 -0.1571
 8135TIP3    H245821   5.734   6.545   4.287  0.0377  0.8382 -1.2358
 8136TIP3   OH245822   3.932   0.450   4.015 -0.2522  0.3583 -0.1930
 8136TIP3    H145823   3.856   0.466   3.960  0.3454 -2.4853 -1.9369
 8136TIP3    H245824   4.007   0.474   3.960  0.2747 -0.8518 -0.0145
 8137TIP3   OH245825   0.148   5.661   5.704 -0.0342 -0.3943  0.4077
 8137TIP3    H145826   0.219   5.711   5.664  0.4064 -1.2960  0.0781
 8137TIP3    H245827   0.190   5.605   5.768 -0.7466  1.1748  2.3265
 8138TIP3   OH245828   5.650   5.749  16.093 -0.1099 -0.6066 -0.2104
 8138TIP3    H145829   5.664   5.767  16.186 -1.4047  1.7719 -0.4401
 8138TIP3    H245830   5.580   5.684  16.091  1.3585 -2.2749  0.4934
 8139TIP3   OH245831   2.977   2.180  11.508  0.1036 -0.5783  0.3149
 8139TIP3    H145832   2.972   2.096  11.552 -0.4239  0.7099  2.8080
 8139TIP3    H245833   2.911   2.234  11.551  1.7571  1.7101  0.0942
 8140TIP3   OH245834   4.385   6.042   3.018 -0.4473  0.4207 -0.1863
 8140TIP3    H145835   4.385   6.041   2.922  0.3929 -0.7580 -0.1875
 8140TIP3    H245836   4.478   6.038   3.041 -0.6481  0.7662  0.6788
 8141TIP3   OH245837   0.804   3.688  11.343  0.1507  0.1648  0.4333
 8141TIP3    H145838   0.814   3.593  11.335 -0.7335 -0.1649  2.7706
 8141TIP3    H245839   0.771   3.717  11.258  0.4909 -1.6032 -0.3182
 8142TIP3   OH245840   4.963   3.874   0.492  0.3427 -0.6057  0.0470
 8142TIP3    H145841   5.033   3.878   0.427 -0.1332  1.0674 -0.3880
 8142TIP3    H245842   4.911   3.953   0.477 -0.7618 -1.0533  1.3527
 8143TIP3   OH245843   5.046   1.142  15.684 -0.1531 -0.0595  0.1130
 8143TIP3    H145844   5.061   1.098  15.600  2.1124  1.2479 -0.2057
 8143TIP3    H245845   5.062   1.235  15.666 -0.1008  0.2947  1.8741
 8144TIP3   OH245846   4.206   0.557   6.145 -0.4487 -0.0818  0.4207
 8144TIP3    H145847   4.187   0.464   6.134 -0.0005 -0.0816 -0.3789
 8144TIP3    H245848   4.296   0.559   6.178 -1.1316 -0.0046  2.3544
 8145TIP3   OH245849   2.304   6.053   2.687  0.1394 -0.3350  0.2753
 8145TIP3    H145850   2.247   6.130   2.694 -1.7831 -1.5788 -1.2261
 8145TIP3    H245851   2.358   6.071   2.610 -1.3130 -1.0862 -0.9505
 8146TIP3   OH245852   4.742   0.524   2.979 -0.0068  0.2379 -0.1740
 8146TIP3    H145853   4.836   0.525   3.000 -0.1540  1.2602  0.4776
 8146TIP3    H245854   4.727   0.607   2.935  0.0452 -1.3600 -3.2938
 8147TIP3   OH245855   2.755   4.790   5.696  0.0903 -0.3669 -0.0994
 8147TIP3    H145856   2.697   4.780   5.620  0.0051 -0.8192  0.0264
 8147TIP3    H245857   2.731   4.718   5.755  2.4720 -2.0540 -1.1220
 8148TIP3   OH245858   4.261   1.801  17.091 -0.0478 -0.0346  0.2968
 8148TIP3    H145859   4.191   1.866  17.095  0.3441  0.3014  2.1799
 8148TIP3    H245860   4.218   1.720  17.064 -0.6077  0.8990 -1.6932
 8149TIP3   OH245861   3.299   4.319  11.179 -0.4654 -0.1398  0.1233
 8149TIP3    H145862   3.354   4.271  11.117 -0.6313 -0.2016  0.0227
 8149TIP3    H245863   3.289   4.406  11.141  1.4133  0.5997  1.2418
 8150TIP3   OH245864   4.039   0.388  15.880 -0.1319  0.1387 -0.9800
 8150TIP3    H145865   3.962   0.395  15.935 -1.0309 -1.8497 -1.9422
 8150TIP3    H245866   4.032   0.462  15.819 -1.0455  0.2238 -0.7789
 8151TIP3   OH245867   0.633   0.315  16.031  0.1482  0.1529  0.4972
 8151TIP3    H145868   0.646   0.400  16.074 -0.4550 -0.5231  2.0590
 8151TIP3    H245869   0.599   0.258  16.101  0.1619 -1.2601 -0.6350
 8152TIP3   OH245870   0.840   5.162   5.446 -0.4089 -0.5934  0.3801
 8152TIP3    H145871   0.760   5.113   5.466 -1.1300 -0.5298 -2.2032
 8152TIP3    H245872   0.833   5.242   5.498 -0.6548 -1.8595  2.3356
 8153TIP3   OH245873   5.343   0.590   2.214  0.2289 -0.2817  0.4688
 8153TIP3    H145874   5.299   0.596   2.299 -0.8632 -0.9959 -0.0374
 8153TIP3    H245875   5.291   0.528   2.164 -1.2374  2.7943 -1.9802
 8154TIP3   OH245876   2.924   6.594  12.408  0.0088  0.1143  0.2090
 8154TIP3    H145877   2.850   6.534  12.421 -0.1683  0.4822  0.9474
 8154TIP3    H245878   3.000   6.536  12.403 -0.5613 -0.4614 -3.0903
 8155TIP3   OH245879   1.518   4.724  14.429 -0.2640 -0.0486 -0.0479
 8155TIP3    H145880   1.557   4.809  14.449 -0.2230 -0.2032  0.5471
 8155TIP3    H245881   1.435   4.724  14.477 -1.3094  0.5427 -1.8401
 8156TIP3   OH245882   3.268   2.190  14.774 -0.1342 -0.0277 -0.2204
 8156TIP3    H145883   3.332   2.262  14.770 -0.1274  0.0097  0.4537
 8156TIP3    H245884   3.189   2.226  14.734  0.1787  0.0211 -0.8003
 8157TIP3   OH245885   5.994   5.089  10.448 -0.5327  0.4889 -0.2264
 8157TIP3    H145886   6.017   5.005  10.407 -0.0065  1.3914 -1.8048
 8157TIP3    H245887   5.900   5.098  10.434 -0.6370  0.0367  0.1759
 8158TIP3   OH245888   4.319   0.925  12.290  0.1790 -0.2464 -0.2586
 8158TIP3    H145889   4.279   0.910  12.376 -1.1586  0.8689 -0.6623
 8158TIP3    H245890   4.345   0.838  12.260 -0.9046 -0.8541  0.5281
 8159TIP3   OH245891   5.312   6.019   0.682 -0.1926  0.4129  0.4231
 8159TIP3    H145892   5.222   5.991   0.664 -0.6388 -0.2187  3.4993
 8159TIP3    H245893   5.304   6.106   0.720  0.4110 -0.1229  1.8068
 8160TIP3   OH245894   2.973   3.849   5.203 -0.5315 -0.5308  0.5220
 8160TIP3    H145895   2.955   3.759   5.173 -0.3933 -1.0916  2.1124
 8160TIP3    H245896   2.987   3.841   5.297 -0.6409  1.1889  0.6962
 8161TIP3   OH245897   2.157   4.399  15.993 -0.0194  0.1283 -0.2040
 8161TIP3    H145898   2.181   4.317  16.036  0.6749  0.4232 -0.0187
 8161TIP3    H245899   2.100   4.373  15.921  3.3341 -0.8985 -2.6094
 8162TIP3   OH245900   2.757   2.678   1.545  0.3743  0.0695  0.2607
 8162TIP3    H145901   2.745   2.755   1.489 -1.7001  1.3896  2.4373
 8162TIP3    H245902   2.837   2.695   1.594  2.3906 -1.2377 -2.4006
 8163TIP3   OH245903   0.250   4.550  10.465 -0.0514  0.1280 -0.4278
 8163TIP3    H145904   0.294   4.596  10.536 -0.3900 -0.7868  0.3754
 8163TIP3    H245905   0.186   4.612  10.432 -0.9850  0.0050  1.1073
 8164TIP3   OH245906   4.827   2.830  15.810  0.2187 -0.5082 -0.4069
 8164TIP3    H145907   4.795   2.776  15.738 -0.2997 -0.3841 -0.2662
 8164TIP3    H245908   4.776   2.802  15.886  0.5950 -0.4680 -0.1387
 8165TIP3   OH245909   0.754   0.753   4.769  0.6756 -0.0359 -0.3185
 8165TIP3    H145910   0.710   0.837   4.757  0.1802 -0.4084 -1.2277
 8165TIP3    H245911   0.844   0.769   4.743  0.7200  0.3620  0.0847
 8166TIP3   OH245912   3.108   5.819  11.923  0.1312 -0.5241  0.4433
 8166TIP3    H145913   3.041   5.819  11.855 -0.1991 -0.2202  0.7707
 8166TIP3    H245914   3.176   5.879  11.890 -2.2066  3.4611  2.5464
 8167TIP3   OH245915   1.583   1.719   2.683  0.1752  0.2397  0.2874
 8167TIP3    H145916   1.626   1.665   2.749  0.2706 -2.4241 -1.8546
 8167TIP3    H245917   1.650   1.780   2.653  0.7936 -0.1002  0.9756
 8168TIP3   OH245918   0.522   5.333   4.904 -0.1511 -0.3621  0.6938
 8168TIP3    H145919   0.481   5.253   4.871 -0.5411 -0.0343  0.3781
 8168TIP3    H245920   0.605   5.339   4.857 -0.0011 -0.7275  0.9165
 8169TIP3   OH245921   5.337   4.031  15.800  0.0807  0.5678  0.0802
 8169TIP3    H145922   5.353   3.976  15.723 -0.0553  0.0742  0.4026
 8169TIP3    H245923   5.303   3.970  15.866  2.9658  0.4175  1.5118
 8170TIP3   OH245924   4.913   4.122   4.572  0.3685  0.2559 -0.3050
 8170TIP3    H145925   4.978   4.118   4.502  1.6137  0.3294  0.8198
 8170TIP3    H245926   4.886   4.031   4.585  2.1007 -0.1302  0.8866
 8171TIP3   OH245927   5.413   0.297  11.074  0.5460  0.1316  0.0676
 8171TIP3    H145928   5.477   0.328  11.138  0.1303  1.7863 -0.2872
 8171TIP3    H245929   5.361   0.231  11.121  0.4463  1.0933  1.3339
 8172TIP3   OH245930   4.164   1.886  10.993  0.5380  0.0237  0.0021
 8172TIP3    H145931   4.214   1.884  10.911 -0.2022 -1.6394 -0.4160
 8172TIP3    H245932   4.073   1.876  10.966  0.3258 -0.9489  1.0496
 8173TIP3   OH245933   1.341   5.488  13.524 -0.2262 -0.2413  0.0569
 8173TIP3    H145934   1.403   5.558  13.505  1.8081 -1.9607  0.1871
 8173TIP3    H245935   1.388   5.407  13.500 -2.4902 -1.5626 -0.0613
 8174TIP3   OH245936   1.253   1.854  11.775  0.9042  0.0413 -0.0777
 8174TIP3    H145937   1.225   1.763  11.783 -1.6529  0.8820  1.0569
 8174TIP3    H245938   1.206   1.887  11.698  2.2208  0.2791 -0.8016
 8175TIP3   OH245939   6.745   4.084  15.157 -0.4692 -0.1663  0.3923
 8175TIP3    H145940   6.655   4.110  15.178 -1.1211 -1.7666 -0.3375
 8175TIP3    H245941   6.743   4.068  15.062  0.4593 -0.6923  0.4548
 8176TIP3   OH245942   4.770   6.534   0.921 -0.4973 -0.2213  0.8088
 8176TIP3    H145943   4.713   6.596   0.876  1.5438  2.9877  2.4299
 8176TIP3    H245944   4.763   6.558   1.013  1.5732 -1.3983  1.2984
 8177TIP3   OH245945   5.704   3.336  17.086  0.0796 -0.0137 -0.1554
 8177TIP3    H145946   5.731   3.283  17.161  1.4692  0.2840 -0.4264
 8177TIP3    H245947   5.662   3.413  17.124 -3.0089 -1.7945  0.2337
 8178TIP3   OH245948   0.838   1.576  13.481 -0.0973 -0.1577  0.6207
 8178TIP3    H145949   0.897   1.517  13.528  0.7113 -0.1042 -0.3243
 8178TIP3    H245950   0.794   1.520  13.417 -0.8072 -0.1172  1.0552
 8179TIP3   OH245951   2.551   5.264  14.075  0.1536 -0.3852  0.0701
 8179TIP3    H145952   2.572   5.283  14.166  0.4921  0.7825 -0.2509
 8179TIP3    H245953   2.556   5.348  14.030 -0.9765 -0.7829 -0.8438
 8180TIP3   OH245954   0.727   1.225  12.528 -0.9146  0.7722  0.1036
 8180TIP3    H145955   0.755   1.304  12.575  0.8419 -0.0130  0.4275
 8180TIP3    H245956   0.809   1.183  12.500 -1.8006 -1.2143  0.3844
 8181TIP3   OH245957   1.732   4.615   3.915  0.1805  0.2930  0.0909
 8181TIP3    H145958   1.729   4.585   4.006 -0.3080  0.0813  0.0044
 8181TIP3    H245959   1.663   4.566   3.871  2.0743 -1.4895 -0.9797
 8182TIP3   OH245960   3.220   1.681  13.604  0.3192 -0.1046  0.1103
 8182TIP3    H145961   3.225   1.600  13.553  0.8334 -0.1478  0.2169
 8182TIP3    H245962   3.298   1.677  13.660 -0.5066 -0.3033  1.2536
 8183TIP3   OH245963   2.972   4.851  16.931  0.2212 -0.2069  0.0966
 8183TIP3    H145964   3.041   4.856  16.997  2.3131  0.3395 -2.0476
 8183TIP3    H245965   2.901   4.804  16.974  1.6950 -0.2867  2.5605
 8184TIP3   OH245966   0.555   0.846   2.150 -0.0079 -0.0464  0.0260
 8184TIP3    H145967   0.475   0.843   2.201 -1.1534  2.6999 -1.5100
 8184TIP3    H245968   0.609   0.913   2.193 -0.1273  0.7974 -1.1110
 8185TIP3   OH245969   4.067   3.732  14.937 -0.6573  0.2242  0.0012
 8185TIP3    H145970   3.976   3.713  14.912 -0.2409  0.3672 -1.7068
 8185TIP3    H245971   4.080   3.684  15.018 -1.5628 -1.6736 -0.9388
 8186TIP3   OH245972   4.102   3.734   0.216  0.1630 -0.5094  0.1252
 8186TIP3    H145973   4.090   3.670   0.287  1.2236 -2.4461 -1.3927
 8186TIP3    H245974   4.076   3.817   0.255  0.2655 -1.5937  2.6574
 8187TIP3   OH245975   5.770   0.899   1.466 -0.3074  0.0805  0.6065
 8187TIP3    H145976   5.799   0.952   1.392  0.1501  0.1194  0.8135
 8187TIP3    H245977   5.682   0.870   1.441 -0.5029  0.8090  0.4252
 8188TIP3   OH245978   4.394   6.748   0.805 -0.5295 -0.3585 -0.1292
 8188TIP3    H145979   4.462   6.809   0.774 -0.7501 -1.5751 -3.1635
 8188TIP3    H245980   4.314   6.781   0.765 -0.8780 -1.8289 -0.6504
 8189TIP3   OH245981   1.422   0.899  15.553 -0.3946  0.3421 -0.0920
 8189TIP3    H145982   1.471   0.863  15.627  2.6575  3.1113 -0.6216
 8189TIP3    H245983   1.437   0.837  15.482  2.3270  1.0451 -0.1936
 8190TIP3   OH245984   4.668   5.436  14.768 -0.6683 -0.1291 -0.1361
 8190TIP3    H145985   4.700   5.429  14.858 -0.9859 -1.0111 -0.0799
 8190TIP3    H245986   4.688   5.525  14.742 -1.0958  0.3132  1.0141
 8191TIP3   OH245987   1.027   1.645   6.433  0.7603 -0.1154 -0.0046
 8191TIP3    H145988   1.007   1.611   6.520 -0.8736 -2.1737 -1.1247
 8191TIP3    H245989   1.080   1.576   6.392 -1.0449 -0.5793 -1.6635
 8192TIP3   OH245990   4.330   3.709  13.760 -0.2292  0.0474 -0.2242
 8192TIP3    H145991   4.389   3.642  13.794 -0.5537  0.6177  1.5247
 8192TIP3    H245992   4.388   3.776  13.725  0.1293 -0.3675 -0.4245
 8193TIP3   OH245993   5.361   3.168  15.835  0.4096  0.4653  0.2211
 8193TIP3    H145994   5.300   3.101  15.804 -0.0510  1.1454 -0.3820
 8193TIP3    H245995   5.442   3.151  15.787  0.8047 -0.6456  1.2748
 8194TIP3   OH245996   5.574   0.075   6.573 -0.0890 -1.3872 -0.4283
 8194TIP3    H145997   5.660   0.067   6.614  0.4913  1.7487 -0.9107
 8194TIP3    H245998   5.582   0.027   6.490  1.2788 -0.8246 -0.6227
 8195TIP3   OH245999   2.524   4.951   2.233 -0.1423  0.2736 -0.0011
 8195TIP3    H146000   2.520   4.855   2.226 -0.5792  0.2817  0.0811
 8195TIP3    H246001   2.446   4.982   2.187 -0.0935  0.5825  0.1213
 8196TIP3   OH246002   0.448   1.796   3.518  0.3664  0.2293 -0.0538
 8196TIP3    H146003   0.452   1.788   3.613  2.2736 -0.5298 -0.1797
 8196TIP3    H246004   0.530   1.838   3.494  0.5668 -0.9272 -1.4820
 8197TIP3   OH246005   0.625   3.457  11.997  0.0768 -0.0066 -0.1606
 8197TIP3    H146006   0.664   3.544  11.990 -1.0146  0.3429 -2.3283
 8197TIP3    H246007   0.699   3.397  11.994  0.8196  0.8171  1.1753
 8198TIP3   OH246008   0.204   3.501   5.815  0.2945  0.6847 -0.0419
 8198TIP3    H146009   0.121   3.484   5.770  0.2443  0.5268  0.1081
 8198TIP3    H246010   0.226   3.417   5.857  0.2160  0.8997  0.4308
 8199TIP3   OH246011   2.888   1.352  11.836  0.2402 -0.4546 -0.2810
 8199TIP3    H146012   2.907   1.374  11.744 -0.2295  0.7411 -0.1069
 8199TIP3    H246013   2.864   1.260  11.835 -2.0021  0.1016 -1.7176
 8200TIP3   OH246014   0.799   6.119  13.717  0.1726 -0.0034 -0.2975
 8200TIP3    H146015   0.867   6.186  13.728 -0.1376  0.5822 -1.8055
 8200TIP3    H246016   0.807   6.064  13.795  1.5175  0.8204  0.1720
 8201TIP3   OH246017   3.658   2.197  10.641  0.0993 -0.2018 -0.1378
 8201TIP3    H146018   3.733   2.200  10.581 -0.3361  0.9907 -0.6256
 8201TIP3    H246019   3.690   2.148  10.717  2.2184  2.5797  0.8367
 8202TIP3   OH246020   6.527   6.006   2.945 -0.1077  0.3306 -1.1316
 8202TIP3    H146021   6.497   6.057   2.870  0.4883  0.3664 -1.3441
 8202TIP3    H246022   6.531   5.916   2.913 -0.5943  0.2366 -0.9246
 8203TIP3   OH246023   4.197   5.041   0.695  0.8855  0.5473  0.0823
 8203TIP3    H146024   4.112   5.084   0.689  0.2388 -0.4286  1.7240
 8203TIP3    H246025   4.258   5.101   0.651 -0.3407  2.1153  0.4678
 8204TIP3   OH246026   3.653   0.651  15.380 -0.8741 -0.6633 -0.4075
 8204TIP3    H146027   3.658   0.588  15.451  0.2264 -0.7227 -0.5269
 8204TIP3    H246028   3.731   0.635  15.328 -0.2662  1.1998 -0.1103
 8205TIP3   OH246029   2.566   3.194  12.899 -0.2056  0.2510  0.2310
 8205TIP3    H146030   2.513   3.117  12.878  1.0046 -0.6770  0.5233
 8205TIP3    H246031   2.567   3.197  12.995  0.8259 -0.1425  0.2404
 8206TIP3   OH246032   6.512   5.548   1.505 -0.1860 -0.1259  0.1426
 8206TIP3    H146033   6.501   5.602   1.426 -0.5495  1.3357  1.1718
 8206TIP3    H246034   6.461   5.470   1.487  0.3274 -0.1327 -1.3765
 8207TIP3   OH246035   4.922   5.425   2.577 -0.4653 -0.1195  0.1174
 8207TIP3    H146036   4.980   5.501   2.585 -1.1750  0.4483 -0.1357
 8207TIP3    H246037   4.967   5.366   2.516  0.2772 -0.0905  0.6294
 8208TIP3   OH246038   2.757   1.221   5.797  0.2572  0.1334 -0.6678
 8208TIP3    H146039   2.776   1.278   5.872 -0.6016  1.2526 -1.2837
 8208TIP3    H246040   2.804   1.140   5.816  1.6149  1.0995  0.1647
 8209TIP3   OH246041   2.651   4.303  15.956  0.2809  0.1464  0.1741
 8209TIP3    H146042   2.569   4.352  15.954 -0.3373 -0.8958 -0.1753
 8209TIP3    H246043   2.667   4.286  16.049 -0.3645 -0.4134  0.1859
 8210TIP3   OH246044   5.125   2.784  12.468  0.2729  0.0020 -0.1113
 8210TIP3    H146045   5.087   2.696  12.463  1.3359 -0.4986  0.4206
 8210TIP3    H246046   5.171   2.785  12.553  0.3315  1.0394 -0.1530
 8211TIP3   OH246047   1.557   3.614  12.999 -0.1580  0.1461 -0.4153
 8211TIP3    H146048   1.629   3.668  12.966  0.0135 -0.6233 -1.3334
 8211TIP3    H246049   1.502   3.675  13.048  2.0146  0.4039  1.8006
 8212TIP3   OH246050   1.396   4.696  15.499 -0.2710  0.4253  0.2917
 8212TIP3    H146051   1.417   4.677  15.590  1.7296 -0.1903 -0.2743
 8212TIP3    H246052   1.339   4.773  15.503 -0.2128  0.3940  2.0393
 8213TIP3   OH246053   2.062   6.637  13.565  0.4525 -0.2444 -0.2446
 8213TIP3    H146054   2.120   6.673  13.498 -0.3924  0.9721 -0.3481
 8213TIP3    H246055   2.121   6.611  13.636  1.0215  3.0326  0.5898
 8214TIP3   OH246056   2.020   3.402   5.288  0.1997 -0.3350 -0.0267
 8214TIP3    H146057   1.949   3.457   5.255 -0.1936 -0.1120  1.1666
 8214TIP3    H246058   2.083   3.399   5.216 -0.2133  0.8926 -0.4594
 8215TIP3   OH246059   2.589   5.131   0.739  0.0521  0.4031  0.2857
 8215TIP3    H146060   2.611   5.136   0.646 -0.9494  2.9328  0.1595
 8215TIP3    H246061   2.599   5.221   0.771 -3.2670  0.3185  1.7627
 8216TIP3   OH246062   3.102   5.817  13.815  1.1581 -0.1622 -0.2150
 8216TIP3    H146063   3.069   5.885  13.756  1.9119 -0.8064 -1.3901
 8216TIP3    H246064   3.182   5.786  13.774  0.0693 -2.7915 -0.4563
 8217TIP3   OH246065   6.099   0.225   5.678  1.0089 -0.1094  0.1994
 8217TIP3    H146066   6.089   0.166   5.603  0.8642  0.5014 -0.2682
 8217TIP3    H246067   6.053   0.181   5.749  0.8563 -0.5387 -0.1585
 8218TIP3   OH246068   6.350   2.211  10.430 -0.5512 -0.6406  0.7062
 8218TIP3    H146069   6.392   2.180  10.349 -1.4521 -0.2056  0.0706
 8218TIP3    H246070   6.404   2.173  10.500  3.2400  2.9904 -0.0495
 8219TIP3   OH246071   2.916   3.883  14.613  0.0306 -0.4344 -0.3193
 8219TIP3    H146072   2.937   3.875  14.520 -1.0732 -0.2768 -0.5852
 8219TIP3    H246073   2.966   3.960  14.642 -1.6493  1.1047 -1.3942
 8220TIP3   OH246074   4.367   4.981  15.058  0.1088  0.5476  0.4303
 8220TIP3    H146075   4.460   4.963  15.072  0.1368  1.3864  1.3268
 8220TIP3    H246076   4.356   5.073  15.080 -0.9299  0.4750  0.2594
 8221TIP3   OH246077   0.345   5.462  14.175  0.0708 -0.2015  0.6562
 8221TIP3    H146078   0.431   5.435  14.143  0.0424  1.4553 -0.8531
 8221TIP3    H246079   0.356   5.553  14.202 -1.6408  0.6271 -1.3156
 8222TIP3   OH246080   1.041   0.446   4.679 -0.0503 -0.2009 -0.2269
 8222TIP3    H146081   1.083   0.452   4.764  0.4293  2.7302 -0.6052
 8222TIP3    H246082   0.947   0.446   4.698  0.0631 -1.5587  0.3716
 8223TIP3   OH246083   3.620   1.108  13.247  0.5240 -0.2668 -0.1268
 8223TIP3    H146084   3.581   1.052  13.180  0.6266  0.4859 -0.8296
 8223TIP3    H246085   3.695   1.148  13.203 -2.1254  3.9308 -1.1248
 8224TIP3   OH246086   0.148   5.354   4.775  0.7682  0.4544  0.0652
 8224TIP3    H146087   0.087   5.318   4.839 -0.2143  1.3362 -0.3602
 8224TIP3    H246088   0.109   5.335   4.690  2.5661 -1.6059 -0.3418
 8225TIP3   OH246089   1.140   3.297  15.121 -0.2502  0.9196  0.0646
 8225TIP3    H146090   1.108   3.376  15.163 -0.4521  1.3344 -0.8551
 8225TIP3    H246091   1.129   3.313  15.027  0.9856  0.3561 -0.1911
 8226TIP3   OH246092   0.641   0.316   2.698 -0.0249  0.4648 -0.1537
 8226TIP3    H146093   0.555   0.320   2.740 -0.5025  2.4020 -1.2502
 8226TIP3    H246094   0.702   0.344   2.766 -0.3602  0.0718  0.3176
 8227TIP3   OH246095   6.155   3.438  11.588  0.0496 -0.1569 -0.0053
 8227TIP3    H146096   6.158   3.427  11.493  0.1471  1.1775 -0.1669
 8227TIP3    H246097   6.108   3.361  11.619 -0.1170 -0.5347 -1.1500
 8228TIP3   OH246098   2.079   0.779  16.122 -0.3487 -0.2513 -0.4347
 8228TIP3    H146099   2.081   0.866  16.162 -0.3327  0.1992 -1.4088
 8228TIP3    H246100   2.145   0.783  16.053 -0.7306 -0.8629 -0.8399
 8229TIP3   OH246101   2.782   6.775  16.640  0.6074 -0.0025 -0.0694
 8229TIP3    H146102   2.724   6.807  16.709  2.2028  3.3115 -0.1950
 8229TIP3    H246103   2.796   6.683  16.662 -3.1789 -0.4093  0.9895
 8230TIP3   OH246104   3.658   0.901   0.375  0.1591  0.5941 -0.2339
 8230TIP3    H146105   3.670   0.932   0.465  0.2039 -0.3538  0.0938
 8230TIP3    H246106   3.736   0.932   0.328  0.7051  0.0994  0.3302
 8231TIP3   OH246107   2.208   2.484  16.613  0.4295 -0.2795 -0.1979
 8231TIP3    H146108   2.149   2.441  16.674  0.4469  0.7166  0.5353
 8231TIP3    H246109   2.284   2.426  16.608  1.1355  0.4069  1.9884
 8232TIP3   OH246110   1.922   5.477   6.321  0.3571 -0.0121 -0.1736
 8232TIP3    H146111   1.975   5.529   6.260 -0.3738  0.9996  0.0363
 8232TIP3    H246112   1.837   5.469   6.277  0.5408 -1.2329 -0.3055
 8233TIP3   OH246113   5.269   5.714  11.100 -0.8001  0.2211 -0.0182
 8233TIP3    H146114   5.348   5.748  11.058 -0.5488  1.5438  1.4995
 8233TIP3    H246115   5.302   5.645  11.157 -0.8283  0.2942  0.0852
 8234TIP3   OH246116   2.390   5.896  13.548  0.2550 -0.0330 -0.3255
 8234TIP3    H146117   2.358   5.909  13.459  1.6284 -0.1476 -0.8385
 8234TIP3    H246118   2.392   5.801  13.559 -2.2961 -0.0183  0.7145
 8235TIP3   OH246119   5.077   0.266   1.511 -0.0411 -0.0049 -0.0634
 8235TIP3    H146120   5.161   0.222   1.526 -2.5357 -4.0017  3.6797
 8235TIP3    H246121   5.043   0.226   1.431  1.4483  1.4713 -1.4706
 8236TIP3   OH246122   5.290   5.658   1.656  0.1909 -0.2145  0.2120
 8236TIP3    H146123   5.205   5.668   1.613  0.1801 -0.7725  0.1004
 8236TIP3    H246124   5.318   5.747   1.674  0.3242  0.0512 -1.2201
 8237TIP3   OH246125   5.411   5.779   6.005 -0.0826  0.0414  0.2847
 8237TIP3    H146126   5.377   5.708   5.951  0.6901  1.7099 -2.5038
 8237TIP3    H246127   5.480   5.738   6.058 -0.1688 -1.4505 -0.7286
 8238TIP3   OH246128   0.133   2.796   5.134  0.6725  0.2311 -0.1611
 8238TIP3    H146129   0.113   2.812   5.227  2.5809 -0.0684  0.3203
 8238TIP3    H246130   0.057   2.749   5.101  0.7831 -1.3594  1.7465
 8239TIP3   OH246131   4.646   1.941   0.363  0.5102 -0.1004 -0.2430
 8239TIP3    H146132   4.644   1.851   0.331  1.2333 -0.4254  0.6193
 8239TIP3    H246133   4.681   1.934   0.452  0.5455  1.0284 -0.1654
 8240TIP3   OH246134   3.483   5.315  14.994  0.1941  0.1764 -0.3970
 8240TIP3    H146135   3.575   5.339  15.011  0.6040 -0.9795 -0.9568
 8240TIP3    H246136   3.488   5.240  14.935 -1.0891 -0.8222  0.7364
 8241TIP3   OH246137   6.709   5.011   5.611  0.2014  0.1690 -0.2121
 8241TIP3    H146138   6.763   4.976   5.683 -0.0464  0.8334  0.2981
 8241TIP3    H246139   6.638   4.947   5.602 -0.2719  0.5344  0.7497
 8242TIP3   OH246140   3.393   2.034   0.899  0.7827 -0.3856  0.3116
 8242TIP3    H146141   3.450   2.109   0.918 -0.1490  0.2882  0.5108
 8242TIP3    H246142   3.421   2.004   0.813  0.1941  1.1364 -0.4383
 8243TIP3   OH246143   2.821   5.659  15.540  0.1052 -0.7750  0.1594
 8243TIP3    H146144   2.735   5.694  15.515  0.7477  1.5644  1.0905
 8243TIP3    H246145   2.857   5.624  15.458  0.9029  3.9946 -1.6446
 8244TIP3   OH246146   1.509   2.869   4.018  0.2361 -0.1303 -0.3426
 8244TIP3    H146147   1.574   2.932   4.050  0.7703 -1.2350  0.7980
 8244TIP3    H246148   1.531   2.857   3.926  1.3266 -0.0673 -0.1085
 8245TIP3   OH246149   0.794   4.284  13.343 -0.4426 -0.3146 -0.0160
 8245TIP3    H146150   0.814   4.224  13.272  1.2889  0.3068 -0.0876
 8245TIP3    H246151   0.865   4.270  13.406 -1.0764  0.2899  0.8419
 8246TIP3   OH246152   5.547   2.641  14.085  0.7336 -0.9492  0.6179
 8246TIP3    H146153   5.636   2.628  14.051  0.5917 -2.0137  0.6593
 8246TIP3    H246154   5.557   2.712  14.149  1.3705 -0.3568 -0.1154
 8247TIP3   OH246155   5.106   2.395  11.454 -0.1738 -0.0339  0.1442
 8247TIP3    H146156   5.098   2.448  11.375  0.7564  0.0373  0.0938
 8247TIP3    H246157   5.172   2.440  11.507  0.1985 -0.8184  0.3543
 8248TIP3   OH246158   1.173   2.513   3.833 -0.1690  0.0080  0.0930
 8248TIP3    H146159   1.245   2.560   3.874 -1.5000  2.0591  0.1313
 8248TIP3    H246160   1.197   2.510   3.740  0.5208 -0.3752  0.2772
 8249TIP3   OH246161   3.415   0.881  11.877  0.3073  0.2732 -0.6670
 8249TIP3    H146162   3.430   0.788  11.890  1.0451  0.3174 -1.2163
 8249TIP3    H246163   3.323   0.887  11.851  0.0271 -0.2142  0.1873
 8250TIP3   OH246164   3.851   4.771   5.979  0.6149  0.4229  0.2824
 8250TIP3    H146165   3.914   4.784   6.050 -2.3847 -0.1200  3.1428
 8250TIP3    H246166   3.838   4.676   5.974  0.8163  0.4518 -1.0225
 8251TIP3   OH246167   5.285   4.993   2.280  0.0674  0.1623 -0.1515
 8251TIP3    H146168   5.273   5.061   2.214 -1.8641 -1.6357 -1.7203
 8251TIP3    H246169   5.341   4.928   2.238 -0.6811 -0.7156  0.1898
 8252TIP3   OH246170   4.583   6.049  17.120  0.1624  0.2420  0.6806
 8252TIP3    H146171   4.578   6.139  17.089  0.1915  0.5271  1.4924
 8252TIP3    H246172   4.511   6.004  17.074  0.5988  0.5049 -0.2702
 8253TIP3   OH246173   5.048   3.512  11.811 -0.5698  0.1941  0.3954
 8253TIP3    H146174   4.969   3.536  11.859 -1.4078  0.2000 -0.9424
 8253TIP3    H246175   5.020   3.441  11.753 -0.0922  1.4575 -1.4420
 8254TIP3   OH246176   3.721   2.835   0.343 -0.0638 -0.0244  0.4206
 8254TIP3    H146177   3.743   2.758   0.290  1.6515  1.0618 -0.4534
 8254TIP3    H246178   3.801   2.857   0.389 -0.3817  1.6074  0.2187
 8255TIP3   OH246179   2.707   2.303  17.182 -0.1189 -0.4369 -0.1082
 8255TIP3    H146180   2.717   2.386  17.228  0.9061 -0.1043 -0.9126
 8255TIP3    H246181   2.618   2.275  17.204 -0.7542  1.2352 -0.4244
 8256TIP3   OH246182   5.528   0.209  15.030  0.0668  0.3693 -0.7423
 8256TIP3    H146183   5.454   0.196  15.089  0.7020  0.5473  0.1079
 8256TIP3    H246184   5.494   0.190  14.943 -1.4746  2.2505 -0.5802
 8257TIP3   OH246185   3.497   2.368  14.749  0.1290 -0.0920 -0.3336
 8257TIP3    H146186   3.543   2.405  14.825 -0.2013  1.6017 -0.9195
 8257TIP3    H246187   3.478   2.444  14.695 -3.3186 -0.7507 -0.1295
 8258TIP3   OH246188   4.955   5.638   3.706  0.2143 -0.5169 -0.6268
 8258TIP3    H146189   4.896   5.621   3.633  1.7391 -0.3871 -1.9291
 8258TIP3    H246190   4.975   5.732   3.699 -0.1846 -0.3517  0.3902
 8259TIP3   OH246191   5.520   5.388   5.339  0.6942 -0.0150  0.3314
 8259TIP3    H146192   5.496   5.342   5.258 -0.9508 -1.4607  1.5989
 8259TIP3    H246193   5.444   5.443   5.358  0.7993 -0.1882  1.2542
 8260TIP3   OH246194   6.320   3.880   3.386 -0.1108 -0.5403 -0.0901
 8260TIP3    H146195   6.333   3.847   3.475 -1.2796  0.6998  0.5685
 8260TIP3    H246196   6.237   3.842   3.358 -2.0116  2.5636  1.0769
 8261TIP3   OH246197   0.526   3.594  13.641 -0.1334 -0.0450  0.5858
 8261TIP3    H146198   0.591   3.524  13.636  0.9188  0.7855  2.3652
 8261TIP3    H246199   0.451   3.561  13.591  1.1499 -1.5503 -0.3695
 8262TIP3   OH246200   0.394   4.136   4.752 -0.7077  0.0226 -0.2611
 8262TIP3    H146201   0.299   4.146   4.747 -0.3534  2.8024 -2.6166
 8262TIP3    H246202   0.418   4.096   4.668  0.1947 -0.9562  0.4440
 8263TIP3   OH246203   2.431   6.526   2.338 -0.1710 -0.0087  0.4722
 8263TIP3    H146204   2.472   6.490   2.260 -0.5055 -0.7200  0.6221
 8263TIP3    H246205   2.361   6.582   2.305 -0.7868 -0.8865  0.2747
 8264TIP3   OH246206   5.987   5.449   4.668  0.0094 -0.0829 -0.0712
 8264TIP3    H146207   5.944   5.495   4.596  0.0290 -0.3909 -0.2842
 8264TIP3    H246208   6.071   5.494   4.679  0.3295 -0.5029 -0.7420
 8265TIP3   OH246209   4.409   4.207   3.559 -0.0406 -0.3558  0.0201
 8265TIP3    H146210   4.485   4.262   3.578  0.4115 -0.8394 -0.3692
 8265TIP3    H246211   4.376   4.182   3.645 -0.1195  0.3450  0.1966
 8266TIP3   OH246212   1.167   2.729   4.745 -0.6782 -0.0814  0.0924
 8266TIP3    H146213   1.086   2.762   4.706  0.2535 -0.8593 -2.6138
 8266TIP3    H246214   1.206   2.675   4.677  1.6425 -0.5148  1.7092
 8267TIP3   OH246215   2.764   0.881  16.933  0.1649  0.1520 -0.6991
 8267TIP3    H146216   2.806   0.948  16.879  1.3423  0.1359  0.1800
 8267TIP3    H246217   2.809   0.799  16.909  1.6194  0.3617  1.2632
 8268TIP3   OH246218   1.951   2.129   1.916 -0.2745 -0.0834  0.0339
 8268TIP3    H146219   1.930   2.130   1.823  2.0366 -0.3299 -0.5388
 8268TIP3    H246220   1.897   2.059   1.953 -2.4243  1.1113 -0.7829
 8269TIP3   OH246221   6.601   5.809  12.118 -0.2645  0.5769 -0.3370
 8269TIP3    H146222   6.687   5.839  12.145  0.5432 -1.3660 -0.6369
 8269TIP3    H246223   6.596   5.718  12.149 -1.2086 -0.1344 -2.4520
 8270TIP3   OH246224   0.618   3.083   1.590  0.1158  0.1464  0.2105
 8270TIP3    H146225   0.688   3.089   1.655  0.0863  2.9086  0.0370
 8270TIP3    H246226   0.554   3.024   1.630  0.2651  1.5003  2.5691
 8271TIP3   OH246227   4.810   4.616   1.599 -0.1618  0.0321 -0.3683
 8271TIP3    H146228   4.900   4.585   1.608  0.4437  1.3046 -1.7504
 8271TIP3    H246229   4.816   4.711   1.614 -1.4202  0.0111  0.3726
 8272TIP3   OH246230   4.186   4.940  14.465  0.5987 -0.1440  0.0896
 8272TIP3    H146231   4.268   4.945  14.415 -0.1616 -2.4270 -1.4837
 8272TIP3    H246232   4.206   4.878  14.536  0.5189  0.0523  0.2824
 8273TIP3   OH246233   4.978   3.251  13.954  0.0545 -0.4473 -0.2827
 8273TIP3    H146234   4.953   3.225  13.865  0.1314 -1.0563 -0.1279
 8273TIP3    H246235   4.993   3.169  14.000 -3.3062 -0.2812  1.2856
 8274TIP3   OH246236   5.600   3.203  14.862 -0.2823 -0.8002 -0.2461
 8274TIP3    H146237   5.680   3.218  14.813  1.9833 -1.8367  2.9679
 8274TIP3    H246238   5.543   3.154  14.803  2.2645 -1.8515 -1.8625
 8275TIP3   OH246239   1.098   1.368  11.078 -0.2972 -0.1203 -0.4986
 8275TIP3    H146240   1.150   1.397  11.153 -2.0515 -3.4300  2.1363
 8275TIP3    H246241   1.160   1.317  11.025  0.5281  0.7781 -0.4234
 8276TIP3   OH246242   6.303   2.201  13.137 -0.1903 -0.6907  0.3161
 8276TIP3    H146243   6.288   2.283  13.185  1.7844 -0.0879 -0.0451
 8276TIP3    H246244   6.344   2.143  13.201  0.9153 -0.4561 -0.1744
 8277TIP3   OH246245   1.059   6.577  16.674 -0.0047  0.1150  0.0288
 8277TIP3    H146246   1.122   6.635  16.631  0.6909 -0.8104 -0.2060
 8277TIP3    H246247   1.011   6.634  16.734 -1.1472  1.4878 -2.1162
 8278TIP3   OH246248   1.129   1.687   6.099  0.0517 -0.3181 -0.9908
 8278TIP3    H146249   1.210   1.638   6.085 -0.8338 -1.7533 -1.1587
 8278TIP3    H246250   1.133   1.758   6.034  0.8675 -0.7555 -1.4287
 8279TIP3   OH246251   2.966   1.755  11.807  0.2041  0.2531 -0.3995
 8279TIP3    H146252   3.020   1.680  11.780  0.0016 -0.1352  0.2400
 8279TIP3    H246253   2.966   1.750  11.903 -1.1597  0.1071 -0.4018
 8280TIP3   OH246254   2.477   5.612   4.239 -0.1636  0.1499  0.9313
 8280TIP3    H146255   2.558   5.628   4.190  0.6581 -0.1110  2.1783
 8280TIP3    H246256   2.455   5.522   4.219 -0.7722  0.5521 -0.2902
 8281TIP3   OH246257   5.272   0.659  12.877  0.2874  0.3754 -0.2015
 8281TIP3    H146258   5.305   0.570  12.885  0.0830  0.4465  1.6524
 8281TIP3    H246259   5.240   0.665  12.787 -0.8337 -1.8250  0.0170
 8282TIP3   OH246260   2.750   6.434   2.918 -0.0919 -0.1031 -0.3131
 8282TIP3    H146261   2.823   6.373   2.914 -0.2826 -0.4311  1.0304
 8282TIP3    H246262   2.687   6.400   2.854  0.3535 -0.5746 -0.5040
 8283TIP3   OH246263   5.666   0.495   4.091 -0.4814  0.7643  0.5838
 8283TIP3    H146264   5.762   0.488   4.087 -0.5410  0.6649 -1.4867
 8283TIP3    H246265   5.646   0.502   4.184  1.2720 -3.2341  1.3848
 8284TIP3   OH246266   3.667   5.037  15.890 -0.4759 -0.8542  0.2984
 8284TIP3    H146267   3.745   5.067  15.935 -1.5202 -0.4517  1.8644
 8284TIP3    H246268   3.689   5.044  15.797  1.0828 -0.0754  0.7090
 8285TIP3   OH246269   6.517   1.079  12.495  0.0931  0.2799 -0.5417
 8285TIP3    H146270   6.468   1.001  12.522 -0.7372  0.9705 -0.0178
 8285TIP3    H246271   6.479   1.103  12.411  0.3328  0.1221 -0.6919
 8286TIP3   OH246272   0.859   5.029  11.093  0.2442  0.1355 -0.3835
 8286TIP3    H146273   0.917   5.071  11.157 -0.1352  0.0703  0.0024
 8286TIP3    H246274   0.856   5.091  11.019  0.9157  0.0720 -0.4650
 8287TIP3   OH246275   1.830   5.117   4.658 -0.0102  0.2111  0.0138
 8287TIP3    H146276   1.778   5.045   4.693  1.5378 -0.7114  0.4791
 8287TIP3    H246277   1.806   5.193   4.710 -0.4956 -0.3308  0.5722
 8288TIP3   OH246278   0.661   2.690  12.728  0.5828  0.0546 -0.2454
 8288TIP3    H146279   0.645   2.608  12.776 -1.0759  1.2816  1.4166
 8288TIP3    H246280   0.711   2.743  12.789 -0.2186  1.0699 -0.4575
 8289TIP3   OH246281   6.335   5.747   4.563 -0.1980 -0.1601 -0.1709
 8289TIP3    H146282   6.257   5.802   4.557 -0.4762 -0.7924 -2.7349
 8289TIP3    H246283   6.407   5.804   4.535 -0.1704 -0.4384 -0.6748
 8290TIP3   OH246284   4.122   0.688   1.032 -0.0449 -0.1106 -0.1221
 8290TIP3    H146285   4.208   0.717   1.002  1.4131 -0.5459  3.3926
 8290TIP3    H246286   4.139   0.603   1.074 -2.3363 -0.5792 -0.0763
 8291TIP3   OH246287   6.255   4.527   2.440 -0.7639  0.5195 -0.0421
 8291TIP3    H146288   6.249   4.567   2.353 -0.1439  0.6861 -0.0122
 8291TIP3    H246289   6.169   4.542   2.479 -1.7337 -1.3455 -1.3835
 8292TIP3   OH246290   5.421   2.163   2.085 -0.2870 -0.0281  0.4479
 8292TIP3    H146291   5.470   2.209   2.017 -0.6365 -1.3493 -0.7336
 8292TIP3    H246292   5.435   2.070   2.066 -0.9541 -0.4152  1.7702
 8293TIP3   OH246293   4.766   0.422   1.597 -0.0989 -0.7318  0.3571
 8293TIP3    H146294   4.829   0.408   1.668  0.4520 -0.9403 -0.1696
 8293TIP3    H246295   4.681   0.397   1.635 -0.1614  1.4059  1.6728
 8294TIP3   OH246296   2.689   4.669  13.493 -0.2237 -0.0592  0.2189
 8294TIP3    H146297   2.736   4.705  13.568 -2.7156  0.4320  1.6415
 8294TIP3    H246298   2.666   4.746  13.440 -1.4245 -0.0222  0.7707
 8295TIP3   OH246299   6.746   5.294  13.074 -0.5396 -0.4323 -0.5004
 8295TIP3    H146300   6.712   5.354  13.140  0.6771 -1.4842  1.1388
 8295TIP3    H246301   6.752   5.210  13.120  1.4573 -0.9083 -1.6076
 8296TIP3   OH246302   0.265   5.679   5.037  0.0305  0.4166  0.0372
 8296TIP3    H146303   0.191   5.657   4.982 -0.9920  2.4009  0.5475
 8296TIP3    H246304   0.261   5.617   5.110  0.1657 -0.8681 -1.0460
 8297TIP3   OH246305   5.970   4.409   4.002  0.5048  0.3130  0.5391
 8297TIP3    H146306   5.887   4.373   3.971  0.7113 -0.3507  0.7433
 8297TIP3    H246307   6.032   4.337   3.993  1.2832  1.1181 -0.5446
 8298TIP3   OH246308   5.464   3.884  17.239 -0.0560 -0.0166 -0.4065
 8298TIP3    H146309   5.374   3.852  17.237 -0.1758  0.3502 -0.8920
 8298TIP3    H246310   5.462   3.954  17.304 -0.2343  0.3260 -0.7789
 8299TIP3   OH246311   3.377   0.922  17.162 -0.3536 -0.4818 -0.0375
 8299TIP3    H146312   3.412   0.919  17.251 -0.8203  0.8921  0.1970
 8299TIP3    H246313   3.289   0.885  17.169 -0.0230 -1.3051 -0.1242
 8300TIP3   OH246314   6.153   3.295   6.565  0.7928  0.4990  0.0325
 8300TIP3    H146315   6.199   3.224   6.610  0.1783  0.7835  1.1531
 8300TIP3    H246316   6.099   3.251   6.500 -1.4113 -0.3217  2.3084
 8301TIP3   OH246317   0.819   2.973   6.290  0.1736  0.2850  0.1582
 8301TIP3    H146318   0.801   3.060   6.325 -0.3289  0.1487  0.2432
 8301TIP3    H246319   0.902   2.947   6.330  0.0662  0.5151  0.5265
 8302TIP3   OH246320   2.227   3.260   4.731  0.1739  0.5053  0.0650
 8302TIP3    H146321   2.142   3.231   4.763 -0.3896  1.7160 -0.2922
 8302TIP3    H246322   2.210   3.347   4.694  1.7510  1.1839  0.8945
 8303TIP3   OH246323   5.757   2.503   4.667 -0.6380 -0.8323 -0.0905
 8303TIP3    H146324   5.764   2.408   4.683 -2.8322 -1.1987 -1.1657
 8303TIP3    H246325   5.815   2.542   4.733  3.2465 -3.0375 -1.9780
 8304TIP3   OH246326   3.254   3.425   1.884  0.0725  0.4350 -0.3418
 8304TIP3    H146327   3.331   3.381   1.920 -0.3411 -0.1006 -0.1080
 8304TIP3    H246328   3.290   3.492   1.826  0.7372  0.8852  0.5649
 8305TIP3   OH246329   6.417   6.545   0.131 -0.1699  0.0692  0.2074
 8305TIP3    H146330   6.512   6.548   0.119 -0.1522  1.2019  0.5519
 8305TIP3    H246331   6.398   6.453   0.150  0.9902  0.0172  1.1805
 8306TIP3   OH246332   5.212   4.375   3.348 -0.2211 -0.2928  0.0603
 8306TIP3    H146333   5.276   4.399   3.281 -0.9603  0.3173 -0.4373
 8306TIP3    H246334   5.227   4.438   3.418 -0.4477  0.0145 -0.1654
 8307TIP3   OH246335   4.102   6.709  12.860  0.2638 -0.2544 -0.6927
 8307TIP3    H146336   4.133   6.688  12.948  0.5693 -0.9983 -0.9755
 8307TIP3    H246337   4.174   6.759  12.821  1.0116 -1.7234 -1.2425
 8308TIP3   OH246338   0.466   6.126  11.035 -0.0644 -0.4038  0.3463
 8308TIP3    H146339   0.424   6.043  11.062 -1.0470  0.1666  0.6091
 8308TIP3    H246340   0.422   6.193  11.088  0.6062  0.3072  0.0068
 8309TIP3   OH246341   2.031   5.257   0.371  0.2142 -0.3369  0.1228
 8309TIP3    H146342   2.012   5.163   0.381 -1.7659 -0.0183 -0.3882
 8309TIP3    H246343   1.945   5.299   0.376  0.8918  1.2821 -1.4472
 8310TIP3   OH246344   5.770   1.390  11.197 -0.7490  0.3779  0.1078
 8310TIP3    H146345   5.687   1.394  11.150 -0.2251 -1.6277 -1.0310
 8310TIP3    H246346   5.836   1.382  11.129  0.2063 -0.1593  1.0739
 8311TIP3   OH246347   6.506   4.126   1.915 -0.3287 -0.0201 -0.1313
 8311TIP3    H146348   6.569   4.176   1.862  0.0913 -0.0366  0.3469
 8311TIP3    H246349   6.554   4.105   1.995 -0.8780 -0.2191  0.1473
 8312TIP3   OH246350   1.096   0.600  12.133 -0.3958 -0.0382 -0.3809
 8312TIP3    H146351   1.160   0.604  12.204  1.5265 -0.1050 -2.0567
 8312TIP3    H246352   1.106   0.684  12.088  0.2569 -1.0256 -2.1164
 8313TIP3   OH246353   4.195   6.474  13.082  0.1881 -0.6875  0.4215
 8313TIP3    H146354   4.283   6.469  13.044 -0.0426  3.5643 -0.9839
 8313TIP3    H246355   4.137   6.449  13.010  0.1114 -0.6244  0.4624
 8314TIP3   OH246356   1.988   1.968  17.175 -0.3439 -0.3170 -0.2923
 8314TIP3    H146357   2.028   1.952  17.090 -0.3287  0.0629 -0.3562
 8314TIP3    H246358   1.898   1.994  17.155  0.0327  1.0426 -0.2620
 8315TIP3   OH246359   3.045   6.134  13.189 -0.1756  0.5296  0.5612
 8315TIP3    H146360   3.097   6.061  13.155  0.9931  1.5076  0.2171
 8315TIP3    H246361   2.983   6.093  13.251  0.2273 -0.7817  0.1098
 8316TIP3   OH246362   6.336   1.060  13.793  0.2996  0.0680  0.4022
 8316TIP3    H146363   6.332   1.151  13.821  0.1495  0.7836 -1.8548
 8316TIP3    H246364   6.407   1.057  13.728  0.5259 -1.4842  0.7014
 8317TIP3   OH246365   2.250   5.589   0.600  0.3020 -0.0975 -0.1280
 8317TIP3    H146366   2.187   5.577   0.529  0.3657  1.1102 -0.4069
 8317TIP3    H246367   2.304   5.510   0.599  0.8779  0.3174 -2.0139
 8318TIP3   OH246368   4.274   5.450  15.842  0.1789  0.7933  0.6890
 8318TIP3    H146369   4.190   5.405  15.856 -0.0713  1.5286  1.6671
 8318TIP3    H246370   4.252   5.543  15.846  0.5615  1.0397 -2.1251
 8319TIP3   OH246371   5.628   3.467   1.125  0.4733 -0.1488 -0.6517
 8319TIP3    H146372   5.718   3.459   1.095  0.9676 -1.2093  1.0361
 8319TIP3    H246373   5.608   3.560   1.117  2.2860  0.3546  0.5123
 8320TIP3   OH246374   3.285   5.555  11.381  0.0086  0.0922  0.4427
 8320TIP3    H146375   3.374   5.583  11.358  0.3907 -1.1902  0.3499
 8320TIP3    H246376   3.297   5.477  11.435 -1.0739 -0.3574  0.0504
 8321TIP3   OH246377   4.860   1.276   4.531  0.2405 -0.1532  0.7604
 8321TIP3    H146378   4.807   1.204   4.564  0.3943  0.7932  3.1762
 8321TIP3    H246379   4.799   1.349   4.523  0.6657  0.2388  1.0873
 8322TIP3   OH246380   2.463   0.504   0.655  0.0248  0.3746  0.3769
 8322TIP3    H146381   2.506   0.589   0.641  0.6569 -0.3166 -2.1337
 8322TIP3    H246382   2.407   0.518   0.731  1.5413  2.4996  1.1561
 8323TIP3   OH246383   1.226   1.029  16.808 -0.2017  0.0096  0.0390
 8323TIP3    H146384   1.179   1.109  16.784 -0.2212  0.2733  0.9646
 8323TIP3    H246385   1.171   0.987  16.874 -0.0669 -0.6406 -0.2588
 8324TIP3   OH246386   2.595   2.978  15.491 -0.4462  0.2571  0.6608
 8324TIP3    H146387   2.516   2.928  15.511 -0.9565  0.3309 -1.0811
 8324TIP3    H246388   2.563   3.065  15.467  0.3069  0.8748  1.8599
 8325TIP3   OH246389   1.886   6.162   3.226  0.2118 -0.1122  0.0312
 8325TIP3    H146390   1.968   6.204   3.253  0.1867  2.1336 -3.0711
 8325TIP3    H246391   1.817   6.220   3.259 -0.0196 -0.3652 -0.0026
 8326TIP3   OH246392   0.359   6.352   2.466  0.8072 -0.1464  0.3141
 8326TIP3    H146393   0.354   6.395   2.551  0.0007  0.3864  0.0006
 8326TIP3    H246394   0.270   6.357   2.430  0.8189 -1.5915  0.0343
 8327TIP3   OH246395   1.720   5.121   0.707 -0.1617  0.4432  0.0943
 8327TIP3    H146396   1.794   5.166   0.749  0.1315  3.6875 -3.5330
 8327TIP3    H246397   1.645   5.139   0.763  1.4267 -1.4620  2.9397
 8328TIP3   OH246398   2.076   3.663   3.546  0.4488 -0.0292  0.3752
 8328TIP3    H146399   2.101   3.604   3.616 -1.0421 -0.3418  0.6554
 8328TIP3    H246400   2.132   3.638   3.472  0.6597 -0.9801  0.8538
 8329TIP3   OH246401   4.460   4.808   0.563 -0.1997  0.0737  0.2778
 8329TIP3    H146402   4.511   4.777   0.638 -0.1928  3.2453  1.6764
 8329TIP3    H246403   4.454   4.903   0.576 -3.2354  0.2424 -1.8722
 8330TIP3   OH246404   3.309   1.993   4.391  0.5382  0.6181 -0.6573
 8330TIP3    H146405   3.279   1.921   4.446  0.3771  1.1484 -0.0457
 8330TIP3    H246406   3.393   2.018   4.428  1.0711  0.0962 -1.4811
 8331TIP3   OH246407   5.396   4.640  14.191 -0.4772  0.1734  0.0166
 8331TIP3    H146408   5.313   4.595  14.174  0.6168 -1.4572 -1.0417
 8331TIP3    H246409   5.400   4.709  14.124 -0.0811 -0.9660 -1.1439
 8332TIP3   OH246410   0.907   4.288   4.141  0.4337  0.0379 -0.2809
 8332TIP3    H146411   0.921   4.355   4.207 -0.9215 -0.6345  0.7147
 8332TIP3    H246412   0.981   4.297   4.081 -0.0326  2.8176 -0.4993
 8333TIP3   OH246413   1.777   1.071  15.818  0.7684 -0.2175  0.0639
 8333TIP3    H146414   1.858   1.121  15.831  0.0977  1.1394 -0.9004
 8333TIP3    H246415   1.749   1.092  15.729 -1.5666  0.6956  0.9647
 8334TIP3   OH246416   4.612   1.664  12.886  0.5089  0.4325 -0.2881
 8334TIP3    H146417   4.543   1.728  12.901 -0.6949 -0.7382 -0.7695
 8334TIP3    H246418   4.683   1.715  12.845  0.5755  1.9461  1.6135
 8335TIP3   OH246419   0.865   1.479  15.709 -0.5056  0.1997 -0.1355
 8335TIP3    H146420   0.875   1.412  15.642  2.0563  0.3625  0.0239
 8335TIP3    H246421   0.910   1.443  15.786 -1.0866  1.1462  0.6649
 8336TIP3   OH246422   3.993   5.659  16.097 -0.4495  0.4831  0.3715
 8336TIP3    H146423   3.913   5.613  16.121  0.5055 -1.7588 -0.5798
 8336TIP3    H246424   4.059   5.589  16.091  0.9567  1.9399 -1.5098
 8337TIP3   OH246425   4.875   2.564   4.450  0.8551 -0.1481 -0.4485
 8337TIP3    H146426   4.869   2.470   4.433 -0.6896  0.0288 -0.9795
 8337TIP3    H246427   4.865   2.605   4.364  0.9812  0.5098 -0.1557
 8338TIP3   OH246428   3.230   6.186   3.933  0.6448 -0.4931  0.1023
 8338TIP3    H146429   3.188   6.209   3.850 -0.0870  0.2987  0.6872
 8338TIP3    H246430   3.205   6.095   3.948  0.0104 -0.3536 -0.0886
 8339TIP3   OH246431   1.808   4.817   3.274  0.4587  0.0201 -0.3223
 8339TIP3    H146432   1.745   4.881   3.306  0.7951  0.2153 -0.0436
 8339TIP3    H246433   1.775   4.792   3.187 -2.0490 -2.6787  1.3121
 8340TIP3   OH246434   6.601   3.432   3.306  0.8587  0.4665  0.1415
 8340TIP3    H146435   6.668   3.441   3.374 -0.0409  1.0700  0.9489
 8340TIP3    H246436   6.521   3.465   3.346  0.0153 -0.4610 -0.7447
 8341TIP3   OH246437   3.991   5.621  13.205 -0.0877  0.0465  0.7418
 8341TIP3    H146438   3.906   5.585  13.179 -0.2600  1.7981 -1.2694
 8341TIP3    H246439   4.054   5.566  13.160 -0.2136 -0.1486  0.8026
 8342TIP3   OH246440   5.271   4.977   4.272  0.2090  0.0504 -0.2312
 8342TIP3    H146441   5.210   4.998   4.343  0.9350 -0.6383  0.6002
 8342TIP3    H246442   5.216   4.978   4.193 -0.5599  1.0078  0.3035
 8343TIP3   OH246443   1.718   5.664  12.490 -0.6883 -0.7995  0.0275
 8343TIP3    H146444   1.652   5.723  12.528 -0.8975 -0.1320 -1.3470
 8343TIP3    H246445   1.718   5.685  12.397  1.0557 -1.2063 -0.0797
 8344TIP3   OH246446   0.011   1.591   0.888  0.1350 -0.3097 -0.8371
 8344TIP3    H146447   0.012   1.562   0.797  0.5892  1.6505 -1.4664
 8344TIP3    H246448  -0.037   1.674   0.887 -2.1609 -1.5196  1.1228
 8345TIP3   OH246449   6.481   1.871   4.933 -1.0699  0.9998 -0.1666
 8345TIP3    H146450   6.455   1.948   4.982  1.3329  1.0247  1.1649
 8345TIP3    H246451   6.513   1.905   4.850 -0.6455  1.3864  0.1540
 8346TIP3   OH246452   0.057   5.274   0.346 -0.2544 -0.0749  0.4390
 8346TIP3    H146453   0.031   5.237   0.430 -0.8381 -0.8991 -0.1051
 8346TIP3    H246454  -0.026   5.292   0.301 -0.0159  2.1955  0.8082
 8347TIP3   OH246455   6.012   2.471   4.120  0.0044  0.0331  0.0305
 8347TIP3    H146456   6.075   2.535   4.085  0.1510 -0.3774 -0.4575
 8347TIP3    H246457   6.020   2.481   4.215  0.8568 -0.0555 -0.0246
 8348TIP3   OH246458   3.603   3.093  14.184  0.1544 -0.2874 -0.0132
 8348TIP3    H146459   3.670   3.025  14.196  1.2468  0.7720  0.0592
 8348TIP3    H246460   3.572   3.112  14.272 -1.2232 -1.7391 -0.1783
 8349TIP3   OH246461   3.761   1.757   1.179 -0.0670  0.3985 -0.6118
 8349TIP3    H146462   3.792   1.775   1.268 -1.6414 -0.4947  0.1245
 8349TIP3    H246463   3.724   1.841   1.150  1.6868  1.0733 -0.9598
 8350TIP3   OH246464   3.828   5.206   2.058  0.1990 -0.2218  0.1070
 8350TIP3    H146465   3.899   5.217   2.121  0.3882 -3.6912  0.5909
 8350TIP3    H246466   3.751   5.187   2.111 -0.7374  1.6900 -0.5180
 8351TIP3   OH246467   6.479   1.714   4.296 -0.2916  0.1481  0.1802
 8351TIP3    H146468   6.408   1.723   4.233  0.8250 -0.3370 -1.1603
 8351TIP3    H246469   6.459   1.632   4.342 -0.8535  0.2640  0.1527
 8352TIP3   OH246470   5.907   1.634   2.537 -0.2959  0.6784  0.0816
 8352TIP3    H146471   5.859   1.653   2.617 -2.7725  0.5914 -1.3194
 8352TIP3    H246472   5.859   1.682   2.469  1.1684 -0.0339 -1.4899
 8353TIP3   OH246473   0.422   5.268   3.829  0.4729  0.6056 -0.0256
 8353TIP3    H146474   0.373   5.318   3.894  0.1340  0.1425  0.0747
 8353TIP3    H246475   0.355   5.218   3.782  1.1642 -3.0185  2.6383
 8354TIP3   OH246476   6.132   0.914  17.118 -0.0872  0.1770  0.0715
 8354TIP3    H146477   6.203   0.901  17.055  0.3935 -0.6977  0.7733
 8354TIP3    H246478   6.146   1.002  17.153  0.7912 -0.0722  0.3579
 8355TIP3   OH246479   5.697   6.394   1.569 -0.3604 -0.2146 -0.0434
 8355TIP3    H146480   5.614   6.432   1.598 -0.0375 -0.4498  1.1998
 8355TIP3    H246481   5.672   6.316   1.519 -0.8845 -0.3698  0.4584
 8356TIP3   OH246482   5.315   5.185  14.732 -0.2124  0.3530 -0.3907
 8356TIP3    H146483   5.302   5.278  14.717  1.1117  0.8107  1.1574
 8356TIP3    H246484   5.253   5.163  14.802 -1.2941 -0.1963 -1.4874
 8357TIP3   OH246485   5.905   3.672   2.192  0.5309  0.6242 -0.3230
 8357TIP3    H146486   5.907   3.611   2.118  0.5770 -1.3152  1.2262
 8357TIP3    H246487   5.831   3.730   2.174 -2.1288 -2.4817  0.1144
 8358TIP3   OH246488   2.679   2.006  14.409 -0.7789 -0.1669 -0.6937
 8358TIP3    H146489   2.608   2.062  14.439 -1.0322 -0.2876 -1.0748
 8358TIP3    H246490   2.758   2.044  14.449 -1.0255  0.0948 -0.4550
 8359TIP3   OH246491   3.399   3.443  14.223  0.3644  0.0483  0.4202
 8359TIP3    H146492   3.308   3.461  14.200  0.7619 -1.0266 -2.1910
 8359TIP3    H246493   3.430   3.523  14.265 -1.1109  1.2692 -0.7710
 8360TIP3   OH246494   6.031   0.573  16.549  0.3127 -0.1489  0.3577
 8360TIP3    H146495   5.960   0.525  16.591 -1.0117  1.6535  0.2032
 8360TIP3    H246496   5.993   0.609  16.469  1.6381  0.1257 -0.1731
 8361TIP3   OH246497   2.229   5.449   1.373  0.4446  0.7392 -0.0991
 8361TIP3    H146498   2.164   5.389   1.336 -0.4300  1.6487 -0.0472
 8361TIP3    H246499   2.310   5.397   1.377  0.1910  0.1648 -1.9051
 8362TIP3   OH246500   2.817   2.204   2.504 -0.5066  0.4162 -0.1095
 8362TIP3    H146501   2.871   2.233   2.430  0.6801 -0.1005  0.5485
 8362TIP3    H246502   2.874   2.147   2.555 -1.1578  1.1647  1.4907
 8363TIP3   OH246503   2.817   3.003   6.189  0.1699 -0.0490 -0.2372
 8363TIP3    H146504   2.809   2.946   6.265 -0.7019 -0.4617 -0.6344
 8363TIP3    H246505   2.884   2.961   6.135  0.6611  0.1497  0.2124
 8364TIP3   OH246506   5.375   3.513  13.283 -0.2631  0.2272  0.0962
 8364TIP3    H146507   5.281   3.499  13.297 -0.0906 -0.6440  0.3578
 8364TIP3    H246508   5.392   3.599  13.322 -1.1672  0.8817 -0.9015
 8365TIP3   OH246509   3.802   3.108   6.687 -0.1304 -0.3905 -0.4143
 8365TIP3    H146510   3.890   3.078   6.707 -0.2529 -1.1737 -1.0405
 8365TIP3    H246511   3.759   3.033   6.646 -1.5160 -0.4531  1.1117
 8366TIP3   OH246512   3.189   0.010  16.228  0.8164  0.0804 -0.0661
 8366TIP3    H146513   3.101  -0.012  16.196  0.0638  1.3968  1.0665
 8366TIP3    H246514   3.193  -0.029  16.315  1.0339  0.7455  0.2245
 8367TIP3   OH246515   6.164   2.457  16.349 -0.0332  0.8858 -0.5077
 8367TIP3    H146516   6.192   2.545  16.324 -1.4830  1.0137 -1.7075
 8367TIP3    H246517   6.075   2.448  16.314 -0.2045 -0.7732  0.2745
 8368TIP3   OH246518   1.375   1.856  14.152 -0.0452  0.1123 -0.3176
 8368TIP3    H146519   1.460   1.822  14.179 -0.8118 -2.2786 -0.8072
 8368TIP3    H246520   1.362   1.823  14.064 -1.1625  1.0695 -0.5216
 8369TIP3   OH246521   1.560   0.778  13.875  0.3852 -0.0810 -0.2526
 8369TIP3    H146522   1.557   0.864  13.917 -0.5634 -1.0616  1.7455
 8369TIP3    H246523   1.550   0.797  13.781 -0.6889  1.9272  0.2289
 8370TIP3   OH246524   0.548   0.471  11.715  0.2821 -0.2206  0.1368
 8370TIP3    H146525   0.457   0.441  11.710 -0.2327  1.4289 -1.2389
 8370TIP3    H246526   0.545   0.547  11.773  0.5627  0.5585 -0.8555
 8371TIP3   OH246527   0.995   3.050  13.257 -0.0407  0.3380 -0.1738
 8371TIP3    H146528   0.902   3.039  13.235  0.4411 -1.0259 -1.5699
 8371TIP3    H246529   1.030   3.104  13.186  0.4040  0.2465 -0.0217
 8372TIP3   OH246530   0.915   6.074  10.832  0.0120 -0.3257 -0.1986
 8372TIP3    H146531   0.981   6.006  10.813  0.5165 -0.4301  1.7392
 8372TIP3    H246532   0.836   6.025  10.854  0.6208 -0.3772  2.0847
 8373TIP3   OH246533   4.154   5.813   4.017  0.3606  0.0978  0.5513
 8373TIP3    H146534   4.105   5.758   3.955  0.6226  1.0907 -0.5693
 8373TIP3    H246535   4.104   5.807   4.098  0.2860 -1.6372  0.4023
 8374TIP3   OH246536   5.264   5.223   3.849  0.3046  0.2722 -0.1852
 8374TIP3    H146537   5.280   5.130   3.862  1.1314  0.5585  0.9421
 8374TIP3    H246538   5.347   5.265   3.874  0.7085  1.1406 -2.8568
 8375TIP3   OH246539   1.679   6.282  16.596  0.7399  0.0969 -0.0883
 8375TIP3    H146540   1.638   6.366  16.617 -1.6656 -1.1234  0.3810
 8375TIP3    H246541   1.773   6.297  16.605  0.4494  3.1308 -1.5041
 8376TIP3   OH246542   5.120   3.549   2.300  0.1079 -0.1783  0.3155
 8376TIP3    H146543   5.028   3.529   2.312  0.5603 -1.7353  1.3499
 8376TIP3    H246544   5.145   3.596   2.379 -0.0825  1.3340 -0.5102
 8377TIP3   OH246545   1.933   4.857   5.833  0.1693 -0.0292  0.2348
 8377TIP3    H146546   1.930   4.770   5.795  1.4674 -0.2429  0.5895
 8377TIP3    H246547   1.847   4.869   5.874 -0.0659 -1.0737  0.0480
 8378TIP3   OH246548   4.638   1.424  13.872  0.3504 -0.2385 -0.7284
 8378TIP3    H146549   4.617   1.424  13.778 -0.5033  0.1014 -0.5452
 8378TIP3    H246550   4.687   1.343  13.885  1.0011  0.0098 -1.5818
 8379TIP3   OH246551   3.118   5.158   3.522  0.0283 -0.8409 -0.6300
 8379TIP3    H146552   3.202   5.130   3.560 -0.6695 -0.7914  0.9888
 8379TIP3    H246553   3.060   5.168   3.598 -1.1165  0.2341 -1.6386
 8380TIP3   OH246554   6.643   3.664   6.661 -0.3327 -0.6515 -0.0952
 8380TIP3    H146555   6.646   3.569   6.673 -1.3755 -0.6194  0.4625
 8380TIP3    H246556   6.734   3.688   6.644  0.2003 -1.5530  1.3525
 8381TIP3   OH246557   2.636   0.030   6.381 -0.1281 -0.0423 -0.0732
 8381TIP3    H146558   2.541   0.045   6.390 -0.3056 -0.6151 -0.9062
 8381TIP3    H246559   2.674   0.118   6.387 -0.7054  0.1833  0.3672
 8382TIP3   OH246560   1.003   4.027  17.181 -0.5970  0.0441  0.5876
 8382TIP3    H146561   1.098   4.029  17.192 -0.4806 -0.9354 -0.1661
 8382TIP3    H246562   0.988   3.958  17.116 -1.5749  2.3149 -1.7108
 8383TIP3   OH246563   3.031   4.446  13.226 -0.2560  0.0587  0.1054
 8383TIP3    H146564   3.063   4.458  13.316  1.0519 -0.4749 -0.2765
 8383TIP3    H246565   2.956   4.505  13.220 -0.5953 -0.1706  1.6627
 8384TIP3   OH246566   5.322   0.096  11.267  0.1396  0.5074 -0.6015
 8384TIP3    H146567   5.373   0.110  11.347 -0.1156  1.6376 -0.6244
 8384TIP3    H246568   5.326   0.001  11.252  0.6623  0.3578  0.4305
 8385TIP3   OH246569   0.671   3.217   4.533  0.5928 -0.1750  0.0445
 8385TIP3    H146570   0.688   3.146   4.471  1.3936  1.3867 -1.5676
 8385TIP3    H246571   0.739   3.281   4.515  0.0987  0.8567  1.7331
 8386TIP3   OH246572   3.253   3.688   4.859 -0.1770 -0.1855 -0.3554
 8386TIP3    H146573   3.202   3.711   4.782 -0.1729 -0.9127 -0.5806
 8386TIP3    H246574   3.230   3.754   4.924 -0.2957  0.3392 -0.9259
 8387TIP3   OH246575   0.183   1.083  14.161  0.1501  0.8849  0.9640
 8387TIP3    H146576   0.262   1.127  14.193  0.8263  0.6560 -0.3271
 8387TIP3    H246577   0.180   1.000  14.208  0.0540  1.3869  1.8440
 8388TIP3   OH246578   0.042   0.633  13.784  0.0238  0.5261 -0.3841
 8388TIP3    H146579   0.095   0.645  13.705  0.0712  0.3624 -0.3757
 8388TIP3    H246580   0.079   0.556  13.826  1.5044  1.9311  0.9816
 8389TIP3   OH246581   3.914   0.768  10.498 -0.1832  0.2836 -0.1714
 8389TIP3    H146582   3.955   0.697  10.546  0.4026  0.6168 -0.1699
 8389TIP3    H246583   3.908   0.736  10.408  3.0550  1.4148 -0.8875
 8390TIP3   OH246584   3.850   2.186   1.236  0.2495 -0.1196 -0.4040
 8390TIP3    H146585   3.832   2.196   1.330  2.2045  1.9043 -0.2035
 8390TIP3    H246586   3.936   2.143   1.233 -0.3234 -1.2209 -1.2876
 8391TIP3   OH246587   2.137   3.072   1.274  0.3567  0.1967 -0.5760
 8391TIP3    H146588   2.096   3.142   1.223 -0.3569  0.6921  0.6680
 8391TIP3    H246589   2.227   3.102   1.286 -0.2962  1.5816  1.1139
 8392TIP3   OH246590   0.231   6.009  11.192 -0.3437  0.1584  0.1942
 8392TIP3    H146591   0.251   6.031  11.283 -1.1253 -1.1098  0.6785
 8392TIP3    H246592   0.145   5.967  11.195 -0.1059 -0.4506 -1.0495
 8393TIP3   OH246593   1.441   4.935   3.764 -0.1098  0.2633 -0.1468
 8393TIP3    H146594   1.354   4.895   3.763  0.0126 -0.0267  0.4621
 8393TIP3    H246595   1.428   5.021   3.725 -0.8154  0.4900  0.5602
 8394TIP3   OH246596   4.862   4.692   3.695  0.2029 -0.1057 -0.7231
 8394TIP3    H146597   4.871   4.749   3.772 -3.2346 -0.3391 -0.0654
 8394TIP3    H246598   4.839   4.752   3.624  3.2168  0.0880 -1.6145
 8395TIP3   OH246599   4.563   0.788  14.780  0.0092 -0.4622  0.1687
 8395TIP3    H146600   4.572   0.706  14.732 -2.3861 -0.3518 -0.5642
 8395TIP3    H246601   4.629   0.846  14.743 -0.1465 -1.1832 -1.2681
 8396TIP3   OH246602   4.649   6.430  12.427  0.1590  0.6994 -0.1264
 8396TIP3    H146603   4.674   6.457  12.339  0.0877  1.5032  0.0941
 8396TIP3    H246604   4.724   6.454  12.482 -0.1186  0.9254  0.1565
 8397TIP3   OH246605   2.323   2.151   2.554  0.0764 -0.1436 -0.3533
 8397TIP3    H146606   2.384   2.078   2.566  0.1387 -0.1220 -0.5333
 8397TIP3    H246607   2.377   2.220   2.515 -0.3158 -0.4997 -1.5414
 8398TIP3   OH246608   3.667   3.289   0.821 -0.2475  0.2047 -0.1526
 8398TIP3    H146609   3.738   3.333   0.773 -0.0202  0.9708  0.8730
 8398TIP3    H246610   3.687   3.195   0.812 -0.2543  0.3320 -1.6178
 8399TIP3   OH246611   5.660   6.200   3.324  0.3624 -0.0386 -0.0382
 8399TIP3    H146612   5.663   6.119   3.271 -2.6768 -0.7449  0.8043
 8399TIP3    H246613   5.639   6.269   3.261  2.7100  0.1019 -0.7177
 8400TIP3   OH246614   0.376   1.496  14.460  0.1996  0.0885  0.2404
 8400TIP3    H146615   0.466   1.514  14.487  0.5291 -0.8565 -0.2006
 8400TIP3    H246616   0.349   1.574  14.412  1.0029  0.1125 -0.1800
 8401TIP3   OH246617   4.346   3.907  10.886 -0.0082  0.1019 -0.0730
 8401TIP3    H146618   4.327   3.988  10.839  2.4217  0.2572 -0.8649
 8401TIP3    H246619   4.351   3.841  10.817  3.0942  0.2416 -0.0527
 8402TIP3   OH246620   1.091   3.032   5.215  0.3517 -0.1674 -0.2638
 8402TIP3    H146621   1.031   2.970   5.255  0.5090 -0.8467 -1.0797
 8402TIP3    H246622   1.174   3.017   5.260  0.0734  0.3506  0.4372
 8403TIP3   OH246623   3.983   2.732  11.265  0.0132 -0.1217  0.5967
 8403TIP3    H146624   4.076   2.725  11.243  0.3145 -0.7021  2.0167
 8403TIP3    H246625   3.981   2.731  11.361 -1.4469 -0.0257  0.5705
 8404TIP3   OH246626   3.301   4.528   3.297  0.8012  0.3824 -0.1971
 8404TIP3    H146627   3.333   4.575   3.375 -0.3757 -0.5026  0.8348
 8404TIP3    H246628   3.366   4.459   3.283 -0.3325 -1.0769  1.5737
 8405TIP3   OH246629   3.360   0.847  12.310 -0.1937 -0.2568 -0.0611
 8405TIP3    H146630   3.294   0.867  12.376  0.8303  0.1608  0.8605
 8405TIP3    H246631   3.342   0.908  12.238  0.8923  1.8232  1.3694
 8406TIP3   OH246632   1.604   5.280  11.691  0.0514  0.1338  0.7529
 8406TIP3    H146633   1.611   5.255  11.599  0.0813 -1.1545  1.1015
 8406TIP3    H246634   1.523   5.331  11.696  0.5606  1.0531 -0.1620
 8407TIP3   OH246635   1.523   3.621   5.195 -0.0959  0.1705  0.0157
 8407TIP3    H146636   1.441   3.647   5.238 -1.3201 -1.3319 -1.3524
 8407TIP3    H246637   1.526   3.526   5.206  0.9755  0.1026 -0.8105
 8408TIP3   OH246638   5.724   5.447  10.997  0.2012 -0.6305 -0.3388
 8408TIP3    H146639   5.700   5.363  10.958 -1.8426  0.3018 -1.1488
 8408TIP3    H246640   5.778   5.490  10.931 -1.7654  0.1904 -1.4522
 8409TIP3   OH246641   0.568   0.241  13.464  0.3174  0.4607 -0.6400
 8409TIP3    H146642   0.546   0.334  13.470  1.4523  0.7072 -0.2876
 8409TIP3    H246643   0.515   0.209  13.390  0.1870  1.4537 -0.9853
 8410TIP3   OH246644   6.256   0.368  12.387  0.2080 -0.3985 -0.7420
 8410TIP3    H146645   6.266   0.333  12.475  1.1970 -0.5997 -0.9275
 8410TIP3    H246646   6.249   0.290  12.331  0.8710 -0.2924 -0.9785
 8411TIP3   OH246647   2.047   1.157   2.952 -0.2260  0.0264 -0.5823
 8411TIP3    H146648   2.011   1.099   3.020  1.3180 -2.2003 -1.5885
 8411TIP3    H246649   2.129   1.189   2.989 -0.8097  1.1867 -0.2532
 8412TIP3   OH246650   3.796   2.588  11.795 -0.2651 -0.3003  0.0922
 8412TIP3    H146651   3.809   2.682  11.806  1.1860 -0.3323 -1.1171
 8412TIP3    H246652   3.710   2.581  11.754  0.3354  0.6248 -1.3813
 8413TIP3   OH246653   0.332   2.514  13.161 -0.2905 -0.2705 -0.1059
 8413TIP3    H146654   0.375   2.445  13.212  0.0841  0.3707  0.4536
 8413TIP3    H246655   0.403   2.570  13.130 -0.4947 -0.7885 -1.5582
 8414TIP3   OH246656   4.569   0.723  16.748  0.3303 -0.3866 -0.2144
 8414TIP3    H146657   4.631   0.711  16.675  0.0745  0.7366 -0.6166
 8414TIP3    H246658   4.541   0.814  16.742 -0.1247 -0.4372  0.9622
 8415TIP3   OH246659   5.517   0.080   0.003 -0.0293 -0.6530  0.5093
 8415TIP3    H146660   5.602   0.122  -0.011 -0.4134  0.2844  0.9450
 8415TIP3    H246661   5.535  -0.014  -0.005  1.0920 -0.4728  0.8606
 8416TIP3   OH246662   0.714   6.119   6.379 -0.0915  0.2674  0.0749
 8416TIP3    H146663   0.669   6.047   6.334 -0.0574  1.0427 -1.2284
 8416TIP3    H246664   0.663   6.196   6.356  0.0127  0.6957  1.2786
 8417TIP3   OH246665   2.399   5.290  15.772 -0.0984 -0.0911 -0.2007
 8417TIP3    H146666   2.309   5.264  15.791 -0.9486 -0.3773 -4.2829
 8417TIP3    H246667   2.399   5.385  15.781 -0.7794 -0.0958 -0.1896
 8418TIP3   OH246668   0.213   3.792  16.179 -0.3061  0.2217 -0.0104
 8418TIP3    H146669   0.140   3.734  16.154 -0.4311  0.5303 -0.3769
 8418TIP3    H246670   0.185   3.832  16.261  0.8260 -2.0779  1.5334
 8419TIP3   OH246671   0.602   0.574  11.429 -0.0794  0.1521 -0.5670
 8419TIP3    H146672   0.620   0.641  11.495 -1.3628 -0.8382  0.7997
 8419TIP3    H246673   0.508   0.560  11.433  0.2385 -2.1032 -0.4749
 8420TIP3   OH246674   0.658   5.363  14.293 -0.7861  0.5852 -0.0669
 8420TIP3    H146675   0.625   5.276  14.270 -1.0571  0.7121 -0.1543
 8420TIP3    H246676   0.730   5.346  14.354 -2.2090  0.3874  1.5896
 8421TIP3   OH246677   3.147   0.631   3.262  0.1664  0.0765 -0.1807
 8421TIP3    H146678   3.162   0.677   3.345 -0.3427 -0.3013  0.1225
 8421TIP3    H246679   3.214   0.666   3.203  1.3811 -0.6098  0.7716
 8422TIP3   OH246680   5.457   0.930  11.159  0.0053  0.0211  0.0782
 8422TIP3    H146681   5.475   0.883  11.078  1.5347 -0.6490  0.7712
 8422TIP3    H246682   5.487   1.019  11.143  2.7127 -0.7250  0.7203
 8423TIP3   OH246683   1.644   0.670  13.232  0.2123  0.4848 -0.0182
 8423TIP3    H146684   1.613   0.593  13.183  1.6160  0.4763 -0.9081
 8423TIP3    H246685   1.571   0.692  13.290 -0.3642 -1.2671 -0.0499
 8424TIP3   OH246686   1.040   1.161   2.890 -0.0464 -0.5617  0.5411
 8424TIP3    H146687   1.053   1.075   2.849  1.0933 -0.0544 -0.1924
 8424TIP3    H246688   1.073   1.223   2.825 -1.7601  0.4929  0.6654
 8425TIP3   OH246689   6.581   5.196   2.697 -0.1827  0.2096 -0.1407
 8425TIP3    H146690   6.647   5.256   2.664  0.3962 -0.3799 -0.0741
 8425TIP3    H246691   6.531   5.247   2.761  0.7767  0.4139  0.4674
 8426TIP3   OH246692   1.468   0.700   2.169 -0.5456 -0.3282  0.1492
 8426TIP3    H146693   1.520   0.732   2.096 -1.5244 -0.7395 -0.7464
 8426TIP3    H246694   1.377   0.706   2.139 -1.1631  1.8554  2.2456
 8427TIP3   OH246695   5.967   6.569   3.847  0.5649 -0.3136 -0.4203
 8427TIP3    H146696   5.901   6.629   3.883  0.1559  0.0918 -1.7845
 8427TIP3    H246697   5.917   6.513   3.787  0.9521 -2.0003  0.8009
 8428TIP3   OH246698   4.921   2.098   5.176  0.0858 -0.4070 -0.3275
 8428TIP3    H146699   4.868   2.045   5.236 -0.1167 -1.9808 -1.8544
 8428TIP3    H246700   4.973   2.034   5.127  1.3450  0.9539 -0.7903
 8429TIP3   OH246701   4.821   2.907  13.668  0.2161  0.1485 -0.1259
 8429TIP3    H146702   4.765   2.923  13.744  0.6102  3.2861 -0.4267
 8429TIP3    H246703   4.764   2.922  13.593  0.5175 -0.3407 -0.4556
 8430TIP3   OH246704   5.327   6.535   5.925 -0.1495  0.1576 -0.3776
 8430TIP3    H146705   5.250   6.479   5.928  0.7748 -1.0579  3.4600
 8430TIP3    H246706   5.393   6.481   5.881 -0.1924 -0.5546  0.4169
 8431TIP3   OH246707   3.391   5.225  13.936  0.3107  0.1600  0.1513
 8431TIP3    H146708   3.337   5.242  14.013  1.6555 -0.0508  1.1633
 8431TIP3    H246709   3.430   5.309  13.914  0.3435  0.1079  0.0035
 8432TIP3   OH246710   0.854   6.682   0.557 -0.3689 -0.2121  0.4186
 8432TIP3    H146711   0.858   6.589   0.578 -0.7821 -0.1079  0.9728
 8432TIP3    H246712   0.851   6.726   0.642 -1.1369  0.2598  0.1518
 8433TIP3   OH246713   5.613   1.196  11.904 -0.3374 -0.3565 -0.0692
 8433TIP3    H146714   5.642   1.106  11.914  0.3149 -0.1508 -0.1010
 8433TIP3    H246715   5.656   1.227  11.825 -0.6127 -0.0356 -0.0972
 8434TIP3   OH246716   2.915   5.024   0.643 -0.4825 -0.2407 -0.4230
 8434TIP3    H146717   2.974   4.959   0.604 -1.5823 -0.8706 -1.0438
 8434TIP3    H246718   2.972   5.100   0.660  0.3351 -0.5091 -1.8334
 8435TIP3   OH246719   2.284   5.062  16.341  0.4529  0.2373 -0.1622
 8435TIP3    H146720   2.298   4.971  16.367  0.5206  0.7090  1.5114
 8435TIP3    H246721   2.302   5.063  16.247 -0.3640 -1.6386 -0.3673
 8436TIP3   OH246722   5.899   1.328  16.622  0.1148  0.6765 -0.1581
 8436TIP3    H146723   5.805   1.341  16.634  0.1231 -0.8970  2.1384
 8436TIP3    H246724   5.939   1.371  16.698  1.0047 -1.3083  0.5325
 8437TIP3   OH246725   3.908   4.622   6.867 -0.5080 -0.0281 -0.6525
 8437TIP3    H146726   3.856   4.643   6.789 -1.1051  2.0855  0.2832
 8437TIP3    H246727   3.858   4.660   6.940 -0.3214 -2.5968  0.8685
 8438TIP3   OH246728   6.712   3.147  16.793  0.1231  0.2769 -0.6870
 8438TIP3    H146729   6.750   3.107  16.715 -1.4055 -3.0080  0.1522
 8438TIP3    H246730   6.759   3.230  16.803  1.6655 -0.1351 -3.9768
 8439TIP3   OH246731   0.766   5.709   6.484  0.3486  0.0144  0.1502
 8439TIP3    H146732   0.812   5.639   6.529  0.5362 -0.5240 -0.8598
 8439TIP3    H246733   0.777   5.689   6.391  0.1081  1.1921 -0.1376
 8440TIP3   OH246734   6.668   0.503  15.767  0.2342  0.0087  0.7752
 8440TIP3    H146735   6.713   0.423  15.794 -1.9378 -1.0341  1.4445
 8440TIP3    H246736   6.689   0.567  15.835  1.1643 -0.2880  0.7672
 8441TIP3   OH246737   6.776   1.210  16.665 -0.4457  0.1833  0.4214
 8441TIP3    H146738   6.731   1.245  16.742 -2.2624 -0.2797 -0.4075
 8441TIP3    H246739   6.848   1.271  16.649 -2.3688  2.4673  0.1771
 8442TIP3   OH246740   2.581   3.786  15.184 -0.0561 -0.2892 -0.1366
 8442TIP3    H146741   2.646   3.855  15.184 -0.3169 -0.0393  0.5612
 8442TIP3    H246742   2.630   3.706  15.202  0.2527 -0.2898 -1.0037
 8443TIP3   OH246743   5.255   0.423   0.930 -0.9061  0.0419  0.0161
 8443TIP3    H146744   5.301   0.449   0.851  1.6373 -0.9196  1.1227
 8443TIP3    H246745   5.285   0.485   0.997  0.3566 -1.7645  1.1983
 8444TIP3   OH246746   0.066   5.912  16.429 -0.0030 -0.0231  0.5665
 8444TIP3    H146747   0.100   5.829  16.462 -1.8861 -0.6010  1.1172
 8444TIP3    H246748   0.139   5.949  16.379  1.3788 -1.2737  1.5719
 8445TIP3   OH246749   2.454   2.517  13.215 -0.0241 -0.4516 -0.1823
 8445TIP3    H146750   2.509   2.467  13.156 -0.8784  0.1709 -1.5448
 8445TIP3    H246751   2.515   2.563  13.272  0.8446 -0.3949 -1.1454
 8446TIP3   OH246752   0.496   3.337  14.928 -0.3826  0.5903  0.0839
 8446TIP3    H146753   0.468   3.253  14.894  0.1493  0.9020 -1.1548
 8446TIP3    H246754   0.414   3.382  14.951 -0.7934  0.6615 -1.4772
 8447TIP3   OH246755   3.805   0.853   5.434 -0.1102 -1.4287 -0.6409
 8447TIP3    H146756   3.882   0.823   5.386  1.9090  1.5214  0.5707
 8447TIP3    H246757   3.812   0.811   5.519  0.6938 -0.5034 -0.2311
 8448TIP3   OH246758   0.137   1.017  17.239 -0.4640 -0.3264  0.8309
 8448TIP3    H146759   0.072   1.073  17.197 -1.2015  0.2214  2.6434
 8448TIP3    H246760   0.133   0.935  17.191 -0.3299  0.7130 -1.0034
 8449TIP3   OH246761   2.678   6.341   4.828 -0.1925 -1.0511  0.1814
 8449TIP3    H146762   2.650   6.360   4.739 -1.9059  0.6453  1.0390
 8449TIP3    H246763   2.767   6.308   4.819  0.8922  2.1832 -1.9387
 8450TIP3   OH246764   1.374   2.075   3.379 -0.2648  0.5443 -0.2495
 8450TIP3    H146765   1.454   2.100   3.426  1.3659 -0.9831 -2.1578
 8450TIP3    H246766   1.397   2.079   3.287 -2.4234  0.1485 -0.8453
 8451TIP3   OH246767   1.097   2.127   2.378 -0.7470  0.3601 -0.1376
 8451TIP3    H146768   1.021   2.182   2.394 -0.9954 -0.2780  0.9403
 8451TIP3    H246769   1.168   2.188   2.360 -1.5300  0.9606 -1.2962
 8452TIP3   OH246770   5.191   4.151   4.080 -0.0740 -0.1769  0.5817
 8452TIP3    H146771   5.174   4.066   4.120  1.8285 -1.2847 -0.8380
 8452TIP3    H246772   5.278   4.176   4.112 -0.7892  1.4356  1.3057
 8453TIP3   OH246773   4.779   2.649   0.920  0.3297 -0.1432 -0.3328
 8453TIP3    H146774   4.863   2.693   0.932  0.1078  0.2813 -0.3465
 8453TIP3    H246775   4.718   2.696   0.977  0.2286 -0.8222  0.1369
 8454TIP3   OH246776   2.688   2.341   3.548 -0.0944 -0.2102 -0.3280
 8454TIP3    H146777   2.623   2.411   3.555  0.1267 -0.0797  0.5024
 8454TIP3    H246778   2.654   2.270   3.602 -0.6486 -1.0186 -1.7192
 8455TIP3   OH246779   6.434   1.782  12.034 -0.4529  0.5917 -0.2387
 8455TIP3    H146780   6.346   1.819  12.031 -1.1590 -1.0626 -1.0846
 8455TIP3    H246781   6.437   1.722  11.959  0.7925 -0.6676  0.7836
 8456TIP3   OH246782   6.005   2.151   5.985 -0.1448  0.6056 -0.7241
 8456TIP3    H146783   6.060   2.212   6.034 -1.8843  1.1417  0.6257
 8456TIP3    H246784   5.925   2.143   6.038 -0.2822 -2.2186 -1.2912
 8457TIP3   OH246785   5.071   1.155   0.601  0.0834 -0.1191  0.3774
 8457TIP3    H146786   5.078   1.096   0.676  3.1991  1.7683  1.6536
 8457TIP3    H246787   5.138   1.125   0.540 -1.1766 -0.4787 -0.8570
 8458TIP3   OH246788   0.558   5.658   5.291  0.0861  0.3443  0.2022
 8458TIP3    H146789   0.542   5.563   5.289 -0.7829  0.4990 -0.3665
 8458TIP3    H246790   0.602   5.677   5.209  1.9645  0.1499  1.1368
 8459TIP3   OH246791   5.532   0.765  17.115 -0.2607  0.0251  0.3667
 8459TIP3    H146792   5.442   0.753  17.146 -0.5342 -1.7804 -1.0464
 8459TIP3    H246793   5.586   0.725  17.183 -0.5625  0.5102  0.8981
 8460TIP3   OH246794   4.170   5.775  11.247  0.4804  0.3264  0.3434
 8460TIP3    H146795   4.090   5.786  11.299 -0.2819 -1.9169 -0.3019
 8460TIP3    H246796   4.224   5.715  11.299  2.2322  2.6428  1.2737
 8461TIP3   OH246797   6.467   6.744  16.041 -0.2010 -0.1054 -0.2836
 8461TIP3    H146798   6.512   6.807  15.984  0.5918  0.5484  1.0605
 8461TIP3    H246799   6.509   6.661  16.022 -1.0886 -0.2123 -1.8936
 8462TIP3   OH246800   4.427   1.186   4.768 -0.9483  0.2637 -0.2519
 8462TIP3    H146801   4.349   1.204   4.820 -0.6626  0.3423  0.1537
 8462TIP3    H246802   4.494   1.163   4.833 -0.3071  1.3700 -0.5094
 8463TIP3   OH246803   4.482   1.888   0.866 -0.2591 -0.3227 -0.1531
 8463TIP3    H146804   4.427   1.949   0.817 -1.9762 -0.3007  1.7123
 8463TIP3    H246805   4.540   1.944   0.917 -0.6050 -0.2697  0.1886
 8464TIP3   OH246806   5.640   0.682   6.373 -0.5077  0.3596  0.0407
 8464TIP3    H146807   5.561   0.657   6.325  0.2149 -1.2057 -0.3540
 8464TIP3    H246808   5.637   0.632   6.454 -1.0626  2.0277  1.0799
 8465TIP3   OH246809   0.052   4.467  17.211 -0.3483  0.0495  0.1797
 8465TIP3    H146810   0.105   4.415  17.150  2.3093  1.6102  1.1128
 8465TIP3    H246811  -0.002   4.522  17.154 -1.2974 -1.7838 -0.7758
 8466TIP3   OH246812   4.902   0.452  11.393 -0.4513 -0.2529 -0.3553
 8466TIP3    H146813   4.866   0.366  11.414 -0.9457 -0.3680 -1.6726
 8466TIP3    H246814   4.987   0.434  11.353  0.5068 -0.0304  1.5375
 8467TIP3   OH246815   5.791   0.353  12.950 -0.0424 -0.0714  0.2007
 8467TIP3    H146816   5.860   0.401  12.904  0.8849 -0.5355  1.0995
 8467TIP3    H246817   5.712   0.406  12.935  0.4440  0.3149 -1.0624
 8468TIP3   OH246818   4.869   6.460   2.980  0.3158 -0.5010 -0.4691
 8468TIP3    H146819   4.940   6.494   2.924  0.0022  1.0332  0.0316
 8468TIP3    H246820   4.853   6.531   3.043  0.3413 -2.0219  1.2774
 8469TIP3   OH246821   4.541   1.272   4.545 -0.2635  0.0572  0.2472
 8469TIP3    H146822   4.472   1.339   4.542 -0.9613 -0.6901 -0.7493
 8469TIP3    H246823   4.525   1.225   4.626 -0.9961 -0.1692 -0.0213
 8470TIP3   OH246824   0.228   5.044   5.080  0.1297  0.5389  0.6064
 8470TIP3    H146825   0.262   5.000   5.158 -1.0337 -0.8893  0.3273
 8470TIP3    H246826   0.299   5.038   5.016 -1.0715 -3.8327 -0.5143
 8471TIP3   OH246827   2.192   4.670   1.440 -0.1406 -0.2405  0.4092
 8471TIP3    H146828   2.270   4.619   1.416 -0.4201 -0.0120 -1.0341
 8471TIP3    H246829   2.182   4.655   1.534  0.2071 -2.2820  0.1497
 8472TIP3   OH246830   3.452   6.617  11.857 -0.5570  0.0504 -0.0600
 8472TIP3    H146831   3.543   6.643  11.847 -0.6445  0.5585  0.4919
 8472TIP3    H246832   3.456   6.530  11.897 -0.3669  1.0727  2.1708
 8473TIP3   OH246833   1.086   2.725  15.346  0.1306  0.6090  0.4640
 8473TIP3    H146834   1.039   2.644  15.365 -1.4799  1.4045 -0.0955
 8473TIP3    H246835   1.178   2.698  15.338 -0.2774 -1.0176  1.1278
 8474TIP3   OH246836   1.283   5.520   5.973  0.1006  0.2705  0.1602
 8474TIP3    H146837   1.241   5.439   5.947 -0.7478  0.6146  0.4287
 8474TIP3    H246838   1.377   5.500   5.974 -0.0360 -0.4245 -0.7235
 8475TIP3   OH246839   0.313   1.306  14.908 -0.1419  0.9805  0.5081
 8475TIP3    H146840   0.239   1.246  14.922  0.8100 -0.2699  0.2815
 8475TIP3    H246841   0.276   1.377  14.855 -1.2509  0.5196  0.6444
 8476TIP3   OH246842   3.016   4.491   1.064 -0.0810 -0.2875 -0.4543
 8476TIP3    H146843   3.005   4.432   1.138 -0.2388 -0.6335 -0.7536
 8476TIP3    H246844   2.963   4.568   1.087  1.8410  0.6666  0.9166
 8477TIP3   OH246845   3.955   1.985   0.163  0.5475 -0.1983  0.2142
 8477TIP3    H146846   3.996   2.065   0.129 -0.1693  0.3653  0.6691
 8477TIP3    H246847   3.943   2.003   0.257 -0.1824 -0.5968  0.1956
 8478TIP3   OH246848   6.466   2.624   4.452 -0.1768 -0.1883  0.5887
 8478TIP3    H146849   6.372   2.618   4.434 -0.6783  0.9266  2.6530
 8478TIP3    H246850   6.506   2.563   4.391 -2.1881 -0.1878 -0.7789
 8479TIP3   OH246851   0.582   5.523  15.524 -0.2575 -0.1387 -0.1759
 8479TIP3    H146852   0.670   5.560  15.516 -1.6887  3.4140 -0.3890
 8479TIP3    H246853   0.570   5.474  15.443  2.0109 -1.8579  0.4717
 8480TIP3   OH246854   2.764   2.761   3.665  0.1543  0.0859 -0.2504
 8480TIP3    H146855   2.752   2.852   3.636  1.5584  0.1878 -0.5214
 8480TIP3    H246856   2.803   2.769   3.753 -1.3399 -0.2488  0.4595
 8481TIP3   OH246857   4.807   0.768  14.952  0.0866 -0.1048 -0.3809
 8481TIP3    H146858   4.858   0.845  14.927 -0.1202  0.0064 -0.4637
 8481TIP3    H246859   4.737   0.763  14.886  1.9880 -2.2613 -2.3156
 8482TIP3   OH246860   2.434   6.144   0.014 -0.5939  0.2119  0.0881
 8482TIP3    H146861   2.352   6.191  -0.001 -0.5852  0.1102 -0.2775
 8482TIP3    H246862   2.503   6.207  -0.008 -0.5688  0.4212  0.7597
 8483TIP3   OH246863   4.905   0.838   3.278  0.1035 -0.0908  0.5372
 8483TIP3    H146864   4.946   0.897   3.214  0.7534 -1.3233 -0.2272
 8483TIP3    H246865   4.818   0.875   3.293 -0.0403  0.2626 -1.0273
 8484TIP3   OH246866   6.565   2.895  14.278 -0.3110  0.4957  0.0827
 8484TIP3    H146867   6.579   2.863  14.368 -0.7163  0.9135  0.2960
 8484TIP3    H246868   6.570   2.990  14.286 -1.3020  0.5668 -0.1761
 8485TIP3   OH246869   3.469   5.433   4.049 -0.4848 -0.4207 -0.0553
 8485TIP3    H146870   3.546   5.469   4.004 -0.8140 -0.3168 -0.5399
 8485TIP3    H246871   3.446   5.356   3.996 -0.0543 -1.0881  0.7128
 8486TIP3   OH246872   4.111   6.340   1.455  0.5971  0.5868 -0.1410
 8486TIP3    H146873   4.206   6.332   1.455  0.5490 -0.0042 -0.3501
 8486TIP3    H246874   4.094   6.419   1.505  1.1266 -0.1128  1.1616
 8487TIP3   OH246875   3.210   6.088   6.404 -0.2163  0.3600  0.0937
 8487TIP3    H146876   3.152   6.019   6.372 -0.9523  0.3887  1.3062
 8487TIP3    H246877   3.297   6.062   6.376 -0.6930 -0.2186 -0.8775
 8488TIP3   OH246878   0.771   0.427  12.538  0.0307 -0.4921 -0.7995
 8488TIP3    H146879   0.679   0.406  12.551 -0.7699  2.2029 -1.7654
 8488TIP3    H246880   0.817   0.381  12.609 -2.0771 -1.5696 -0.1045
 8489TIP3   OH246881   0.634   4.537  15.364  0.7259  0.2231  0.0976
 8489TIP3    H146882   0.706   4.551  15.302  0.5485  1.1599  0.1021
 8489TIP3    H246883   0.655   4.453  15.405  1.1809 -0.0945 -0.7704
 8490TIP3   OH246884   2.196   4.743   5.018  0.2586 -0.9594  0.3218
 8490TIP3    H146885   2.240   4.661   4.996  2.8768  0.7183 -0.9629
 8490TIP3    H246886   2.187   4.789   4.935 -0.8010  0.2367  1.0774
 8491TIP3   OH246887   6.455   0.303  12.584  0.0380 -0.0454 -0.4018
 8491TIP3    H146888   6.500   0.253  12.653  0.6168  0.3884 -0.4607
 8491TIP3    H246889   6.506   0.383  12.576 -0.3285  0.1285 -0.9863
 8492TIP3   OH246890   1.205   1.758  16.818  0.7293 -0.4176 -0.2143
 8492TIP3    H146891   1.140   1.739  16.751  0.8966  0.0066 -0.4989
 8492TIP3    H246892   1.270   1.689  16.809  0.0205 -1.1812  0.4597
 8493TIP3   OH246893   2.639   1.242  15.428 -0.4244  0.1846  0.2043
 8493TIP3    H146894   2.716   1.186  15.436 -0.4440  0.3346  1.5216
 8493TIP3    H246895   2.669   1.316  15.374  0.2595  0.0879  0.4467
 8494TIP3   OH246896   3.957   2.128  16.958  0.3830  0.2594  0.0190
 8494TIP3    H146897   3.939   2.035  16.944  1.9247  0.2836 -2.3921
 8494TIP3    H246898   4.040   2.130  17.004  0.1547  0.4439  0.4257
 8495TIP3   OH246899   4.304   2.070  13.917  0.2590 -0.4557 -0.2267
 8495TIP3    H146900   4.323   2.162  13.896  0.6000 -0.1644  1.2818
 8495TIP3    H246901   4.390   2.028  13.917  0.2739 -0.4259  0.6800
 8496TIP3   OH246902   3.601   5.748   2.882 -0.4111 -0.3868 -0.0564
 8496TIP3    H146903   3.555   5.771   2.802 -0.1035 -1.0285 -0.4265
 8496TIP3    H246904   3.636   5.831   2.915 -0.5357 -0.1218 -0.5858
 8497TIP3   OH246905   3.479   3.366   1.654 -0.1810  0.2094 -0.7862
 8497TIP3    H146906   3.455   3.458   1.642 -3.7262 -0.5616  0.0363
 8497TIP3    H246907   3.474   3.352   1.749  1.8910 -0.4684 -0.7456
 8498TIP3   OH246908   1.888   3.324   3.485 -0.4297 -0.0280  0.2077
 8498TIP3    H146909   1.913   3.313   3.577  0.1580  0.3083  0.0934
 8498TIP3    H246910   1.859   3.415   3.479 -1.6606 -0.4066  0.3287
 8499TIP3   OH246911   2.478   3.209  13.170  0.5877  0.0909 -0.3788
 8499TIP3    H146912   2.444   3.266  13.238 -0.8108 -2.2055  0.9185
 8499TIP3    H246913   2.400   3.173  13.127  1.3919 -1.6547 -0.4434
 8500TIP3   OH246914   3.640   3.764   1.285  0.0495  0.8363 -0.0574
 8500TIP3    H146915   3.614   3.839   1.231 -0.4919 -0.2786 -1.3907
 8500TIP3    H246916   3.572   3.699   1.269  0.0784  0.3464  1.7166
 8501TIP3   OH246917   6.223   4.834  13.974 -0.2178  0.1591 -0.7261
 8501TIP3    H146918   6.166   4.806  14.046  0.3040 -2.3817 -1.2412
 8501TIP3    H246919   6.308   4.848  14.016  0.3143 -2.2051 -0.9503
 8502TIP3   OH246920   3.102   5.413   2.191 -0.2709 -0.4721  0.0537
 8502TIP3    H146921   3.159   5.490   2.188  1.3147 -1.6828 -2.3540
 8502TIP3    H246922   3.017   5.445   2.160  0.5437  0.1859 -1.5344
 8503TIP3   OH246923   3.151   5.820  14.340 -0.0452  0.0067  0.0805
 8503TIP3    H146924   3.172   5.859  14.255  0.5311 -0.0383  0.1976
 8503TIP3    H246925   3.056   5.821  14.344 -0.0296  2.4609  0.5820
 8504TIP3   OH246926   2.806   0.700   2.783  0.4579  0.6944  0.2277
 8504TIP3    H146927   2.770   0.750   2.857  1.5762  0.2343  1.1022
 8504TIP3    H246928   2.865   0.761   2.739  0.8702  0.5270  0.5514
 8505TIP3   OH246929   0.610   1.327  16.676 -1.0868  0.1945  0.0358
 8505TIP3    H146930   0.695   1.308  16.636 -0.6255 -0.9395  1.5010
 8505TIP3    H246931   0.545   1.296  16.612 -0.3956  0.6199 -0.8755
 8506TIP3   OH246932   6.278   0.396   2.699 -0.1800 -0.8739  0.3779
 8506TIP3    H146933   6.281   0.315   2.647  1.8242 -0.5246 -0.0654
 8506TIP3    H246934   6.248   0.368   2.785 -0.1953 -1.9860  0.0208
 8507TIP3   OH246935   2.135   6.729   4.105 -0.0714  0.2361  0.1996
 8507TIP3    H146936   2.102   6.802   4.157 -1.5173 -0.5055  0.3476
 8507TIP3    H246937   2.060   6.671   4.094  0.8950 -0.9251 -0.4539
 8508TIP3   OH246938   6.214   4.374  13.904  0.8672  0.5782  0.1197
 8508TIP3    H146939   6.262   4.383  13.986 -1.4711 -0.2658  1.6514
 8508TIP3    H246940   6.253   4.298  13.861  0.1241 -0.8643  1.9278
 8509TIP3   OH246941   0.019   0.692   4.047 -0.5489  0.3035 -0.6581
 8509TIP3    H146942   0.062   0.734   4.121  0.9743 -0.0084 -1.3409
 8509TIP3    H246943  -0.007   0.606   4.079 -0.5058  0.4265 -0.2963
 8510TIP3   OH246944   3.799   1.936  13.860 -0.1010 -0.2171 -0.4411
 8510TIP3    H146945   3.757   2.009  13.814 -0.7103 -0.6137 -0.5065
 8510TIP3    H246946   3.875   1.914  13.805  0.0793  0.3600 -0.4261
 8511TIP3   OH246947   4.382   3.933  12.405 -0.8146 -0.1264 -0.3246
 8511TIP3    H146948   4.401   3.975  12.489 -1.3952  0.7975 -0.6490
 8511TIP3    H246949   4.393   3.840  12.422  1.1029  0.1686  0.2524
 8512TIP3   OH246950   0.863   6.612  12.174  0.3644  0.4875  0.6788
 8512TIP3    H146951   0.770   6.622  12.198 -0.0684 -0.9398 -0.3007
 8512TIP3    H246952   0.898   6.701  12.176 -0.9989  1.0355  1.1699
 8513TIP3   OH246953   3.288   1.839  13.257 -0.3700  0.3692 -0.2166
 8513TIP3    H146954   3.289   1.744  13.270  1.1642  0.1355 -1.8606
 8513TIP3    H246955   3.380   1.865  13.264 -0.2539  1.1343 -3.7755
 8514TIP3   OH246956   4.239   1.322  13.153  0.9743  0.4835 -0.2458
 8514TIP3    H146957   4.214   1.273  13.231  0.1557  0.3123 -0.6098
 8514TIP3    H246958   4.272   1.255  13.093  1.5889  0.6131 -0.0587
 8515TIP3   OH246959   4.762   5.661   3.483  0.5446  0.2627 -1.0448
 8515TIP3    H146960   4.815   5.646   3.405  0.9671  0.0884 -0.7301
 8515TIP3    H246961   4.676   5.627   3.461  0.4547  0.8981 -1.7036
 8516TIP3   OH246962   4.955   3.805   1.338  0.3293  0.0716  0.8004
 8516TIP3    H146963   4.872   3.830   1.379  1.4279  1.3466  2.3055
 8516TIP3    H246964   4.936   3.721   1.295 -1.4061 -0.2929  2.1934
 8517TIP3   OH246965   2.165   1.182   5.744  0.0180 -0.2957 -0.1643
 8517TIP3    H146966   2.090   1.240   5.728  0.5087  0.3713 -0.0899
 8517TIP3    H246967   2.226   1.236   5.792  0.0231 -1.2356  0.8915
 8518TIP3   OH246968   0.163   6.273  13.093 -0.1411  0.0157 -0.4356
 8518TIP3    H146969   0.135   6.208  13.158  1.1119 -1.1226 -0.9863
 8518TIP3    H246970   0.144   6.357  13.133  0.1331 -0.6745  1.2002
 8519TIP3   OH246971   6.133   5.268   5.860 -0.3745 -0.0624  0.0602
 8519TIP3    H146972   6.078   5.323   5.915 -0.8986 -0.6554  0.1383
 8519TIP3    H246973   6.211   5.251   5.913 -0.4198  0.2239  0.2159
 8520TIP3   OH246974   3.442   0.338   3.289 -0.1848  0.5332 -0.1294
 8520TIP3    H146975   3.484   0.413   3.331  0.4821  0.2329 -0.2552
 8520TIP3    H246976   3.401   0.290   3.360  1.1654 -0.1165  0.2186
 8521TIP3   OH246977   2.600   0.411  12.900 -0.4522  0.1562 -0.2347
 8521TIP3    H146978   2.507   0.432  12.910 -0.5989 -1.2096  1.5528
 8521TIP3    H246979   2.626   0.376  12.985  1.1980 -1.4295 -1.3527
 8522TIP3   OH246980   6.420   1.178   5.098 -0.0148 -0.0274  0.5311
 8522TIP3    H146981   6.461   1.173   5.012 -1.1047  1.0150 -0.0605
 8522TIP3    H246982   6.442   1.266   5.130 -3.2769  1.2740 -0.5846
 8523TIP3   OH246983   1.091   0.545   4.424 -0.3743 -0.3786 -0.3070
 8523TIP3    H146984   1.069   0.528   4.516 -0.6090 -1.4012 -0.5498
 8523TIP3    H246985   1.110   0.459   4.387 -0.9748 -0.0493 -1.4045
 8524TIP3   OH246986   4.636   0.886  15.963 -0.2190  0.0510  0.1954
 8524TIP3    H146987   4.725   0.917  15.951 -0.8674  1.6289 -0.6768
 8524TIP3    H246988   4.627   0.875  16.058  0.6885  0.5274  0.3399
 8525TIP3   OH246989   3.574   5.137   5.453  0.1629 -0.0495 -0.3188
 8525TIP3    H146990   3.571   5.187   5.371 -1.0659  0.7311  0.2033
 8525TIP3    H246991   3.628   5.190   5.511  2.1799 -1.2535 -1.0361
 8526TIP3   OH246992   4.826   2.817  14.268  0.0717 -0.0913  0.0689
 8526TIP3    H146993   4.800   2.886  14.208 -3.5018 -1.5579 -0.1762
 8526TIP3    H246994   4.744   2.773  14.291  2.0282 -3.0378  1.6937
 8527TIP3   OH246995   2.443   3.134   3.034 -0.6517 -0.1312 -0.1186
 8527TIP3    H146996   2.420   3.082   3.111 -2.4425 -0.0120 -0.5496
 8527TIP3    H246997   2.358   3.162   2.998  0.2274  1.8142 -0.7452
 8528TIP3   OH246998   4.254   5.523  13.774 -0.1939  0.4290  0.6587
 8528TIP3    H146999   4.190   5.457  13.800 -1.6937  0.8574 -1.8458
 8528TIP3    H247000   4.319   5.474  13.723  0.1288  0.4639  1.0252
 8529TIP3   OH247001   1.346   1.520  11.876 -0.2584 -0.1626 -0.9358
 8529TIP3    H147002   1.339   1.458  11.949 -0.9730 -1.3693 -2.0120
 8529TIP3    H247003   1.256   1.534  11.848  0.0063  0.3863 -1.5154
 8530TIP3   OH247004   1.253   3.905  10.447 -0.5281  0.3170  0.7518
 8530TIP3    H147005   1.344   3.888  10.473 -0.2868  0.2448 -0.1216
 8530TIP3    H247006   1.209   3.820  10.455  0.3843 -0.5351 -2.4193
 8531TIP3   OH247007   6.156   2.656  13.453  0.4280  1.1184  0.3692
 8531TIP3    H147008   6.218   2.679  13.523  0.9451  0.0584  0.2696
 8531TIP3    H247009   6.075   2.633  13.500  0.4308  1.4813  0.5576
 8532TIP3   OH247010   0.367   5.566   2.846  0.1412  0.4477 -0.2139
 8532TIP3    H147011   0.312   5.487   2.838 -1.4871  1.6740 -1.6630
 8532TIP3    H247012   0.320   5.621   2.909  0.4552  0.9014 -0.3794
 8533TIP3   OH247013   3.831   1.812  13.005  0.1457  0.0905  0.2181
 8533TIP3    H147014   3.749   1.771  12.979  1.0912 -1.5880 -0.1827
 8533TIP3    H247015   3.837   1.891  12.951 -0.2826 -0.7850 -1.1279
 8534TIP3   OH247016   2.338   3.748   3.822 -0.0729 -0.4088 -0.4931
 8534TIP3    H147017   2.250   3.746   3.784 -0.7767  0.5057  1.0068
 8534TIP3    H247018   2.338   3.676   3.886  0.5320 -0.8742 -1.0045
 8535TIP3   OH247019   2.188   4.992  13.097 -0.1540 -0.4657 -0.1537
 8535TIP3    H147020   2.251   4.961  13.162 -2.3059  0.7268  2.6092
 8535TIP3    H247021   2.223   5.076  13.069  0.5616 -0.7728 -0.2037
 8536TIP3   OH247022   2.856   5.882   5.337 -0.5135 -0.3755 -0.2834
 8536TIP3    H147023   2.801   5.843   5.404 -0.1608 -1.7201 -0.7609
 8536TIP3    H247024   2.900   5.954   5.382 -0.2876 -1.2526  0.9408
 8537TIP3   OH247025   4.366   0.639   3.644 -0.0064  0.8431  0.1959
 8537TIP3    H147026   4.332   0.700   3.579  1.1106  1.8477  0.5470
 8537TIP3    H247027   4.313   0.559   3.632 -0.1624  1.2012 -1.5659
 8538TIP3   OH247028   3.179   1.660  15.104 -0.0678  0.0170  0.7811
 8538TIP3    H147029   3.253   1.694  15.153  0.7996  0.6833 -0.9387
 8538TIP3    H247030   3.120   1.735  15.095 -0.4923 -0.2560  1.3143
 8539TIP3   OH247031   1.419   0.125   0.215 -0.0265  0.1047 -0.3665
 8539TIP3    H147032   1.431   0.045   0.164 -1.4719 -0.0961 -0.4148
 8539TIP3    H247033   1.328   0.121   0.245  0.3937  0.8940  1.0747
 8540TIP3   OH247034   6.231   3.971   0.938 -0.2088  0.2414 -0.4438
 8540TIP3    H147035   6.298   3.982   0.871  0.1609  0.7507  0.0005
 8540TIP3    H247036   6.266   3.904   0.997  0.1442  0.8858  0.0797
 8541TIP3   OH247037   3.962   2.748  14.462 -0.3767  0.3093 -0.1336
 8541TIP3    H147038   3.917   2.760  14.378  1.1305 -0.2117 -1.0314
 8541TIP3    H247039   4.038   2.806  14.457 -1.1852  1.5554  1.5766
 8542TIP3   OH247040   2.204   0.647  15.275 -0.9195 -0.4647  0.4274
 8542TIP3    H147041   2.225   0.717  15.338  0.5269 -0.8814  0.4265
 8542TIP3    H247042   2.288   0.625  15.235 -1.3911 -2.0525  0.2643
 8543TIP3   OH247043   2.236   4.520  13.420  0.8573  0.3898  0.5165
 8543TIP3    H147044   2.165   4.568  13.461  0.2157  0.2008 -0.3647
 8543TIP3    H247045   2.302   4.512  13.489 -0.4133 -0.3703  1.6680
 8544TIP3   OH247046   1.086   5.607   2.068  0.2637  0.9174  0.6578
 8544TIP3    H147047   1.045   5.543   2.010  0.8270  1.7519 -0.7056
 8544TIP3    H247048   1.140   5.555   2.127 -1.9840 -0.1099  1.8471
 8545TIP3   OH247049   2.137   4.016   4.423 -0.0378 -0.2508  0.6571
 8545TIP3    H147050   2.109   4.100   4.459 -0.3913 -0.8284  1.7453
 8545TIP3    H247051   2.227   4.006   4.455  0.0459 -0.2270  0.4258
 8546TIP3   OH247052   2.691   1.678   0.257  0.4626  0.4825  0.6940
 8546TIP3    H147053   2.755   1.657   0.325  0.2771 -0.5325  0.5613
 8546TIP3    H247054   2.609   1.692   0.305 -0.0682 -1.9274  0.5654
 8547TIP3   OH247055   4.742   2.078   3.230 -0.2111 -0.3210 -0.0567
 8547TIP3    H147056   4.729   2.169   3.204  1.9946 -0.1081 -0.5657
 8547TIP3    H247057   4.672   2.060   3.292 -1.8047  1.1248 -1.3927
 8548TIP3   OH247058   3.468   4.715   4.783  0.4649 -0.5454  0.2575
 8548TIP3    H147059   3.437   4.757   4.704  0.4292 -1.8562 -0.4367
 8548TIP3    H247060   3.563   4.726   4.780  0.5908 -1.8156 -0.6858
 8549TIP3   OH247061   4.252   4.536   0.385  0.0452  0.0145 -0.2973
 8549TIP3    H147062   4.232   4.611   0.328 -2.2922 -2.0101 -2.1984
 8549TIP3    H247063   4.174   4.525   0.439  0.4389 -1.0074  0.0656
 8550TIP3   OH247064   5.801   5.382  12.885 -0.6235  0.1389 -0.2558
 8550TIP3    H147065   5.731   5.398  12.948  0.2669 -0.6545  0.9663
 8550TIP3    H247066   5.870   5.445  12.909 -0.9619  1.0468 -1.5644
 8551TIP3   OH247067   0.278   1.220  11.997  0.5307  0.2734  0.1239
 8551TIP3    H147068   0.317   1.133  11.984  1.5716  0.6369  0.7990
 8551TIP3    H247069   0.232   1.213  12.080 -0.7175 -0.1001 -0.5845
 8552TIP3   OH247070   5.131   2.690  16.911 -0.4373  0.0455 -0.3450
 8552TIP3    H147071   5.194   2.740  16.963 -0.0510 -0.2545 -0.5207
 8552TIP3    H247072   5.070   2.654  16.975 -0.0350 -0.2198 -0.1074
 8553TIP3   OH247073   3.932   5.737   3.247 -0.0544  0.0119 -0.3905
 8553TIP3    H147074   4.025   5.745   3.225 -0.2031 -0.9264 -1.4312
 8553TIP3    H247075   3.890   5.807   3.197  0.0401  0.1550 -0.2707
 8554TIP3   OH247076   0.817   6.505  13.579  0.2352  0.0827 -0.0265
 8554TIP3    H147077   0.734   6.552  13.575 -0.2383 -0.6176  1.3171
 8554TIP3    H247078   0.832   6.489  13.672  0.9793 -1.3599 -0.3644
 8555TIP3   OH247079   1.770   3.169   1.094 -0.0710 -0.2281  0.5012
 8555TIP3    H147080   1.727   3.120   1.164  1.4557 -0.6185  1.1818
 8555TIP3    H247081   1.807   3.101   1.037  0.9847  0.1188  0.7712
 8556TIP3   OH247082   0.237   0.625   0.426 -0.4259 -0.1566 -0.2291
 8556TIP3    H147083   0.201   0.580   0.350 -0.3694 -0.5872  0.0022
 8556TIP3    H247084   0.258   0.556   0.488  2.0754 -0.0522 -0.8828
 8557TIP3   OH247085   1.066   1.944   5.944 -0.4437  0.6654 -0.3412
 8557TIP3    H147086   0.972   1.927   5.948 -0.7881  2.8226  1.0974
 8557TIP3    H247087   1.075   2.023   5.890  0.5229  0.6748 -0.1824
 8558TIP3   OH247088   4.714   3.721   0.365  0.2335  0.1676 -0.3328
 8558TIP3    H147089   4.772   3.678   0.302  1.2082  1.3410 -0.2772
 8558TIP3    H247090   4.755   3.807   0.380 -1.1097  0.7187  0.3043
 8559TIP3   OH247091   3.997   1.888   4.293 -0.3307 -0.1369  0.5346
 8559TIP3    H147092   4.052   1.947   4.345 -1.0464  0.4485  0.6451
 8559TIP3    H247093   3.941   1.947   4.242  1.0123 -0.6846 -1.6371
 8560TIP3   OH247094   6.125   5.127   0.950  0.3945 -0.9409 -0.2520
 8560TIP3    H147095   6.154   5.047   0.993  1.2931 -0.4731  0.0363
 8560TIP3    H247096   6.191   5.192   0.973 -0.9748  0.2022  0.5188
 8561TIP3   OH247097   4.011   2.514  15.731 -1.1416  0.0824  0.4126
 8561TIP3    H147098   4.057   2.469  15.802  0.3163 -0.5251 -0.8689
 8561TIP3    H247099   3.940   2.562  15.774 -0.1498 -0.0876  2.2870
 8562TIP3   OH247100   4.832   1.394  11.430  0.1108 -0.1770 -0.3604
 8562TIP3    H147101   4.804   1.382  11.339 -1.7801  0.0270  0.1817
 8562TIP3    H247102   4.879   1.314  11.451  0.4760 -0.2714 -1.4875
 8563TIP3   OH247103   0.877   0.023  11.497 -0.5518 -0.1061  0.0836
 8563TIP3    H147104   0.834  -0.060  11.515 -2.0421  1.1227  2.4126
 8563TIP3    H247105   0.810   0.076  11.452  1.4647 -1.2812 -4.6011
 8564TIP3   OH247106   6.111   0.135  12.545  0.0576 -0.3144  0.5732
 8564TIP3    H147107   6.063   0.218  12.541 -0.0509 -0.3965  0.2163
 8564TIP3    H247108   6.126   0.111  12.454 -0.0121 -0.7500  0.6757
 8565TIP3   OH247109   5.180   6.522   4.211  0.2351 -0.2560 -0.3889
 8565TIP3    H147110   5.102   6.543   4.160 -0.7404 -0.5141  0.9530
 8565TIP3    H247111   5.235   6.600   4.204 -1.1416  0.8268  0.4645
 8566TIP3   OH247112   6.017   2.453  14.711  0.2878  0.6850 -0.3080
 8566TIP3    H147113   6.099   2.460  14.760 -1.2989 -0.4389  2.6508
 8566TIP3    H247114   6.027   2.373  14.659  1.8260  1.6533 -1.5545
 8567TIP3   OH247115   5.063   4.280   0.283  0.6520  0.0022  0.5392
 8567TIP3    H147116   5.156   4.264   0.298  0.0925 -2.8886  1.3141
 8567TIP3    H247117   5.029   4.307   0.369  0.7569  1.0560  0.2569
 8568TIP3   OH247118   1.492   3.432   2.684  0.0381 -0.2060 -0.7481
 8568TIP3    H147119   1.579   3.422   2.645 -0.0984 -1.1919 -0.8192
 8568TIP3    H247120   1.435   3.379   2.629 -0.2473 -1.1936  0.4698
 8569TIP3   OH247121   4.652   6.755   3.881 -0.2741  0.3560 -0.6251
 8569TIP3    H147122   4.563   6.788   3.874 -0.4542 -0.0478 -0.2681
 8569TIP3    H247123   4.689   6.799   3.957  0.5169  2.0743 -1.9814
 8570TIP3   OH247124   0.331   0.450  10.673  0.4347 -0.3420 -0.2290
 8570TIP3    H147125   0.312   0.384  10.607  2.3578 -0.0682 -1.0824
 8570TIP3    H247126   0.425   0.465  10.667  0.1013  2.2803  0.1142
 8571TIP3   OH247127   5.277   2.297   0.350 -0.2293 -0.3965  0.6466
 8571TIP3    H147128   5.327   2.276   0.429 -0.1908 -1.9362  0.2391
 8571TIP3    H247129   5.186   2.278   0.374 -0.4173  0.7448  0.8453
 8572TIP3   OH247130   4.251   1.208   2.021  0.4011  0.1884 -0.3916
 8572TIP3    H147131   4.210   1.259   1.951 -0.9435  0.8517  0.8552
 8572TIP3    H247132   4.338   1.187   1.987 -0.6758 -0.6357 -2.7951
 8573TIP3   OH247133   2.039   4.282  17.174 -0.7370  0.1220  1.1007
 8573TIP3    H147134   2.131   4.282  17.148 -1.4806 -0.0927 -1.7179
 8573TIP3    H247135   2.033   4.349  17.242  1.0176  2.0758 -0.5872
 8574TIP3   OH247136   4.328   3.671   0.873 -0.0059  0.5270  0.5271
 8574TIP3    H147137   4.396   3.722   0.917  0.2236  1.6631 -1.1073
 8574TIP3    H247138   4.250   3.684   0.927  0.6390  0.6117  1.4578
 8575TIP3   OH247139   3.830   4.716  11.141  0.9527 -0.1860 -0.4731
 8575TIP3    H147140   3.801   4.780  11.075  2.6820  1.1540  0.0254
 8575TIP3    H247141   3.824   4.632  11.096 -3.4181 -0.0002 -0.4664
 8576TIP3   OH247142   3.074   2.251   4.133 -0.3722  0.1823 -0.1844
 8576TIP3    H147143   2.987   2.222   4.105  0.4095  0.0995 -2.6251
 8576TIP3    H247144   3.134   2.216   4.067  1.1908  2.8274 -0.2315
 8577TIP3   OH247145   0.559   4.139   3.130 -0.0549  0.2878 -0.1583
 8577TIP3    H147146   0.572   4.233   3.140 -4.6727  0.9550  0.3655
 8577TIP3    H247147   0.527   4.127   3.041  0.7678 -0.8370 -0.3189
 8578TIP3   OH247148   1.195   5.779   5.428 -0.3235 -0.4263 -0.1235
 8578TIP3    H147149   1.284   5.744   5.434 -0.4016 -0.6243 -0.1094
 8578TIP3    H247150   1.207   5.869   5.397 -0.0848 -0.2561  0.4577
 8579TIP3   OH247151   2.448   5.295  15.223  0.1337  0.1761 -0.4261
 8579TIP3    H147152   2.541   5.279  15.208  0.5626 -0.1180  2.3088
 8579TIP3    H247153   2.441   5.390  15.233 -0.2649  0.4481 -2.9756
 8580TIP3   OH247154   6.608   6.270   5.031  0.8377  0.1153  0.1995
 8580TIP3    H147155   6.649   6.199   5.081 -0.2994 -1.2237 -0.7322
 8580TIP3    H247156   6.514   6.258   5.045  0.4992 -0.2942 -2.2647
 8581TIP3   OH247157   2.674   2.555   0.224 -0.5039  0.2176  0.0776
 8581TIP3    H147158   2.750   2.550   0.166  0.3006 -1.7929  1.2711
 8581TIP3    H247159   2.694   2.626   0.284  1.1413 -1.2348  1.3124
 8582TIP3   OH247160   4.883   3.053  12.811 -0.2604  0.1024  0.4820
 8582TIP3    H147161   4.805   3.039  12.758 -1.0667  0.9252  1.4417
 8582TIP3    H247162   4.938   2.977  12.792 -1.0284 -0.1996 -0.6408
 8583TIP3   OH247163   6.336   6.541   4.043 -0.4319  0.0488 -0.3386
 8583TIP3    H147164   6.294   6.545   3.958  0.1802 -2.5638 -0.8013
 8583TIP3    H247165   6.277   6.590   4.101 -1.5116  0.7314 -1.9792
 8584TIP3   OH247166   1.213   0.019   0.398 -0.0219 -0.1845  0.2496
 8584TIP3    H147167   1.167   0.035   0.480  0.5490  2.0915  0.1709
 8584TIP3    H247168   1.294  -0.024   0.424 -1.0573 -1.9569  0.6061
 8585TIP3   OH247169   5.769   5.664   0.436 -0.2510  0.3582 -0.1982
 8585TIP3    H147170   5.744   5.727   0.369  0.3340 -0.2541 -1.0063
 8585TIP3    H247171   5.864   5.666   0.437 -0.2612  1.2655  1.4975
 8586TIP3   OH247172   3.979   2.646  16.031  0.2730  0.2786  0.0709
 8586TIP3    H147173   4.041   2.575  16.047 -0.5929 -0.4842  0.1277
 8586TIP3    H247174   3.933   2.656  16.115  0.4769  0.9908  0.0957
 8587TIP3   OH247175   2.854   6.288  13.909 -0.0568 -0.3880 -0.2083
 8587TIP3    H147176   2.906   6.270  13.988  1.7693  0.7545 -1.1224
 8587TIP3    H247177   2.918   6.286  13.838 -1.3267  0.8122 -1.3976
 8588TIP3   OH247178   6.107   3.001   4.782 -0.5011  0.1349 -0.0864
 8588TIP3    H147179   6.180   2.992   4.721 -0.1306  1.2568  0.1796
 8588TIP3    H247180   6.030   2.972   4.732  0.0645 -0.6653 -0.4912
 8589TIP3   OH247181   0.621   2.096  13.701  0.0261 -0.2774 -0.0131
 8589TIP3    H147182   0.638   2.002  13.707  1.6552 -0.0088 -0.3274
 8589TIP3    H247183   0.562   2.114  13.775  0.5294 -1.3490  0.6616
 8590TIP3   OH247184   3.496   2.028   3.273  0.0744  0.0943 -0.1519
 8590TIP3    H147185   3.474   2.058   3.361  0.1970 -0.2730  0.0018
 8590TIP3    H247186   3.589   2.007   3.276 -0.4312 -2.2222  0.2924
 8591TIP3   OH247187   2.428   5.784   5.891 -0.0530 -0.4275  0.2926
 8591TIP3    H147188   2.516   5.822   5.892  0.4366 -1.6009  1.9004
 8591TIP3    H247189   2.440   5.693   5.915 -1.6603 -0.7376  0.0099
 8592TIP3   OH247190   3.417   1.185  10.693 -0.5164 -0.0528 -0.3026
 8592TIP3    H147191   3.396   1.267  10.737  4.8293  0.7859  1.0859
 8592TIP3    H247192   3.363   1.120  10.736 -1.7432  2.1059  1.5025
 8593TIP3   OH247193   4.824   4.398  14.969 -0.0343 -0.2254  0.4483
 8593TIP3    H147194   4.761   4.335  14.933  0.6886 -0.4828 -0.3799
 8593TIP3    H247195   4.795   4.483  14.936  0.3770 -0.4107 -0.3999
 8594TIP3   OH247196   3.673   6.671   4.090 -0.5560 -0.4402 -0.2951
 8594TIP3    H147197   3.642   6.617   4.164 -1.7610 -2.1155 -1.9634
 8594TIP3    H247198   3.652   6.761   4.116  0.8293 -0.7848  2.2338
 8595TIP3   OH247199   1.331   3.396   3.776 -0.2394  0.0212 -0.2037
 8595TIP3    H147200   1.303   3.327   3.836  1.6222 -1.0779 -0.5495
 8595TIP3    H247201   1.381   3.457   3.831  0.5354 -0.4177 -0.4025
 8596TIP3   OH247202   6.472   6.139   4.726 -0.4670 -0.5037 -0.0339
 8596TIP3    H147203   6.483   6.075   4.796  0.6494 -1.1472 -0.7714
 8596TIP3    H247204   6.384   6.175   4.739 -1.5837 -3.0551 -0.3102
 8597TIP3   OH247205   1.626   0.405   1.185 -0.1206 -0.6242 -0.4918
 8597TIP3    H147206   1.580   0.402   1.101  1.4723  1.8694 -1.5099
 8597TIP3    H247207   1.687   0.332   1.181 -1.2952 -1.6229 -0.7171
 8598TIP3   OH247208   4.386   1.887   1.646  0.7557 -0.1018  0.7226
 8598TIP3    H147209   4.351   1.950   1.582  2.0804  0.1003  0.1912
 8598TIP3    H247210   4.324   1.814   1.643 -0.3997  0.8448  0.8138
 8599TIP3   OH247211   4.038   5.308   4.682 -0.4295  0.0809 -0.3939
 8599TIP3    H147212   4.123   5.324   4.641  0.8493  3.1569  3.0747
 8599TIP3    H247213   4.058   5.255   4.759 -1.9424 -0.7883 -0.5742
 8600TIP3   OH247214   4.862   2.969   2.856 -1.4066  0.2866  0.2230
 8600TIP3    H147215   4.895   2.883   2.879 -2.2915 -1.1300 -3.3722
 8600TIP3    H247216   4.770   2.968   2.882 -1.5341 -0.0658 -0.2227
 8601TIP3   OH247217   1.300   0.117  11.531  0.3228 -0.2383 -0.4627
 8601TIP3    H147218   1.352   0.153  11.459  0.7446 -0.2591 -0.1700
 8601TIP3    H247219   1.277   0.194  11.584  3.0475 -0.6100  1.3605
 8602TIP3   OH247220   4.846   2.055   1.857 -0.1795 -0.3693  0.2185
 8602TIP3    H147221   4.799   2.134   1.883  1.5348  1.2554 -1.4435
 8602TIP3    H247222   4.822   2.041   1.765  0.5557 -0.9903  0.1122
 8603TIP3   OH247223   1.708   0.641   4.113  0.8422  0.2022  0.1073
 8603TIP3    H147224   1.796   0.616   4.139 -0.1810 -2.8421  0.8618
 8603TIP3    H247225   1.697   0.601   4.026 -0.4920 -1.2273  0.9100
 8604TIP3   OH247226   2.281   5.140   3.796 -0.0964 -0.2837 -0.1064
 8604TIP3    H147227   2.190   5.167   3.783 -0.4459 -1.2552  0.3444
 8604TIP3    H247228   2.292   5.064   3.740  0.7159  0.3862 -0.8731
 8605TIP3   OH247229   4.702   2.647   2.350  0.3578 -0.0832  0.3387
 8605TIP3    H147230   4.701   2.615   2.260 -0.5451  0.1700  0.2511
 8605TIP3    H247231   4.625   2.608   2.390  0.3820  0.3490  0.8089
 8606TIP3   OH247232   4.485   0.527   0.550  0.7550  0.4158 -0.1521
 8606TIP3    H147233   4.526   0.455   0.503  1.7596  1.2653 -0.5862
 8606TIP3    H247234   4.519   0.606   0.509 -1.3019  1.1482 -0.5032
 8607TIP3   OH247235   5.301   2.527  14.914  0.1303  1.2100 -0.0510
 8607TIP3    H147236   5.208   2.546  14.928  0.2289  1.4274  0.3284
 8607TIP3    H247237   5.308   2.432  14.927 -0.1650  1.0858 -0.8039
 8608TIP3   OH247238   1.368   4.335  11.885  0.2309 -0.0431  0.4820
 8608TIP3    H147239   1.447   4.386  11.870  0.3353 -0.4167 -0.2540
 8608TIP3    H247240   1.390   4.246  11.858 -0.1506 -0.3524  1.1572
 8609TIP3   OH247241   1.248   0.945   5.010  0.2903  0.1553 -0.2662
 8609TIP3    H147242   1.228   0.986   5.094  1.7923 -1.1672  0.7855
 8609TIP3    H247243   1.188   0.985   4.948 -1.0690  0.9277  1.5105
 8610TIP3   OH247244   3.101   5.140  17.014 -0.4904  0.3899 -0.5669
 8610TIP3    H147245   3.119   5.050  17.039 -0.3916  0.0591 -1.7927
 8610TIP3    H247246   3.006   5.149  17.025 -0.3542  0.4671  0.5811
 8611TIP3   OH247247   6.699   4.265   4.165 -0.0567 -0.2015 -0.0776
 8611TIP3    H147248   6.689   4.171   4.181 -0.0285  0.0684  1.5312
 8611TIP3    H247249   6.747   4.270   4.082 -0.5512 -1.5980 -0.4580
 8612TIP3   OH247250   5.241   4.121  15.434  0.1685 -0.0924  0.2932
 8612TIP3    H147251   5.259   4.215  15.434 -3.2391  0.6357 -1.6086
 8612TIP3    H247252   5.257   4.094  15.344 -0.4386 -0.9926  0.4530
 8613TIP3   OH247253   2.812   0.077  15.862  0.1604 -0.1470  0.4580
 8613TIP3    H147254   2.724   0.096  15.830  0.4701 -0.7243 -0.7961
 8613TIP3    H247255   2.831   0.147  15.924 -0.9107  0.3737  0.2050
 8614TIP3   OH247256   2.288   3.535  11.430 -0.4465  0.3806 -0.2304
 8614TIP3    H147257   2.345   3.578  11.366 -1.4536  1.4368 -0.4220
 8614TIP3    H247258   2.229   3.481  11.377 -0.6733  0.5271 -0.1224
 8615TIP3   OH247259   6.726   4.288   1.714  0.3504 -0.3160  0.0143
 8615TIP3    H147260   6.714   4.367   1.661 -2.0742 -0.8082 -0.2402
 8615TIP3    H247261   6.747   4.320   1.802  1.1553  0.5595 -0.4910
 8616TIP3   OH247262   6.268   4.573   1.248 -0.0654 -0.1491 -0.4287
 8616TIP3    H147263   6.299   4.653   1.291  0.8925  0.3528 -2.0284
 8616TIP3    H247264   6.324   4.504   1.281 -0.8131 -0.1571  0.8636
 8617TIP3   OH247265   0.158   4.448  12.071  0.0306 -0.6273 -0.0458
 8617TIP3    H147266   0.246   4.452  12.109 -0.6893  2.4511  1.5062
 8617TIP3    H247267   0.173   4.440  11.977  2.0038  0.4325  0.1448
 8618TIP3   OH247268   0.623   1.388  16.301  0.3226  0.7256 -0.1671
 8618TIP3    H147269   0.560   1.342  16.357  1.6156 -0.1209  0.6230
 8618TIP3    H247270   0.576   1.402  16.219 -1.1413  0.7619  0.6534
 8619TIP3   OH247271   0.289   3.323   2.860  0.0906 -0.8211  0.2761
 8619TIP3    H147272   0.331   3.348   2.943 -0.0930  0.7936 -0.1007
 8619TIP3    H247273   0.352   3.349   2.793 -0.0605 -1.5046 -0.1375
 8620TIP3   OH247274   5.365   6.399  14.193 -0.3654 -0.0606  1.0646
 8620TIP3    H147275   5.392   6.356  14.112  0.6756  1.4839  0.5622
 8620TIP3    H247276   5.311   6.334  14.238 -1.9626 -0.5330 -1.4098
 8621TIP3   OH247277   5.672   1.195   0.090  0.1395  0.1827  0.4990
 8621TIP3    H147278   5.641   1.258   0.025  0.1754  0.4176  0.7093
 8621TIP3    H247279   5.762   1.177   0.064 -0.0443 -0.2036  0.1162
 8622TIP3   OH247280   6.124   0.487   0.966 -0.3522  0.7463 -0.1074
 8622TIP3    H147281   6.119   0.490   1.061 -0.1648  2.2214 -0.1326
 8622TIP3    H247282   6.214   0.513   0.945 -0.1789 -0.2710 -0.6577
 8623TIP3   OH247283   4.110   3.593   4.985  0.2353 -1.0591  0.0045
 8623TIP3    H147284   4.043   3.536   5.024 -0.5303 -0.5246 -0.5215
 8623TIP3    H247285   4.151   3.635   5.060 -0.2200 -1.1655  0.3168
 8624TIP3   OH247286   6.653   2.010   6.393 -0.5806 -0.1563 -0.3231
 8624TIP3    H147287   6.608   2.007   6.309 -1.9713 -1.0004  0.4516
 8624TIP3    H247288   6.744   2.030   6.370 -1.2317  1.1130 -1.9164
 8625TIP3   OH247289   3.344   1.814  14.354 -0.5755 -0.4760 -0.1806
 8625TIP3    H147290   3.322   1.889  14.298 -0.4080 -0.8612 -0.7672
 8625TIP3    H247291   3.328   1.737  14.298  2.1692 -0.7743 -0.6204
 8626TIP3   OH247292   2.773   0.816   4.346  0.2038  0.1701 -0.0712
 8626TIP3    H147293   2.797   0.737   4.298  0.3224 -1.0186  1.9262
 8626TIP3    H247294   2.827   0.815   4.425 -0.2279  1.9271  0.2785
 8627TIP3   OH247295   3.466   5.245   4.541  0.4566 -0.8317 -0.2741
 8627TIP3    H147296   3.466   5.338   4.561 -0.4423 -0.5306 -1.6175
 8627TIP3    H247297   3.440   5.240   4.449  1.1302 -2.3692 -0.3959
 8628TIP3   OH247298   2.666   4.918   1.947  0.0438  0.5772  0.0940
 8628TIP3    H147299   2.703   4.985   2.005  2.0904 -1.2755  1.0366
 8628TIP3    H247300   2.672   4.837   1.998 -2.0992 -0.3983 -1.1282
 8629TIP3   OH247301   4.457   3.200  16.415 -0.0821 -0.0789  0.1109
 8629TIP3    H147302   4.551   3.189  16.433 -0.2802 -2.0116  0.0184
 8629TIP3    H247303   4.448   3.183  16.322 -0.7722 -1.6684  0.4561
 8630TIP3   OH247304   1.918   3.734  10.377 -0.2066  0.0751 -0.3667
 8630TIP3    H147305   1.874   3.685  10.308 -2.9284  0.2028  1.2120
 8630TIP3    H247306   1.861   3.725  10.453  2.0487  1.0571  1.4977
 8631TIP3   OH247307   0.141   3.654  10.771  0.0106  0.3162  0.0964
 8631TIP3    H147308   0.196   3.724  10.807 -0.5276  0.1107  1.3575
 8631TIP3    H247309   0.173   3.641  10.682  4.8140 -2.6455  2.0487
 8632TIP3   OH247310   2.337   1.228   4.744 -0.0280 -0.2503 -0.2380
 8632TIP3    H147311   2.274   1.186   4.803 -1.6189 -0.1364 -1.8091
 8632TIP3    H247312   2.402   1.267   4.803 -0.3162 -2.0686  1.3546
 8633TIP3   OH247313   3.434   5.197  12.679 -0.0798 -0.7523 -0.4057
 8633TIP3    H147314   3.452   5.105  12.701  0.6358 -0.7486 -0.9334
 8633TIP3    H247315   3.496   5.216  12.608  0.3231  0.3810  0.2471
 8634TIP3   OH247316   6.405   3.744  14.470  0.8694  0.6934  0.0500
 8634TIP3    H147317   6.373   3.751  14.560  0.7576  0.9236 -0.0073
 8634TIP3    H247318   6.349   3.677  14.430 -0.2845  1.8993 -0.3723
 8635TIP3   OH247319   1.723   6.370   4.754  0.1329 -0.1656 -0.3039
 8635TIP3    H147320   1.774   6.423   4.694  1.9214 -0.0823  1.2238
 8635TIP3    H247321   1.786   6.308   4.791 -1.1275 -0.8760  0.7200
 8636TIP3   OH247322   4.354   4.204   0.887 -0.3567  0.0300 -0.0811
 8636TIP3    H147323   4.260   4.187   0.882 -0.4962  0.8673 -0.3418
 8636TIP3    H247324   4.363   4.296   0.861  0.3535  0.4266  1.5273
 8637TIP3   OH247325   1.372   2.399   5.956  0.4730 -0.0071 -0.0810
 8637TIP3    H147326   1.466   2.418   5.948  0.7328 -0.3291  2.0402
 8637TIP3    H247327   1.353   2.343   5.880  1.7455  0.9694 -1.1319
 8638TIP3   OH247328   2.362   5.300  14.927 -0.0935 -0.4166  0.3338
 8638TIP3    H147329   2.328   5.258  15.007  0.1861  0.0965  0.7239
 8638TIP3    H247330   2.455   5.279  14.927 -0.3196 -1.4841 -0.5271
 8639TIP3   OH247331   0.104   3.156   2.642 -0.5013  0.7095  0.1398
 8639TIP3    H147332   0.087   3.200   2.726 -1.2634 -1.0059  0.9088
 8639TIP3    H247333   0.034   3.091   2.635  2.0610 -2.1254  0.2318
 8640TIP3   OH247334   6.151   3.300  15.001  0.6100 -0.7609 -0.2467
 8640TIP3    H147335   6.238   3.306  14.962 -0.1057  1.8989 -1.5630
 8640TIP3    H247336   6.154   3.361  15.075 -1.1149  2.0638 -2.3805
 8641TIP3   OH247337   3.648   1.896  12.271  0.4431  0.2069  0.2127
 8641TIP3    H147338   3.584   1.908  12.341 -0.2064 -0.3412 -0.2871
 8641TIP3    H247339   3.605   1.837  12.208  0.3947  1.9221 -1.4255
 8642TIP3   OH247340   1.480   3.541   3.573 -0.2710 -0.4845 -0.2817
 8642TIP3    H147341   1.417   3.591   3.522 -0.0761  0.4857  0.4248
 8642TIP3    H247342   1.426   3.477   3.621 -0.6586 -0.0743 -0.1628
 8643TIP3   OH247343   3.394   1.445  13.936  0.5613  0.4392 -0.2469
 8643TIP3    H147344   3.381   1.400  13.852  0.2479  1.0126 -0.5127
 8643TIP3    H247345   3.404   1.537  13.912  1.6473  0.4586  0.2525
 8644TIP3   OH247346   1.209   5.658   0.148 -0.3905 -0.3923 -0.0241
 8644TIP3    H147347   1.124   5.687   0.115 -0.0383 -1.0451 -1.5666
 8644TIP3    H247348   1.255   5.628   0.070  1.9982  1.7458  0.5073
 8645TIP3   OH247349   5.185   0.838  11.618 -0.6951  0.0059 -0.5058
 8645TIP3    H147350   5.221   0.826  11.530 -0.9582  1.7141 -0.8494
 8645TIP3    H247351   5.261   0.849  11.675 -0.5472 -0.5588 -0.5871
 8646TIP3   OH247352   4.487   6.756  11.901 -0.1891 -0.5320 -0.7097
 8646TIP3    H147353   4.447   6.840  11.878 -0.8469 -0.9809 -1.2442
 8646TIP3    H247354   4.581   6.774  11.905 -0.5537  0.9722  2.4168
 8647TIP3   OH247355   6.029   3.658   5.557 -0.1553  0.1424 -0.3568
 8647TIP3    H147356   5.953   3.715   5.565  0.9008  1.4517  0.4738
 8647TIP3    H247357   6.085   3.701   5.493  0.5106 -0.1002  0.0566
 8648TIP3   OH247358   3.763   2.868   2.734 -0.0218  0.3967  0.2601
 8648TIP3    H147359   3.743   2.791   2.789 -2.0441  0.0768 -0.8723
 8648TIP3    H247360   3.834   2.912   2.780  0.5498 -1.6577  1.4264
 8649TIP3   OH247361   2.675   5.639   3.319 -0.2352  0.7991  0.2086
 8649TIP3    H147362   2.738   5.568   3.327 -0.0771  0.9304  0.1314
 8649TIP3    H247363   2.719   5.715   3.356 -0.6570  0.7049  0.9073
 8650TIP3   OH247364   3.498   3.514   3.661  0.6054 -0.4431 -0.0185
 8650TIP3    H147365   3.476   3.501   3.569 -1.9537 -1.6703  0.7293
 8650TIP3    H247366   3.427   3.568   3.695  0.8870 -1.0387  1.5505
 8651TIP3   OH247367   3.980   3.083  14.965  0.0031 -0.3616  0.3405
 8651TIP3    H147368   3.973   2.992  14.994 -1.5937 -0.8547 -1.5004
 8651TIP3    H247369   3.953   3.135  15.041 -0.6758 -1.4962  0.8833
 8652TIP3   OH247370   5.767   3.734   0.023  0.5374  0.1836 -0.3760
 8652TIP3    H147371   5.723   3.817   0.003 -0.6979 -0.2808  0.3412
 8652TIP3    H247372   5.704   3.667  -0.004  0.1053 -0.4927  2.1438
 8653TIP3   OH247373   2.111   5.964  12.826  0.1652  0.5792  0.3481
 8653TIP3    H147374   2.178   5.964  12.757  1.8828  1.4700  1.9932
 8653TIP3    H247375   2.064   6.046  12.812  0.2433  0.5686 -0.0031
 8654TIP3   OH247376   1.794   1.751  15.976  0.3314  0.2415  0.3260
 8654TIP3    H147377   1.710   1.747  16.023 -0.4771  0.2482 -1.0912
 8654TIP3    H247378   1.815   1.845  15.974  0.9563  0.1331  1.6902
 8655TIP3   OH247379   6.672   6.357   4.209  0.4529  0.6379 -0.0209
 8655TIP3    H147380   6.704   6.267   4.219  1.5012  1.2665  2.5761
 8655TIP3    H247381   6.662   6.368   4.114 -1.3440 -2.7575 -0.3046
 8656TIP3   OH247382   1.818   3.269   5.912  0.2655  0.2815 -0.0271
 8656TIP3    H147383   1.839   3.358   5.941  0.4044  0.0183  0.6753
 8656TIP3    H247384   1.724   3.260   5.928  0.0144  0.7063 -1.1848
 8657TIP3   OH247385   5.570   3.978  16.298  0.1032 -0.4753  0.2732
 8657TIP3    H147386   5.507   3.989  16.370 -1.4733 -2.3857 -0.7867
 8657TIP3    H247387   5.636   3.919  16.334  0.3309  0.0760  0.7751
 8658TIP3   OH247388   4.864   3.248  11.173 -0.7302  0.5729  0.0743
 8658TIP3    H147389   4.942   3.302  11.189 -0.3049 -0.1691  0.5754
 8658TIP3    H247390   4.800   3.309  11.138  0.6084  0.8871 -1.8924
 8659TIP3   OH247391   6.273   0.833   3.278 -0.2178 -0.1736 -0.0971
 8659TIP3    H147392   6.368   0.840   3.282 -0.3963  2.1750  0.8817
 8659TIP3    H247393   6.248   0.887   3.203 -0.9398  1.2448  1.1421
 8660TIP3   OH247394   1.657   4.745  16.325  0.1377  0.2437  0.4571
 8660TIP3    H147395   1.652   4.690  16.403 -0.5899 -0.9573 -0.4268
 8660TIP3    H247396   1.741   4.722  16.284 -1.1112 -1.7416 -1.0250
 8661TIP3   OH247397   0.342   4.953   1.737 -0.1187  0.1448 -0.3678
 8661TIP3    H147398   0.376   4.917   1.655 -0.8502 -0.6458 -0.3363
 8661TIP3    H247399   0.253   4.919   1.743  0.3525 -0.8416  1.3710
 8662TIP3   OH247400   2.911   0.051   1.645  0.2250 -0.1282 -0.0999
 8662TIP3    H147401   2.939   0.100   1.723 -1.9553 -0.4242  0.9161
 8662TIP3    H247402   2.890   0.119   1.581  3.6596  0.0922 -1.0880
 8663TIP3   OH247403   2.849   2.386   1.508 -0.2520  0.5488  0.3090
 8663TIP3    H147404   2.841   2.481   1.501 -0.0969  0.5772  0.4949
 8663TIP3    H247405   2.940   2.372   1.535  0.8488  0.1656 -3.4043
 8664TIP3   OH247406   5.551   6.403  13.817 -0.3850 -0.5245 -0.8506
 8664TIP3    H147407   5.508   6.418  13.901 -0.9407 -1.9473 -0.8692
 8664TIP3    H247408   5.494   6.341  13.771  0.4293 -0.5366 -1.8667
 8665TIP3   OH247409   0.108   3.064   0.361 -0.3230  0.3015  0.2622
 8665TIP3    H147410   0.047   3.112   0.306 -2.3798 -0.7451  1.5769
 8665TIP3    H247411   0.179   3.039   0.302 -1.0614  1.6714 -1.2494
 8666TIP3   OH247412   2.551   1.957   3.236  0.1953 -0.1015  0.2366
 8666TIP3    H147413   2.599   2.039   3.245  1.8873 -1.1274  0.9600
 8666TIP3    H247414   2.511   1.943   3.322  1.6395 -1.0405  0.7861
 8667TIP3   OH247415   5.945   5.758   4.258  0.3673  0.2385  0.0279
 8667TIP3    H147416   5.968   5.787   4.169  1.1267 -3.6130 -1.1397
 8667TIP3    H247417   5.851   5.771   4.265  0.8251  3.9723  0.0393
 8668TIP3   OH247418   3.463   2.920  14.701  0.0857 -0.4398 -1.1566
 8668TIP3    H147419   3.554   2.895  14.691 -0.0861 -0.3912 -3.1084
 8668TIP3    H247420   3.466   3.008  14.739  0.8569 -0.1541 -1.8815
 8669TIP3   OH247421   2.609   2.950  16.065 -0.5950 -0.6686  0.0082
 8669TIP3    H147422   2.542   2.888  16.094 -1.0723 -0.4865 -0.6947
 8669TIP3    H247423   2.649   2.909  15.989  1.4410 -1.6678  1.5663
 8670TIP3   OH247424   2.242   5.241   3.243 -0.0921 -0.3921 -0.0021
 8670TIP3    H147425   2.201   5.328   3.249  0.1121 -0.2794 -0.2420
 8670TIP3    H247426   2.331   5.259   3.215  0.0841 -0.6507  0.3977
 8671TIP3   OH247427   1.725   4.507   0.271 -0.2000  0.2679  0.0435
 8671TIP3    H147428   1.663   4.500   0.198  1.4750  0.4069 -1.4434
 8671TIP3    H247429   1.711   4.595   0.306  0.0177  0.7680 -1.0918
 8672TIP3   OH247430   2.772   3.469  15.719 -0.3723 -0.1315  0.1028
 8672TIP3    H147431   2.812   3.539  15.771  0.2080 -1.2120  1.1520
 8672TIP3    H247432   2.827   3.392  15.737  0.1371 -0.4132 -2.5045
 8673TIP3   OH247433   0.731   4.596  15.768  0.4381 -0.3195 -0.5197
 8673TIP3    H147434   0.732   4.596  15.864  0.2016 -0.5883 -0.5169
 8673TIP3    H247435   0.799   4.534  15.743  0.2479 -0.5272 -0.5217
 8674TIP3   OH247436   4.090   5.303  13.821 -0.1545 -0.0504 -0.1567
 8674TIP3    H147437   4.020   5.295  13.885 -0.1677  1.0901 -0.0147
 8674TIP3    H247438   4.094   5.217  13.779  0.0396 -0.8881  1.5459
 8675TIP3   OH247439   5.621   4.098  11.801  0.2740 -0.0103 -0.2531
 8675TIP3    H147440   5.554   4.104  11.869  0.7157 -1.0049  0.2726
 8675TIP3    H247441   5.703   4.084  11.848  0.4593 -1.6032 -1.0128
 8676TIP3   OH247442   5.739   3.236   0.341 -0.2600 -0.8526  0.0515
 8676TIP3    H147443   5.778   3.266   0.259  1.2762 -1.0946  0.6765
 8676TIP3    H247444   5.645   3.246   0.328  0.0302  0.2607 -1.2870
 8677TIP3   OH247445   4.146   1.309  15.126 -0.3539 -0.0122  0.1313
 8677TIP3    H147446   4.163   1.288  15.217  0.6316  3.8703  0.9210
 8677TIP3    H247447   4.051   1.305  15.117 -0.3737 -1.7054  0.9446
 8678TIP3   OH247448   3.368   1.521  14.829 -0.0975 -0.2340  0.6805
 8678TIP3    H147449   3.435   1.453  14.822  1.1159  1.0843 -0.8431
 8678TIP3    H247450   3.417   1.601  14.846 -1.4121  0.5067  1.0336
 8679TIP3   OH247451   5.370   0.628  15.989 -0.0861 -0.1538 -0.3164
 8679TIP3    H147452   5.320   0.704  16.018 -1.2732 -1.0525 -0.0152
 8679TIP3    H247453   5.452   0.633  16.039 -0.6074  0.3084  0.4952
 8680TIP3   OH247454   0.663   2.906   5.130 -0.0650  0.5050 -0.2900
 8680TIP3    H147455   0.568   2.899   5.137  0.0890 -0.7683  0.7018
 8680TIP3    H247456   0.694   2.905   5.221  1.0190 -0.9365 -0.6570
 8681TIP3   OH247457   5.014   6.053   5.300 -0.4823  0.0426  0.5562
 8681TIP3    H147458   5.095   6.066   5.251 -0.1045 -1.3541  0.7757
 8681TIP3    H247459   4.997   5.959   5.294 -2.8848  0.5294 -0.7030
 8682TIP3   OH247460   4.634   5.703  14.778 -0.2794 -0.5868  0.5716
 8682TIP3    H147461   4.600   5.670  14.695 -0.0653 -0.7807  0.5587
 8682TIP3    H247462   4.558   5.709  14.835 -0.4048 -0.5805  0.4028
 8683TIP3   OH247463   4.279   2.586   0.530  0.0344 -0.3163 -0.2848
 8683TIP3    H147464   4.352   2.539   0.569  0.5659 -0.6269 -1.6321
 8683TIP3    H247465   4.224   2.611   0.605  3.0433  2.5671  1.0957
 8684TIP3   OH247466   5.944   5.353  11.714  0.0300  0.5699 -0.3948
 8684TIP3    H147467   5.952   5.274  11.660 -1.9756 -0.6150  0.9755
 8684TIP3    H247468   6.017   5.346  11.776 -0.8706 -0.8987  0.5400
 8685TIP3   OH247469   2.473   3.512   1.003 -0.2863 -0.3956 -0.1639
 8685TIP3    H147470   2.389   3.557   0.992 -0.8614 -0.9641  1.6291
 8685TIP3    H247471   2.493   3.476   0.917 -1.3101  0.7350 -0.8875
 8686TIP3   OH247472   3.292   0.374  10.772  0.1342 -0.4534 -0.4511
 8686TIP3    H147473   3.276   0.307  10.705  1.4557 -1.1549 -0.0858
 8686TIP3    H247474   3.353   0.332  10.832 -0.9677  0.2014  1.1509
 8687TIP3   OH247475   1.642   4.557  14.972  0.0756  0.4381 -0.0783
 8687TIP3    H147476   1.585   4.529  14.900  0.7661 -0.0693 -0.4386
 8687TIP3    H247477   1.601   4.636  15.007 -1.2168 -0.3022  0.1086
 8688TIP3   OH247478   3.833   4.722  13.450 -0.0922  0.7706 -0.1429
 8688TIP3    H147479   3.847   4.774  13.371 -1.9796  1.3407 -0.1137
 8688TIP3    H247480   3.901   4.655  13.446  0.7948  1.7142 -1.4587
 8689TIP3   OH247481   6.089   1.830   3.793  0.2115  0.3843  0.2386
 8689TIP3    H147482   6.018   1.787   3.840  1.6025 -1.5457  0.6543
 8689TIP3    H247483   6.089   1.788   3.707  0.8781  0.3024  0.2732
 8690TIP3   OH247484   4.562   5.212  16.049 -0.6005  0.3660 -0.3249
 8690TIP3    H147485   4.634   5.166  16.006 -1.5314 -1.2429 -0.2025
 8690TIP3    H247486   4.585   5.305  16.041  1.3599 -0.1070 -0.4888
 8691TIP3   OH247487   0.803   4.835  16.724 -0.4050 -0.3776  0.0432
 8691TIP3    H147488   0.874   4.782  16.761 -0.3065  0.3369  0.8980
 8691TIP3    H247489   0.834   4.859  16.636  1.0634  1.1429  0.9433
 8692TIP3   OH247490   6.689   3.651   3.961 -0.1134 -0.3158 -0.8539
 8692TIP3    H147491   6.734   3.661   4.045 -0.9978 -0.4961 -0.3476
 8692TIP3    H247492   6.609   3.603   3.983 -0.2510 -0.5402 -1.8327
 8693TIP3   OH247493   6.689   3.988   4.138  0.2096  0.5103 -0.3843
 8693TIP3    H147494   6.609   3.968   4.186  1.4939  1.1345  2.0909
 8693TIP3    H247495   6.693   3.923   4.069 -1.1027 -1.1429  1.0587
 8694TIP3   OH247496   1.580   4.440  13.107 -0.3361  0.3981  0.3186
 8694TIP3    H147497   1.628   4.463  13.028 -0.0697 -3.3716 -0.7231
 8694TIP3    H247498   1.492   4.475  13.093  0.6455  2.8095 -0.0454
 8695TIP3   OH247499   3.106   5.003  14.408  0.4145  0.1126 -0.4585
 8695TIP3    H147500   3.030   5.011  14.465  0.5338  0.2955 -0.3247
 8695TIP3    H247501   3.144   4.918  14.432  1.1418  0.7216  0.5725
 8696TIP3   OH247502   4.991   1.468  15.932  0.4483  0.0355  0.4952
 8696TIP3    H147503   4.949   1.452  15.848 -0.8313 -0.0294  1.1394
 8696TIP3    H247504   4.998   1.382  15.973 -1.9305  0.4600  1.8500
 8697TIP3   OH247505   5.811   3.409   2.853  0.3874  0.7086 -0.4631
 8697TIP3    H147506   5.816   3.320   2.889  0.5495  1.0071  0.2508
 8697TIP3    H247507   5.750   3.401   2.779  1.4437 -0.2708 -1.2519
 8698TIP3   OH247508   4.045   3.307   3.879  0.1933  0.1755  0.2833
 8698TIP3    H147509   4.076   3.374   3.819  2.0634 -1.9220 -1.1709
 8698TIP3    H247510   3.950   3.317   3.878  0.3647  2.0444 -0.7728
 8699TIP3   OH247511   5.778   4.648   3.871 -0.0011 -0.1649  1.0679
 8699TIP3    H147512   5.706   4.586   3.881  0.0803 -0.0824  2.2935
 8699TIP3    H247513   5.760   4.716   3.936  0.4466  0.5788  0.4260
 8700TIP3   OH247514   3.514   5.673  14.137 -0.2476 -0.1539 -0.0798
 8700TIP3    H147515   3.530   5.759  14.176 -0.1096 -0.7104  1.1307
 8700TIP3    H247516   3.586   5.619  14.169  0.2720 -0.4480 -1.7284
 8701TIP3   OH247517   3.022   1.538   2.179  0.4921 -0.3384  0.1628
 8701TIP3    H147518   2.967   1.523   2.102 -0.1786  2.3477  0.0642
 8701TIP3    H247519   2.987   1.480   2.246 -0.8072 -0.5524 -0.6862
 8702TIP3   OH247520   1.302   0.850   3.596  0.0715 -0.0676 -0.5192
 8702TIP3    H147521   1.320   0.898   3.516 -0.6967 -2.3793 -2.1239
 8702TIP3    H247522   1.377   0.792   3.607 -1.0151 -1.6059 -1.0217
 8703TIP3   OH247523   4.291   3.637   1.889 -0.3434 -0.2626 -0.8019
 8703TIP3    H147524   4.343   3.566   1.850 -0.0066 -0.0902 -0.6735
 8703TIP3    H247525   4.260   3.688   1.815  2.0071  1.2713 -0.8033
 8704TIP3   OH247526   4.197   0.928   3.755  0.1230 -0.0668 -0.3072
 8704TIP3    H147527   4.122   0.876   3.725  0.5197 -1.0276  0.3146
 8704TIP3    H247528   4.241   0.871   3.819  0.3719  1.1796  0.6508
 8705TIP3   OH247529   5.082   0.954   0.393 -0.8541 -0.1199 -0.0079
 8705TIP3    H147530   5.096   0.874   0.444 -1.2356 -0.9351 -1.1558
 8705TIP3    H247531   4.996   0.986   0.422 -0.8257 -0.2790  0.2546
 8706TIP3   OH247532   0.084   0.187  14.475  0.2817  0.1432 -0.1880
 8706TIP3    H147533   0.085   0.105  14.525  0.2038  0.7911  0.8777
 8706TIP3    H247534   0.040   0.164  14.393 -0.3195 -0.7341  0.3706
 8707TIP3   OH247535   6.088   0.776   4.415  0.0024  0.6543 -0.1625
 8707TIP3    H147536   6.028   0.756   4.343  1.6595 -0.5538 -1.2569
 8707TIP3    H247537   6.093   0.694   4.465  0.9093  0.6641 -0.2239
 8708TIP3   OH247538   3.471   3.130   5.309 -0.2814  0.3543  0.0238
 8708TIP3    H147539   3.470   3.122   5.404 -1.4636  1.0401  0.0844
 8708TIP3    H247540   3.388   3.173   5.288  0.5513  1.4215 -1.2037
 8709TIP3   OH247541   0.103   0.669  14.895  0.4722 -0.3251  0.1812
 8709TIP3    H147542   0.112   0.763  14.877  1.2230 -0.3297  0.4898
 8709TIP3    H247543   0.124   0.627  14.812  0.9192 -0.2433  0.2499
 8710TIP3   OH247544   2.980   2.851  10.314 -0.1924  0.4860  0.4096
 8710TIP3    H147545   2.942   2.906  10.382  0.3259 -0.0986  1.1864
 8710TIP3    H247546   2.905   2.802  10.279 -0.9907  3.1428 -1.7119
 8711TIP3   OH247547   1.765   1.355  13.117 -0.2379  0.0573  0.5881
 8711TIP3    H147548   1.776   1.338  13.023  4.4057  2.0508  0.6169
 8711TIP3    H247549   1.756   1.268  13.157  3.1856 -1.2082 -1.2073
 8712TIP3   OH247550   2.546   5.635   6.411 -0.0749 -0.0912 -0.3423
 8712TIP3    H147551   2.494   5.663   6.487 -0.5533  2.9514 -1.6897
 8712TIP3    H247552   2.614   5.702   6.403  1.4965 -1.7443 -1.1292
 8713TIP3   OH247553   6.389   0.047   1.306 -0.1024 -0.0445 -0.1326
 8713TIP3    H147554   6.471   0.038   1.355  0.6885 -1.5883 -1.6966
 8713TIP3    H247555   6.407   0.115   1.242  0.6038 -1.6474 -1.6886
 8714TIP3   OH247556   2.843   4.320  11.349 -0.0604  0.5325 -0.3394
 8714TIP3    H147557   2.853   4.404  11.395 -2.3392  0.3040  0.6289
 8714TIP3    H247558   2.927   4.277  11.360 -0.0585  1.1149  2.4206
 8715TIP3   OH247559   1.323   2.054  13.102  0.0845  0.7090  0.0774
 8715TIP3    H147560   1.331   2.089  13.013  0.2339 -0.0110 -0.1979
 8715TIP3    H247561   1.398   2.091  13.149  0.5594  0.3075 -0.3581
 8716TIP3   OH247562   3.604   0.046   1.201 -0.1121 -0.3160 -0.2392
 8716TIP3    H147563   3.531  -0.010   1.227  0.9764 -1.0825  1.2523
 8716TIP3    H247564   3.603   0.043   1.105 -1.5919 -0.8838 -0.2306
 8717TIP3   OH247565   5.483   0.325  12.412  0.5446 -0.0029  0.2752
 8717TIP3    H147566   5.565   0.332  12.363  0.1464  1.1346 -0.2630
 8717TIP3    H247567   5.480   0.406  12.464 -0.4388  0.1625 -0.0348
 8718TIP3   OH247568   2.087   4.235  11.150 -0.1511 -0.1603  0.0782
 8718TIP3    H147569   2.148   4.162  11.160  0.8789  0.7257  0.3487
 8718TIP3    H247570   2.098   4.262  11.059 -0.5381 -0.3375 -0.0241
 8719TIP3   OH247571   3.457   2.612   4.410  0.1898 -0.1969 -0.1388
 8719TIP3    H147572   3.535   2.619   4.354 -0.2552 -1.0017 -0.8773
 8719TIP3    H247573   3.421   2.526   4.390 -1.0086  0.2521  0.0395
 8720TIP3   OH247574   0.602   0.500   1.192 -0.5721 -0.1829 -0.2949
 8720TIP3    H147575   0.659   0.440   1.241  0.8390  0.6080 -0.9291
 8720TIP3    H247576   0.585   0.572   1.254  0.6142  0.4572 -0.6780
 8721TIP3   OH247577   5.707   4.214  14.240 -0.1824  0.9085  0.1031
 8721TIP3    H147578   5.681   4.304  14.221 -0.2511  1.0744  0.9524
 8721TIP3    H247579   5.624   4.166  14.245 -0.0266  0.2869 -2.8195
 8722TIP3   OH247580   5.086   0.421   3.460  0.0984 -0.0349  0.1757
 8722TIP3    H147581   5.088   0.515   3.440 -0.2988 -0.0661 -0.0268
 8722TIP3    H247582   5.035   0.414   3.540  0.5059 -0.0391  0.4369
 8723TIP3   OH247583   4.612   4.696  14.477 -0.2600 -0.3433  0.1106
 8723TIP3    H147584   4.600   4.690  14.572 -1.9509  0.8799 -0.0026
 8723TIP3    H247585   4.560   4.624  14.441  0.0596 -0.5646  0.0881
 8724TIP3   OH247586   0.494   5.350  15.305 -0.1456  0.1409  0.9502
 8724TIP3    H147587   0.404   5.379  15.288  0.0281 -0.3588 -1.0068
 8724TIP3    H247588   0.520   5.305  15.225  1.3654 -0.9773  2.0371
 8725TIP3   OH247589   0.757   6.618  11.920 -0.2622  0.2080 -0.2157
 8725TIP3    H147590   0.753   6.712  11.905  0.1593  0.1191 -0.9104
 8725TIP3    H247591   0.822   6.607  11.990  0.5453  0.3414 -0.9508
 8726TIP3   OH247592   2.573   6.090   5.427 -0.1841 -0.5563  0.0728
 8726TIP3    H147593   2.481   6.090   5.453  0.0302 -1.6392  0.8688
 8726TIP3    H247594   2.621   6.112   5.507  0.1180  2.7409 -0.9464
 8727TIP3   OH247595   1.477   0.434  11.720 -0.0105  0.2815 -0.5802
 8727TIP3    H147596   1.470   0.504  11.785 -0.5507 -0.1998 -0.1128
 8727TIP3    H247597   1.479   0.479  11.636 -2.2442  0.7848 -0.3993
 8728TIP3   OH247598   4.105   1.290   0.359 -0.4131  0.2702  0.3291
 8728TIP3    H147599   4.020   1.258   0.328 -0.1950  0.8365 -0.8480
 8728TIP3    H247600   4.152   1.211   0.385 -1.2010 -0.0677  0.7561
 8729TIP3   OH247601   1.863   1.011   1.713 -0.1416 -0.8230  0.2575
 8729TIP3    H147602   1.901   1.078   1.770  0.4569 -0.7766 -0.1961
 8729TIP3    H247603   1.933   0.948   1.700 -0.6619 -1.4680  0.5689
 8730TIP3   OH247604   1.323   2.803  14.276  0.4380  0.3813  0.0758
 8730TIP3    H147605   1.336   2.798  14.181  1.7503 -1.0518  0.3151
 8730TIP3    H247606   1.250   2.744  14.294  0.3451  0.4703 -0.0081
 8731TIP3   OH247607   3.503   1.237  12.141  0.3698 -0.1529 -0.5813
 8731TIP3    H147608   3.422   1.279  12.170  2.2489  3.3739 -0.1334
 8731TIP3    H247609   3.526   1.176  12.211 -1.1982 -0.2088 -0.1092
 8732TIP3   OH247610   5.672   4.265   4.756  0.6270 -0.0796 -0.2017
 8732TIP3    H147611   5.577   4.266   4.738  0.6352  0.5949 -0.2228
 8732TIP3    H247612   5.685   4.186   4.808  0.0425 -0.1699 -0.1797
 8733TIP3   OH247613   0.030   2.653  14.245  0.5099  0.3010 -0.0875
 8733TIP3    H147614   0.059   2.643  14.155 -2.0293  0.9009 -1.0154
 8733TIP3    H247615   0.096   2.710  14.285  2.2432 -0.8542 -1.2315
 8734TIP3   OH247616   6.237   6.132  12.052 -0.0908  0.3023  0.5442
 8734TIP3    H147617   6.270   6.154  11.965 -0.4528  0.7853  0.5259
 8734TIP3    H247618   6.289   6.057  12.080 -0.9405 -0.7593 -0.6866
 8735TIP3   OH247619   4.068   1.433   0.091 -0.3030  0.0235  0.2715
 8735TIP3    H147620   4.035   1.484   0.165  2.5037  1.5111  0.5744
 8735TIP3    H247621   4.141   1.382   0.127  1.2584  0.9460 -1.4805
 8736TIP3   OH247622   5.840   5.019   0.354  0.5212 -0.0067  0.7336
 8736TIP3    H147623   5.832   4.972   0.437 -1.4056 -0.5504  0.2541
 8736TIP3    H247624   5.771   5.085   0.357  0.5176  0.0481 -0.3729
 8737TIP3   OH247625   6.505   2.599  14.178 -0.3870 -0.3611 -0.0872
 8737TIP3    H147626   6.537   2.689  14.182  0.3737 -0.7038  1.9661
 8737TIP3    H247627   6.522   2.563  14.265 -0.7428 -2.4770 -0.8602
 8738TIP3   OH247628   6.374   6.397  10.746 -0.0864 -0.1376 -0.6197
 8738TIP3    H147629   6.297   6.406  10.803  0.3600 -0.7626  0.0961
 8738TIP3    H247630   6.435   6.344  10.797  0.7490  0.2023 -1.2579
 8739TIP3   OH247631   2.113   5.335  12.633 -0.6587 -0.1153 -0.4914
 8739TIP3    H147632   2.194   5.383  12.649 -1.5260  1.5160 -0.8515
 8739TIP3    H247633   2.132   5.279  12.558  0.6081 -0.9172  0.4225
 8740TIP3   OH247634   1.589   3.106  16.800  0.0469  0.3843 -0.3926
 8740TIP3    H147635   1.502   3.109  16.761 -0.7216 -1.1587  1.1375
 8740TIP3    H247636   1.617   3.015  16.790  1.1110  0.6675 -0.0857
 8741TIP3   OH247637   0.986   0.217   0.086  0.4369 -0.7394 -0.0893
 8741TIP3    H147638   0.976   0.200  -0.008 -0.8681 -1.8670  0.2425
 8741TIP3    H247639   0.921   0.284   0.105  0.8459 -0.3584 -0.0197
 8742TIP3   OH247640   6.295   3.055   0.146 -0.4397  0.3516  0.0538
 8742TIP3    H147641   6.356   3.016   0.082  0.0146  0.2681  0.5365
 8742TIP3    H247642   6.300   3.149   0.128 -0.4108  0.3191 -0.1165
 8743TIP3   OH247643   3.256   3.911   1.322 -0.2352  0.6319  0.1608
 8743TIP3    H147644   3.268   3.883   1.413 -0.4668 -0.3788 -0.1112
 8743TIP3    H247645   3.196   3.846   1.285 -0.8484  1.5349 -0.4728
 8744TIP3   OH247646   0.986   2.250   6.316 -0.1128 -0.6870  0.1150
 8744TIP3    H147647   0.995   2.331   6.365  1.0816 -0.6723 -0.1138
 8744TIP3    H247648   1.006   2.274   6.226  1.1405 -1.3959  0.1849
 8745TIP3   OH247649   3.528   1.684  13.759  0.1286  0.3956  0.2602
 8745TIP3    H147650   3.621   1.705  13.750  0.1559  0.2924  0.2987
 8745TIP3    H247651   3.518   1.601  13.711 -0.9598  2.9783 -4.3293
 8746TIP3   OH247652   4.850   3.990  12.775 -0.2587 -0.5571 -0.1257
 8746TIP3    H147653   4.787   3.989  12.848 -0.9174  0.9355 -0.6618
 8746TIP3    H247654   4.796   3.985  12.697  0.3289  0.2322 -0.5789
 8747TIP3   OH247655   0.242   5.652   1.559 -0.0013 -0.6245 -0.1089
 8747TIP3    H147656   0.209   5.655   1.469 -0.4575  2.2928  0.0949
 8747TIP3    H247657   0.336   5.666   1.550  0.2209 -2.0763 -0.2176
 8748TIP3   OH247658   4.369   4.660  13.250 -0.7643  0.0580 -0.2391
 8748TIP3    H147659   4.388   4.573  13.215  0.0646  0.3116 -0.4348
 8748TIP3    H247660   4.450   4.687  13.292 -0.8543  0.9554 -0.6389
 8749TIP3   OH247661   5.162   5.565  15.553 -0.2470 -0.2805 -0.1681
 8749TIP3    H147662   5.200   5.651  15.539 -1.8891  0.3191 -1.1262
 8749TIP3    H247663   5.097   5.578  15.622  0.0010 -0.9005  0.1845
 8750TIP3   OH247664   6.765   6.212   5.495  0.0445 -0.6279 -0.1726
 8750TIP3    H147665   6.859   6.226   5.504  0.3897 -3.2640  0.5318
 8750TIP3    H247666   6.727   6.252   5.573  0.7744 -1.5224  0.6410
 8751TIP3   OH247667   0.782   4.949   3.240  0.0384 -0.0641  0.5021
 8751TIP3    H147668   0.692   4.963   3.270 -0.1693  0.9998 -0.6066
 8751TIP3    H247669   0.835   5.008   3.294  0.0698 -0.5888  1.0577
 8752TIP3   OH247670   0.149   6.469  12.594 -0.0725 -0.8579  0.4025
 8752TIP3    H147671   0.118   6.542  12.540  1.5636  0.0602  0.6833
 8752TIP3    H247672   0.117   6.390  12.548 -1.1720 -0.0110 -0.3232
 8753TIP3   OH247673   6.708   6.243  16.713 -0.2181  0.0266 -0.2403
 8753TIP3    H147674   6.801   6.263  16.726 -0.2004  2.6598 -3.8406
 8753TIP3    H247675   6.708   6.160  16.665  0.3140  0.2160 -0.5796
 8754TIP3   OH247676   0.372   5.405   2.451 -0.1346  0.4181 -0.3387
 8754TIP3    H147677   0.293   5.456   2.469  0.7500  2.5538 -2.1981
 8754TIP3    H247678   0.444   5.468   2.462  1.0889 -0.7545 -1.4495
 8755TIP3   OH247679   4.113   6.259   3.698 -0.0254 -0.2679  0.2642
 8755TIP3    H147680   4.073   6.184   3.653 -1.3420  1.1729 -0.9996
 8755TIP3    H247681   4.072   6.260   3.784 -1.0403 -0.1542 -0.2206
 8756TIP3   OH247682   5.086   6.624  17.182  0.4447  0.1288 -0.1057
 8756TIP3    H147683   5.119   6.598  17.097  2.7390  0.6206  0.5909
 8756TIP3    H247684   5.152   6.592  17.244 -0.4208  1.1103  1.3495
 8757TIP3   OH247685   2.112   0.511  13.855 -0.8263  0.4890 -0.5449
 8757TIP3    H147686   2.196   0.555  13.845 -0.0342 -0.5316  1.2734
 8757TIP3    H247687   2.047   0.577  13.833  0.4130  1.8060 -0.3250
 8758TIP3   OH247688   6.283   6.708   5.844 -0.2323  0.1003 -0.4896
 8758TIP3    H147689   6.191   6.691   5.866 -0.4690  0.1406 -1.4136
 8758TIP3    H247690   6.321   6.621   5.830 -0.7820  0.1610 -2.6141
 8759TIP3   OH247691   4.776   0.913  11.317 -0.8252  0.4949 -0.0971
 8759TIP3    H147692   4.772   0.843  11.382  0.3570 -0.1691 -0.7070
 8759TIP3    H247693   4.825   0.874  11.244 -0.9867  1.6520 -0.8270
 8760TIP3   OH247694   2.487   4.595   5.195  0.3744  0.4658  0.2959
 8760TIP3    H147695   2.530   4.538   5.258 -0.5874 -0.3158  0.2485
 8760TIP3    H247696   2.559   4.643   5.153  1.1203 -0.1077  0.9114
 8761TIP3   OH247697   4.393   2.966  16.550  0.2773  0.4805  0.3233
 8761TIP3    H147698   4.472   2.945  16.500 -0.5760  0.4734 -1.0344
 8761TIP3    H247699   4.384   3.061  16.543  0.7138  0.6080  1.3293
 8762TIP3   OH247700   1.496   5.252   4.072  0.0492 -0.5464  0.3676
 8762TIP3    H147701   1.528   5.342   4.073  0.2877 -0.6136 -0.8062
 8762TIP3    H247702   1.402   5.259   4.083  0.0518 -0.1413  0.1425
 8763TIP3   OH247703   2.004   4.170  13.619 -0.6081  0.2422  0.0978
 8763TIP3    H147704   2.048   4.086  13.628  2.3602  1.7543  0.4937
 8763TIP3    H247705   1.961   4.167  13.534 -1.6368 -2.1138  0.6677
 8764TIP3   OH247706   1.784   1.973   4.973 -0.2527  0.3133 -0.3783
 8764TIP3    H147707   1.826   2.021   5.045 -0.0697  0.9993 -0.9438
 8764TIP3    H247708   1.856   1.953   4.913 -0.1138 -1.7006  0.4072
 8765TIP3   OH247709   3.193   4.313  12.472 -0.2601 -0.0486  0.0863
 8765TIP3    H147710   3.156   4.400  12.490  0.2748  0.1362  0.3002
 8765TIP3    H247711   3.142   4.281  12.397  0.7072  1.1914 -1.1397
 8766TIP3   OH247712   2.446   5.319  11.328 -0.3269 -0.6030 -0.0904
 8766TIP3    H147713   2.491   5.329  11.412 -2.0944  0.4329  0.7371
 8766TIP3    H247714   2.517   5.312  11.264  1.0321  2.2453  1.0471
 8767TIP3   OH247715   6.054   3.465   2.748  0.3767 -0.2886  0.1217
 8767TIP3    H147716   6.089   3.523   2.681  0.5489 -0.9914 -0.4120
 8767TIP3    H247717   5.961   3.485   2.750  0.1039 -1.2644 -1.3758
 8768TIP3   OH247718   5.558   6.125  13.295 -0.6051 -0.3519  0.0612
 8768TIP3    H147719   5.613   6.096  13.222 -1.2927  0.5709 -0.8459
 8768TIP3    H247720   5.617   6.177  13.350 -0.6798  1.0930 -1.1932
 8769TIP3   OH247721   3.274   4.474   1.103 -0.3934  0.6517 -0.2992
 8769TIP3    H147722   3.324   4.421   1.040  0.1409  1.0114 -0.1821
 8769TIP3    H247723   3.200   4.506   1.052 -0.7592 -0.2558 -0.3564
 8770TIP3   OH247724   1.760   6.041  12.535  0.6042  0.3124 -0.0963
 8770TIP3    H147725   1.701   5.992  12.593 -0.6975  2.6953  0.6615
 8770TIP3    H247726   1.738   6.010  12.447 -0.6472 -0.0115  0.3169
 8771TIP3   OH247727   5.893   1.102   4.650 -0.1697  0.1658  0.5249
 8771TIP3    H147728   5.976   1.074   4.689 -0.6759  1.2950  2.4489
 8771TIP3    H247729   5.897   1.197   4.650 -0.6866  0.2053 -1.1450
 8772TIP3   OH247730   1.327   4.108  12.817  0.4573 -0.4488 -0.1689
 8772TIP3    H147731   1.261   4.124  12.749 -0.1178 -0.2960  0.4302
 8772TIP3    H247732   1.340   4.013  12.814  0.8716 -0.3791 -0.8962
 8773TIP3   OH247733   4.152   3.609  10.863 -0.1563  0.2876 -0.2851
 8773TIP3    H147734   4.228   3.656  10.830  0.8905 -0.5972  0.8404
 8773TIP3    H247735   4.132   3.545  10.795  0.3992  0.2007 -0.3648
 8774TIP3   OH247736   0.985   5.160  16.026  0.1063  0.4861  0.6468
 8774TIP3    H147737   0.982   5.237  15.970 -2.2094  1.5595  2.1420
 8774TIP3    H247738   0.937   5.093  15.977  0.6753  0.5092  0.0591
 8775TIP3   OH247739   1.824   6.395   3.478 -0.3444 -0.4191  0.2346
 8775TIP3    H147740   1.753   6.333   3.494  0.1285 -0.7970  0.8728
 8775TIP3    H247741   1.800   6.438   3.396 -3.4565  2.4257  2.4665
 8776TIP3   OH247742   5.761   5.192  15.402 -0.1165 -0.3590  0.6409
 8776TIP3    H147743   5.834   5.232  15.449  0.0309  0.5954 -0.3963
 8776TIP3    H247744   5.741   5.113  15.453  0.9655 -0.0932  1.5040
 8777TIP3   OH247745   0.669   4.332   1.637  0.4820  0.2522  0.8572
 8777TIP3    H147746   0.714   4.374   1.564  0.5298 -1.1561  0.0751
 8777TIP3    H247747   0.738   4.285   1.684 -0.1177 -1.8305 -0.2923
 8778TIP3   OH247748   4.270   4.368  13.246  0.0804 -0.2616 -0.5833
 8778TIP3    H147749   4.206   4.307  13.210 -1.6350  0.9570  0.3217
 8778TIP3    H247750   4.290   4.333  13.333 -2.1610  1.2803  0.6163
 8779TIP3   OH247751   6.597   0.485   2.286  0.1907  0.4640  0.2170
 8779TIP3    H147752   6.585   0.478   2.381  0.7267  2.2927  0.4387
 8779TIP3    H247753   6.585   0.578   2.267  0.1612  0.1263 -1.5047
 8780TIP3   OH247754   0.600   2.785   1.676 -0.1022 -0.5849 -0.6026
 8780TIP3    H147755   0.693   2.808   1.668 -0.9374  3.0896 -0.6695
 8780TIP3    H247756   0.593   2.741   1.760  2.0426 -2.8574 -1.5702
 8781TIP3   OH247757   3.926   1.832  10.895 -0.1964  0.0975 -0.3055
 8781TIP3    H147758   3.902   1.752  10.848 -0.9576 -0.9384  1.7782
 8781TIP3    H247759   3.852   1.891  10.881 -0.5345 -0.3009 -0.2157
 8782TIP3   OH247760   6.388   5.322   1.820  0.6177  0.5784  0.2122
 8782TIP3    H147761   6.344   5.407   1.827  1.1937  0.6571  3.0872
 8782TIP3    H247762   6.322   5.265   1.779  0.0531  2.2507 -1.2763
 8783TIP3   OH247763   6.438   6.464   2.945  0.2723 -0.2739  0.2749
 8783TIP3    H147764   6.365   6.449   2.885 -0.5806 -0.9644  1.4616
 8783TIP3    H247765   6.514   6.425   2.901 -0.5263 -1.6369  0.0761
 8784TIP3   OH247766   0.560   1.515  10.615 -0.3182  0.3053  0.4893
 8784TIP3    H147767   0.640   1.501  10.565 -0.6881 -0.5320  0.1193
 8784TIP3    H247768   0.586   1.571  10.688  0.5892  0.0792  0.3404
 8785TIP3   OH247769   0.348   5.836  12.508  0.4537  0.2720  0.3569
 8785TIP3    H147770   0.309   5.905  12.562  1.5998  0.0625  1.4739
 8785TIP3    H247771   0.420   5.880  12.462  0.5568  0.0438  0.3026
 8786TIP3   OH247772   2.793   3.635   5.792 -0.2447  0.4631  0.6971
 8786TIP3    H147773   2.823   3.569   5.729  0.8731  0.7628  0.9062
 8786TIP3    H247774   2.783   3.587   5.874 -2.9345 -0.2100  0.0513
 8787TIP3   OH247775   3.618   0.758   4.536 -0.3171  0.2046  0.0621
 8787TIP3    H147776   3.539   0.733   4.488 -0.6852  1.7183 -0.1524
 8787TIP3    H247777   3.683   0.694   4.509 -1.4391 -1.0231  0.1863
 8788TIP3   OH247778   2.843   3.523   1.073 -0.3316  0.1521 -0.1618
 8788TIP3    H147779   2.775   3.587   1.097 -0.6560  0.6047 -2.1750
 8788TIP3    H247780   2.911   3.535   1.139 -1.3965  0.9776  0.8192
 8789TIP3   OH247781   5.991   3.024   0.351  0.5147  0.5864  0.1182
 8789TIP3    H147782   5.944   3.101   0.318  1.7763  0.5491 -1.8326
 8789TIP3    H247783   6.066   3.060   0.397 -1.5158  0.6599  3.5515
 8790TIP3   OH247784   2.274   1.389  16.882  0.3382 -0.0622 -0.6313
 8790TIP3    H147785   2.348   1.381  16.821  0.2600  0.2059 -0.7638
 8790TIP3    H247786   2.280   1.479  16.914 -0.5137  0.2761 -1.3857
 8791TIP3   OH247787   0.745   3.712  15.429  0.5788 -0.1098  0.5981
 8791TIP3    H147788   0.828   3.715  15.476  1.4088 -2.6915 -0.6257
 8791TIP3    H247789   0.688   3.658  15.485  0.6385 -0.7046  0.0970
 8792TIP3   OH247790   3.888   5.365   5.852 -0.0608 -0.7762 -0.7723
 8792TIP3    H147791   3.945   5.439   5.873 -1.9154  0.8845 -1.4533
 8792TIP3    H247792   3.901   5.351   5.758  1.2944 -2.2142 -0.3892
 8793TIP3   OH247793   2.952   5.613  11.384 -0.5111  0.1449  0.1547
 8793TIP3    H147794   3.013   5.540  11.369  0.0667  0.5937  0.2901
 8793TIP3    H247795   3.003   5.691  11.363 -0.1585  0.6938  2.8289
 8794TIP3   OH247796   2.802   5.636  11.960  0.6336  0.0812  0.4906
 8794TIP3    H147797   2.775   5.585  12.036 -0.3308  0.9427  0.7397
 8794TIP3    H247798   2.846   5.712  11.996  1.2486 -0.1026  0.1426
 8795TIP3   OH247799   6.314   6.107   2.531  0.4199  0.6283  0.0733
 8795TIP3    H147800   6.400   6.095   2.490  0.9394 -2.1303  1.8112
 8795TIP3    H247801   6.258   6.044   2.486  0.9125 -2.1765  3.1788
 8796TIP3   OH247802   4.155   5.528   2.552  0.0900  0.0223  0.4420
 8796TIP3    H147803   4.107   5.558   2.630  0.6398 -1.5236  1.3859
 8796TIP3    H247804   4.246   5.554   2.569 -0.3049  2.6514 -1.1947
 8797TIP3   OH247805   4.887   2.770   0.617  0.1096  0.6217 -0.3272
 8797TIP3    H147806   4.872   2.682   0.652  1.4425  0.0763 -1.0729
 8797TIP3    H247807   4.911   2.822   0.694 -1.3116  0.5051  0.2160
 8798TIP3   OH247808   0.191   1.826  15.120 -0.2938 -0.2547  0.6310
 8798TIP3    H147809   0.180   1.848  15.027  2.2645 -0.8830  0.1316
 8798TIP3    H247810   0.153   1.900  15.167  0.2355  1.0503 -0.9610
 8799TIP3   OH247811   1.773   2.262  11.269 -0.3074 -0.2718 -0.5760
 8799TIP3    H147812   1.699   2.316  11.241 -1.2637 -1.9105 -1.2590
 8799TIP3    H247813   1.774   2.189  11.208  0.9006 -1.0993  0.4145
 8800TIP3   OH247814   5.774   6.440   2.983 -0.1997 -0.7388  0.4121
 8800TIP3    H147815   5.860   6.479   2.966 -0.9589  0.8014  0.0335
 8800TIP3    H247816   5.770   6.434   3.079 -0.2005  0.4551  0.5023
 8801TIP3   OH247817   2.671   0.642  13.783  0.3504  0.3530  0.2609
 8801TIP3    H147818   2.661   0.556  13.823  1.4439  0.3841  0.6124
 8801TIP3    H247819   2.754   0.637  13.735 -0.8697  0.3590 -1.9033
 8802TIP3   OH247820   1.434   4.439   3.702 -0.6048  1.2426 -0.6557
 8802TIP3    H147821   1.519   4.395   3.702 -0.6444  1.0714  1.6034
 8802TIP3    H247822   1.430   4.486   3.619  1.3744  0.6430 -1.0995
 8803TIP3   OH247823   3.714   1.547   5.604 -0.3172  0.7107 -0.1687
 8803TIP3    H147824   3.694   1.472   5.661  0.9235 -0.9796 -1.9127
 8803TIP3    H247825   3.756   1.610   5.663  0.1461 -0.6431  0.9960
 8804TIP3   OH247826   0.132   4.096  17.229  0.5073 -0.6311 -1.2307
 8804TIP3    H147827   0.182   4.148  17.166  1.3596 -0.3518 -0.3382
 8804TIP3    H247828   0.153   4.005  17.207 -1.3750 -0.6478 -3.1128
 8805TIP3   OH247829   6.510   0.369   0.778  0.7853  0.4983  0.2426
 8805TIP3    H147830   6.462   0.425   0.718  3.5106  0.7334 -1.7866
 8805TIP3    H247831   6.591   0.348   0.732  1.5091 -1.9892  2.5196
 8806TIP3   OH247832   5.244   6.708   1.598  0.0775  0.1638 -0.1365
 8806TIP3    H147833   5.324   6.685   1.552  0.9851  0.5991  1.1773
 8806TIP3    H247834   5.256   6.801   1.621 -0.8858  0.2861 -0.0962
 8807TIP3   OH247835   5.642   4.245   0.660  0.2887  0.2259 -0.1863
 8807TIP3    H147836   5.649   4.199   0.576 -0.7604  1.7179 -1.1142
 8807TIP3    H247837   5.589   4.322   0.641 -0.0414  0.5354  1.8897
 8808TIP3   OH247838   4.576   3.411   5.300  0.5878  0.0850  0.1336
 8808TIP3    H147839   4.560   3.351   5.227  0.2574  0.5777 -0.2021
 8808TIP3    H247840   4.506   3.393   5.362 -0.4795  1.2569 -0.6997
 8809TIP3   OH247841   5.066   6.572  13.515  0.0185 -0.2924  0.5509
 8809TIP3    H147842   4.978   6.554  13.548 -0.3733 -0.2128 -0.4254
 8809TIP3    H247843   5.055   6.648  13.458  0.9699  0.5750  1.5176
 8810TIP3   OH247844   2.376   5.186   5.080  0.2627 -0.2610  0.1096
 8810TIP3    H147845   2.363   5.093   5.059 -0.5433  0.2329 -1.7260
 8810TIP3    H247846   2.296   5.213   5.124 -0.7445  0.2656 -1.9978
 8811TIP3   OH247847   3.960   1.831   3.507 -0.2498 -0.0841 -0.2590
 8811TIP3    H147848   3.895   1.827   3.436  0.0848  0.9504 -0.6390
 8811TIP3    H247849   4.005   1.914   3.493  2.5719 -1.7166 -1.2080
 8812TIP3   OH247850   3.466   6.400   2.456  0.1912 -0.3077 -0.0983
 8812TIP3    H147851   3.525   6.467   2.489  2.3404 -1.5726 -1.2836
 8812TIP3    H247852   3.455   6.420   2.363 -0.2427 -0.8126 -0.1587
 8813TIP3   OH247853   4.753   3.897  12.535 -0.0059  0.0139  0.0206
 8813TIP3    H147854   4.699   3.934  12.465  0.4412  2.2875  0.8557
 8813TIP3    H247855   4.739   3.803  12.528 -2.9811  0.4768 -0.6614
 8814TIP3   OH247856   2.330   3.893  12.174 -0.3160 -0.0744 -0.0056
 8814TIP3    H147857   2.258   3.864  12.118  0.2561 -0.2696 -0.6564
 8814TIP3    H247858   2.380   3.813  12.191  0.1940  0.1938 -0.2230
 8815TIP3   OH247859   1.594   2.688   0.174 -0.1418 -0.2011  0.2764
 8815TIP3    H147860   1.680   2.701   0.215  0.3823 -0.9782 -0.5762
 8815TIP3    H247861   1.550   2.772   0.185 -0.4154 -0.6752  3.3640
 8816TIP3   OH247862   5.371   6.635  14.358 -0.0251  0.1163 -0.2554
 8816TIP3    H147863   5.369   6.560  14.298  2.0606 -0.7743  0.7499
 8816TIP3    H247864   5.460   6.668  14.353 -0.1846  0.8432  1.3813
 8817TIP3   OH247865   6.006   1.384  12.873  0.7099  0.0924  0.4124
 8817TIP3    H147866   5.912   1.368  12.878  0.7683 -0.3075  0.1798
 8817TIP3    H247867   6.013   1.476  12.848  0.3842  0.2957  1.0457
 8818TIP3   OH247868   1.518   0.325  12.316  0.5028  0.2307 -0.4025
 8818TIP3    H147869   1.597   0.328  12.263  1.9138 -1.1231  1.5426
 8818TIP3    H247870   1.505   0.414  12.346 -0.9707  1.2736 -3.8643
 8819TIP3   OH247871   0.911   5.951   6.463 -0.7899  1.2374 -0.3854
 8819TIP3    H147872   0.867   6.005   6.396  0.2073 -0.5554 -2.5563
 8819TIP3    H247873   0.846   5.885   6.486 -0.6733  1.0633 -0.5552
 8820TIP3   OH247874   2.173   4.501   0.357  0.6351 -0.2478 -0.2009
 8820TIP3    H147875   2.133   4.490   0.444 -0.1707  1.8329 -0.2675
 8820TIP3    H247876   2.251   4.446   0.360  0.1862 -0.8449  1.5700
 8821TIP3   OH247877   5.971   0.326  14.646  0.1831  0.4238  0.3584
 8821TIP3    H147878   5.898   0.305  14.704 -1.1126  1.8816 -0.7065
 8821TIP3    H247879   5.975   0.422  14.646 -0.3260  0.4817 -2.5236
 8822TIP3   OH247880   0.908   1.625  17.165 -0.2015  0.3602  0.5171
 8822TIP3    H147881   0.853   1.669  17.229 -0.1660 -0.1568  0.9079
 8822TIP3    H247882   0.858   1.628  17.083 -1.3651 -1.2204  1.1572
 8823TIP3   OH247883   5.489   6.251  16.015 -0.0171 -0.2425  0.2071
 8823TIP3    H147884   5.394   6.245  16.027 -0.2241  2.7614  0.4951
 8823TIP3    H247885   5.500   6.283  15.925  0.7584 -1.3750 -0.1090
 8824TIP3   OH247886   2.661   2.877   6.388 -0.1014  0.8941 -0.6730
 8824TIP3    H147887   2.595   2.809   6.390 -1.0817  1.8399  2.1115
 8824TIP3    H247888   2.713   2.863   6.467  0.5799  2.4944 -0.8041
 8825TIP3   OH247889   6.559   1.091   3.748 -0.0689  0.2613  0.1066
 8825TIP3    H147890   6.537   1.014   3.799 -1.3497  1.1652  0.9265
 8825TIP3    H247891   6.475   1.134   3.730  0.6559  1.6466 -0.0588
 8826TIP3   OH247892   0.992   1.678   4.353  0.1596 -0.9835 -0.3168
 8826TIP3    H147893   0.940   1.734   4.294 -2.0134  0.4589  2.8415
 8826TIP3    H247894   1.068   1.731   4.374 -0.6150 -0.2135  0.6119
 8827TIP3   OH247895   1.204   1.693  16.363 -0.2023 -0.0706  0.2659
 8827TIP3    H147896   1.273   1.732  16.417  0.2186 -0.6623  0.1660
 8827TIP3    H247897   1.249   1.667  16.283 -0.7182  0.3185 -0.1541
 8828TIP3   OH247898   6.566   5.768   5.504  0.2182 -0.0014  0.1770
 8828TIP3    H147899   6.579   5.720   5.422 -1.4911 -1.8178  0.9251
 8828TIP3    H247900   6.472   5.786   5.506  0.5076  1.4611  0.9707
 8829TIP3   OH247901   2.644   5.277  16.585  0.3053 -0.5609  0.2919
 8829TIP3    H147902   2.557   5.261  16.619  2.0012 -4.3181  3.2367
 8829TIP3    H247903   2.643   5.242  16.496 -0.7090 -2.1886  0.9377
 8830TIP3   OH247904   4.892   4.080   2.919 -0.0884 -0.0706 -0.4180
 8830TIP3    H147905   4.915   4.148   2.856 -0.4019 -1.1747 -1.7549
 8830TIP3    H247906   4.823   4.029   2.875  0.7629 -1.7873  0.1886
 8831TIP3   OH247907   0.718   5.936   3.002  0.0190  0.0990  0.5207
 8831TIP3    H147908   0.654   5.889   3.056  1.7056 -2.3647  0.4587
 8831TIP3    H247909   0.692   5.917   2.912 -0.7336  1.3326  0.4686
 8832TIP3   OH247910   5.206   3.274   5.136 -0.7258 -0.2012 -0.3782
 8832TIP3    H147911   5.280   3.269   5.075  0.1370  0.0510  0.6482
 8832TIP3    H247912   5.231   3.219   5.210 -1.2543  0.4446  0.2947
 8833TIP3   OH247913   2.650   1.970   4.639  0.5070  0.4991  0.3885
 8833TIP3    H147914   2.649   2.028   4.715  1.5989  2.0330 -0.7227
 8833TIP3    H247915   2.740   1.972   4.608  1.0110 -3.3417  1.4108
 8834TIP3   OH247916   5.996   5.837   4.932  0.0343 -0.7984 -0.0814
 8834TIP3    H147917   5.957   5.924   4.938  1.6185 -0.0423 -0.4793
 8834TIP3    H247918   6.031   5.832   4.843  1.1475 -1.3103  0.3656
 8835TIP3   OH247919   2.760   6.614   4.242  0.3009  0.0483 -0.3410
 8835TIP3    H147920   2.718   6.528   4.248 -0.2317  0.3251 -0.1616
 8835TIP3    H247921   2.854   6.593   4.239  0.2881 -0.4513  1.8296
 8836TIP3   OH247922   1.058   1.676   2.340 -0.2472 -0.3100  0.0736
 8836TIP3    H147923   1.021   1.747   2.392 -1.1948  0.0013 -0.9945
 8836TIP3    H247924   1.038   1.596   2.389  2.3032  0.2562  2.1416
 8837TIP3   OH247925   2.758   0.443  12.243  0.0967  0.2589  0.5831
 8837TIP3    H147926   2.834   0.458  12.187  1.1458 -0.9872  1.6139
 8837TIP3    H247927   2.718   0.529  12.254  1.8648  1.0873  0.7090
 8838TIP3   OH247928   4.246   3.352   0.053 -0.4175  0.1528  0.4644
 8838TIP3    H147929   4.322   3.410   0.056 -0.0152 -0.3558  0.3323
 8838TIP3    H247930   4.178   3.402   0.010  0.3078  0.0841 -0.7806
 8839TIP3   OH247931   0.930   6.538  10.804  0.4171  0.5539  0.1093
 8839TIP3    H147932   0.971   6.466  10.755 -0.3536  1.8954 -2.5925
 8839TIP3    H247933   0.837   6.515  10.807  0.5858  0.0442  1.7639
 8840TIP3   OH247934   4.213   1.058  14.459  0.1564  0.5408 -0.0667
 8840TIP3    H147935   4.301   1.090  14.436  1.2704 -0.3899  2.7468
 8840TIP3    H247936   4.186   1.111  14.534 -0.9600 -0.3515  0.1823
 8841TIP3   OH247937   3.967   5.991   3.585  0.0528 -0.1954 -0.0472
 8841TIP3    H147938   3.892   5.933   3.572  0.9037 -0.9622 -1.6111
 8841TIP3    H247939   3.970   6.046   3.507 -0.0285  1.1517  0.8836
 8842TIP3   OH247940   0.268   3.350  15.842 -0.0855  0.7145 -0.6214
 8842TIP3    H147941   0.317   3.410  15.785 -0.3115  2.0016  0.5178
 8842TIP3    H247942   0.213   3.407  15.896 -1.4220 -0.6156 -0.5552
 8843TIP3   OH247943   1.192   1.835   4.414 -0.6041  0.5420  0.2079
 8843TIP3    H147944   1.286   1.853   4.426 -0.6003  1.0962 -0.5812
 8843TIP3    H247945   1.153   1.921   4.401 -1.1019  0.2483 -0.2785
 8844TIP3   OH247946   5.321   3.382  11.653  0.4394  0.2648 -0.0708
 8844TIP3    H147947   5.263   3.455  11.676  0.8933  0.8432 -0.7206
 8844TIP3    H247948   5.263   3.315  11.618  0.1504  0.8377 -0.7059
 8845TIP3   OH247949   2.507   5.824   7.048 -0.1355 -0.4330  0.7572
 8845TIP3    H147950   2.527   5.740   7.090  0.3073 -0.1958  1.0375
 8845TIP3    H247951   2.577   5.836   6.984 -0.0932 -0.1915  0.8478
 8846TIP3   OH247952   5.033   0.933   1.186 -0.1654 -0.0227 -0.5763
 8846TIP3    H147953   4.960   0.954   1.128 -0.3280  1.9811  0.2923
 8846TIP3    H247954   5.005   0.965   1.272  1.0485 -0.7697  0.1231
 8847TIP3   OH247955   3.969   1.753  16.123  0.2869  0.2895  0.4857
 8847TIP3    H147956   3.915   1.828  16.148  1.3738  1.7940 -1.5139
 8847TIP3    H247957   3.962   1.749  16.028  1.5735 -1.1402  0.4358
 8848TIP3   OH247958   2.223   3.996   2.798  0.1340  0.3545  0.0553
 8848TIP3    H147959   2.139   3.958   2.776 -0.1794  1.0284  0.0765
 8848TIP3    H247960   2.255   4.035   2.717  0.1434  0.6309  0.1902
 8849TIP3   OH247961   2.357   1.375  12.012  0.0312 -0.1437 -0.2806
 8849TIP3    H147962   2.437   1.400  12.059  0.1878  2.1752 -1.6747
 8849TIP3    H247963   2.388   1.332  11.933 -0.1756 -1.6000  0.4189
 8850TIP3   OH247964   3.213   3.970   4.782 -0.3478 -0.1223  0.0111
 8850TIP3    H147965   3.257   3.948   4.864 -0.4150  0.3710  0.1772
 8850TIP3    H247966   3.260   3.919   4.716 -0.0099 -0.1761  0.2909
 8851TIP3   OH247967   0.578   2.835   0.026 -0.9778 -0.1980  0.3691
 8851TIP3    H147968   0.624   2.897   0.083  0.0590 -1.7835  1.2817
 8851TIP3    H247969   0.575   2.879  -0.059  3.2639 -0.4918 -0.0493
 8852TIP3   OH247970   5.664   1.176   4.352 -0.3663 -0.7642 -0.4737
 8852TIP3    H147971   5.726   1.105   4.367  0.4341  0.0658  0.2741
 8852TIP3    H247972   5.578   1.134   4.351  0.0261 -1.6280  0.8370
 8853TIP3   OH247973   4.748   0.980  16.929 -0.9136  0.8619  0.0358
 8853TIP3    H147974   4.823   0.946  16.879 -1.0613 -0.0147  0.3955
 8853TIP3    H247975   4.682   1.000  16.862 -0.4968  1.2719 -0.2514
 8854TIP3   OH247976   2.369   6.208   4.716  0.1856 -0.4476 -0.7573
 8854TIP3    H147977   2.393   6.292   4.675  0.2316 -0.4330 -0.7000
 8854TIP3    H247978   2.450   6.157   4.715  0.8858  0.5576  1.8131
 8855TIP3   OH247979   1.930   5.447   5.709 -0.2115 -0.2575 -0.4185
 8855TIP3    H147980   1.976   5.528   5.689  0.5558 -0.3018  1.0857
 8855TIP3    H247981   1.995   5.394   5.756 -1.0002 -1.3523 -0.5540
 8856TIP3   OH247982   3.795   3.497  11.702  0.6257 -0.6544 -0.7179
 8856TIP3    H147983   3.805   3.590  11.682  2.2571 -0.8869 -1.1158
 8856TIP3    H247984   3.777   3.456  11.617  0.8642 -0.8160 -0.6913
 8857TIP3   OH247985   3.220   2.197   2.556 -0.4420  0.3404  0.0127
 8857TIP3    H147986   3.268   2.247   2.622  1.0066  0.1289 -0.8392
 8857TIP3    H247987   3.249   2.235   2.473 -1.6721  0.1089 -0.5290
 8858TIP3   OH247988   2.143   3.924  11.532  0.1061 -0.6183 -0.5528
 8858TIP3    H147989   2.218   3.866  11.548 -0.3222 -0.8706  0.5917
 8858TIP3    H247990   2.087   3.874  11.472  0.2409 -0.9656 -0.3948
 8859TIP3   OH247991   3.259   2.545  15.431 -0.5307  0.5074  0.1891
 8859TIP3    H147992   3.263   2.634  15.465  1.1417  0.7140 -0.5074
 8859TIP3    H247993   3.319   2.495  15.488  1.6055  0.6750 -1.8327
 8860TIP3   OH247994   5.424   6.243  12.827 -0.5237  0.0431  0.1202
 8860TIP3    H147995   5.374   6.163  12.838  0.9552 -0.8016  0.8996
 8860TIP3    H247996   5.472   6.232  12.745  0.2728 -0.2056  0.6159
 8861TIP3   OH247997   5.751   0.320   6.491 -1.1464  0.0977  0.6745
 8861TIP3    H147998   5.753   0.236   6.537  2.9269  0.0343  0.5699
 8861TIP3    H247999   5.744   0.297   6.399  1.1404 -0.2145  0.5601
 8862TIP3   OH248000   6.152   0.726   1.626 -0.8755  0.6956  0.2205
 8862TIP3    H148001   6.191   0.659   1.570 -1.1805  0.7845 -0.0977
 8862TIP3    H248002   6.182   0.809   1.589  1.2597  0.7063  1.8765
 8863TIP3   OH248003   5.159   0.749   4.054  0.2993 -0.3792  0.1794
 8863TIP3    H148004   5.122   0.664   4.032  0.3477 -0.5589  0.7853
 8863TIP3    H248005   5.110   0.812   4.000 -1.6896 -0.4910  1.8342
 8864TIP3   OH248006   1.759   4.436   1.722 -0.2331  0.1381 -0.2037
 8864TIP3    H148007   1.728   4.518   1.761  0.0196  0.1024  0.0632
 8864TIP3    H248008   1.761   4.455   1.628 -0.6052  0.2964 -0.1833
 8865TIP3   OH248009   5.564   4.949   3.724  0.0102 -0.3884 -0.2526
 8865TIP3    H148010   5.573   4.984   3.636  1.1105  0.5619  0.2269
 8865TIP3    H248011   5.505   4.874   3.714  1.2014 -1.1176 -1.9990
 8866TIP3   OH248012   3.766   1.321  13.987 -0.0780  0.7090  0.2833
 8866TIP3    H148013   3.709   1.327  14.064 -0.2665 -0.1554  0.2147
 8866TIP3    H248014   3.836   1.261  14.014  0.2362  0.9606  0.0222
 8867TIP3   OH248015   1.713   6.613  10.918  0.2291 -0.1509 -0.3026
 8867TIP3    H148016   1.736   6.703  10.940 -2.7574  0.4919  0.4186
 8867TIP3    H248017   1.685   6.617  10.826  0.0917 -0.3299 -0.2683
 8868TIP3   OH248018   3.256   3.973  13.342 -0.2810 -0.3577  0.1486
 8868TIP3    H148019   3.228   4.023  13.419 -0.5136  0.1952 -0.3003
 8868TIP3    H248020   3.180   3.920  13.319  0.1005 -1.2412  0.8785
 8869TIP3   OH248021   6.472   0.684   4.769  0.2504 -0.4887  0.3814
 8869TIP3    H148022   6.519   0.706   4.689 -0.2674  0.7161  0.3945
 8869TIP3    H248023   6.523   0.723   4.839 -0.9236  1.1402  0.3645
 8870TIP3   OH248024   3.748   0.119   4.513 -0.1321 -0.2755 -0.0641
 8870TIP3    H148025   3.664   0.080   4.492  0.3275 -2.3064  1.7455
 8870TIP3    H248026   3.798   0.114   4.431 -1.0569 -0.9039 -0.5972
 8871TIP3   OH248027   0.459   1.355   0.269 -0.1318  0.1931  0.3636
 8871TIP3    H148028   0.548   1.352   0.306  0.0371  0.3743 -0.0303
 8871TIP3    H248029   0.427   1.442   0.291  0.0152  0.3456 -0.0251
 8872TIP3   OH248030   4.685   4.825  12.213  0.3813 -0.3914  0.2595
 8872TIP3    H148031   4.664   4.774  12.135 -0.6487  0.4591 -0.0313
 8872TIP3    H248032   4.627   4.791  12.281 -0.5010  0.5499 -0.0045
 8873TIP3   OH248033   4.037   4.107  12.489 -0.0913 -0.0565 -0.5645
 8873TIP3    H148034   3.949   4.128  12.459 -0.0375 -1.2884 -1.6415
 8873TIP3    H248035   4.089   4.184  12.469 -1.4510  1.7467  2.5105
 8874TIP3   OH248036   1.289   4.842  14.897 -0.2350 -0.2229 -1.2355
 8874TIP3    H148037   1.214   4.786  14.880  0.4712 -1.4919 -0.2906
 8874TIP3    H248038   1.260   4.901  14.966 -0.1796 -1.1242 -0.4290
 8875TIP3   OH248039   3.698   1.155   1.497 -0.5265  0.4135  0.5720
 8875TIP3    H148040   3.706   1.073   1.449  1.4724 -1.3327  3.7334
 8875TIP3    H248041   3.625   1.141   1.557 -0.7453  1.2816  0.5252
 8876TIP3   OH248042   3.385   1.141   4.498 -0.1299  0.1526 -0.9501
 8876TIP3    H148043   3.310   1.089   4.469 -0.0808 -0.0272 -0.7585
 8876TIP3    H248044   3.461   1.095   4.461 -0.1621  0.7823 -1.8118
 8877TIP3   OH248045   4.861   1.785  11.917  0.0134 -0.0834  0.2710
 8877TIP3    H148046   4.841   1.833  11.836  0.1466  2.4070  1.6677
 8877TIP3    H248047   4.925   1.719  11.891  1.0562  1.5462 -1.4415
 8878TIP3   OH248048   1.555   5.870   4.253  0.2765 -0.1259  0.1260
 8878TIP3    H148049   1.506   5.939   4.297  1.5677  1.1230 -0.3567
 8878TIP3    H248050   1.638   5.865   4.300  0.0822 -1.5652  0.3442
 8879TIP3   OH248051   4.359   5.889   4.469  0.1099  0.1899 -0.1868
 8879TIP3    H148052   4.370   5.803   4.510  1.0998  0.6981  0.6460
 8879TIP3    H248053   4.416   5.887   4.393 -0.2483 -0.0618 -0.4512
 8880TIP3   OH248054   5.467   5.191   4.242  0.1660  0.0478  0.5677
 8880TIP3    H148055   5.427   5.105   4.231 -0.0098 -0.1156  2.4094
 8880TIP3    H248056   5.560   5.172   4.260  0.5442  0.3293 -1.0219
 8881TIP3   OH248057   1.608   5.798  16.748 -0.3911  0.3528 -0.0793
 8881TIP3    H148058   1.634   5.888  16.726 -4.0753  1.7482  0.9101
 8881TIP3    H248059   1.604   5.754  16.663 -1.4409  1.9674 -0.9096
 8882TIP3   OH248060   2.684   0.847   6.463  0.1009  1.3379  0.5175
 8882TIP3    H148061   2.662   0.759   6.434  0.8734  1.6842 -1.1934
 8882TIP3    H248062   2.599   0.888   6.483 -0.3135  0.4747  0.5229
 8883TIP3   OH248063   3.468   2.566  11.118 -0.1968  0.1210  0.2861
 8883TIP3    H148064   3.536   2.542  11.180  0.5012  0.7935 -0.2020
 8883TIP3    H248065   3.438   2.652  11.148  0.2688  0.5308 -0.3949
 8884TIP3   OH248066   6.253   0.619   5.865  0.0031 -0.2987 -0.2115
 8884TIP3    H148067   6.219   0.709   5.863 -2.3875 -1.1058  1.0771
 8884TIP3    H248068   6.252   0.595   5.957  3.7240 -0.5917 -0.1782
 8885TIP3   OH248069   0.276   1.565  15.946  0.0337  0.4305 -0.5406
 8885TIP3    H148070   0.345   1.570  15.880  1.6423  0.0581  1.0610
 8885TIP3    H248071   0.278   1.650  15.990  0.0268  0.1262  0.0498
 8886TIP3   OH248072   4.751   4.151   3.898  0.6234  0.3875 -0.1654
 8886TIP3    H148073   4.843   4.177   3.900  0.9289 -0.6959  0.0379
 8886TIP3    H248074   4.704   4.231   3.873  1.6358  0.8836 -0.5086
 8887TIP3   OH248075   0.841   2.208  12.221  0.3165  0.1595  0.0679
 8887TIP3    H148076   0.819   2.123  12.184 -0.4683  0.2305  0.3549
 8887TIP3    H248077   0.777   2.268  12.182 -0.3742  0.2722  1.3589
 8888TIP3   OH248078   6.578   3.257   5.982  0.1549  0.1892 -0.6458
 8888TIP3    H148079   6.642   3.196   5.946  0.2893 -0.3831  0.5728
 8888TIP3    H248080   6.599   3.263   6.075 -2.2746 -0.8638 -0.0088
 8889TIP3   OH248081   5.379   2.954  11.900 -0.0210  0.5397  0.5401
 8889TIP3    H148082   5.332   2.992  11.826 -2.1684 -0.3968  1.3570
 8889TIP3    H248083   5.343   2.865  11.908  2.8660 -0.7160  0.3969
 8890TIP3   OH248084   6.428   1.292  14.763 -0.2464 -0.2483 -0.0856
 8890TIP3    H148085   6.349   1.316  14.811 -0.7019 -2.2780  0.2301
 8890TIP3    H248086   6.499   1.337  14.808 -0.9840 -0.0212  0.8552
 8891TIP3   OH248087   1.994   4.706   5.191 -0.0868  0.1379  0.0038
 8891TIP3    H148088   2.030   4.690   5.278  0.0211  1.2498  0.1743
 8891TIP3    H248089   2.070   4.712   5.134  0.0257  2.2656  0.3276
 8892TIP3   OH248090   0.950   2.582  12.268 -0.3819 -0.4414 -0.2585
 8892TIP3    H148091   0.889   2.639  12.221  1.1109  0.7523 -0.7944
 8892TIP3    H248092   0.928   2.596  12.360 -0.3298  0.6818 -0.4003
 8893TIP3   OH248093   0.204   0.893   1.009  0.4883  0.1595  0.3911
 8893TIP3    H148094   0.202   0.931   1.097  1.0579  2.5554 -0.5753
 8893TIP3    H248095   0.203   0.969   0.951  0.3879 -1.3847 -1.6716
 8894TIP3   OH248096   1.391   2.888  11.970 -0.0003 -0.1848  0.5680
 8894TIP3    H148097   1.344   2.862  11.891  0.8994  0.6668 -0.2529
 8894TIP3    H248098   1.354   2.973  11.993 -0.1093 -0.3328  0.9328
 8895TIP3   OH248099   6.385   1.953   1.888 -0.1219 -0.4730  0.5615
 8895TIP3    H148100   6.447   2.010   1.844 -1.5523 -0.3522 -1.3685
 8895TIP3    H248101   6.307   2.007   1.900 -1.2762 -1.7793 -0.7380
 8896TIP3   OH248102   3.234   6.036   4.277 -0.0133  0.0334 -0.4109
 8896TIP3    H148103   3.231   6.025   4.182  1.5703  0.4703 -0.5269
 8896TIP3    H248104   3.297   5.971   4.306  0.1516  0.4903  0.2549
 8897TIP3   OH248105   2.329   1.841   0.742 -0.2020 -0.3825  0.1733
 8897TIP3    H148106   2.403   1.883   0.784 -0.4017 -0.4831  0.6331
 8897TIP3    H248107   2.307   1.768   0.800 -1.8209  0.7356  1.0222
 8898TIP3   OH248108   6.215   3.361  16.252  0.3143  0.1358  0.1373
 8898TIP3    H148109   6.280   3.304  16.292  0.7560  1.3898  1.2461
 8898TIP3    H248110   6.192   3.317  16.170  0.4698 -1.7264  1.0634
 8899TIP3   OH248111   2.129   3.331   1.967  0.4500  0.5081  0.2953
 8899TIP3    H148112   2.168   3.352   2.052  0.4764 -0.0422  0.4189
 8899TIP3    H248113   2.038   3.361   1.975 -0.6296 -2.9738  1.8798
 8900TIP3   OH248114   3.400   5.548   0.116  0.0367 -0.0446  0.1748
 8900TIP3    H148115   3.326   5.607   0.104  0.1350  0.3311  1.3540
 8900TIP3    H248116   3.471   5.588   0.066  0.1946  1.0258  1.2329
 8901TIP3   OH248117   0.994   4.853   4.197 -0.2274  0.2541  0.3549
 8901TIP3    H148118   0.945   4.923   4.241  1.0899  1.8315 -0.6410
 8901TIP3    H248119   1.035   4.805   4.269  1.3014  2.3600  0.9772
 8902TIP3   OH248120   3.064   1.508  12.400 -0.4194 -0.1020 -0.2935
 8902TIP3    H148121   3.003   1.470  12.464 -0.6707  0.9494  0.1026
 8902TIP3    H248122   3.138   1.538  12.452 -0.4107  0.3237 -0.5484
 8903TIP3   OH248123   2.718   3.299  12.220  0.1350 -0.7028  0.3556
 8903TIP3    H148124   2.789   3.235  12.220  0.6956 -0.0854  0.6381
 8903TIP3    H248125   2.651   3.261  12.162  1.9107  0.0483 -2.2780
 8904TIP3   OH248126   4.459   1.367  14.121  0.3508 -0.1777 -0.4424
 8904TIP3    H148127   4.435   1.322  14.040  0.9024 -2.0537  0.3890
 8904TIP3    H248128   4.384   1.354  14.179  1.4134 -2.0647  0.5782
 8905TIP3   OH248129   5.366   5.993   1.177 -0.8690 -0.2222 -0.3295
 8905TIP3    H148130   5.355   6.075   1.225  0.2305  0.0950 -0.6082
 8905TIP3    H248131   5.404   5.932   1.241  2.5332  0.7850 -1.2889
 8906TIP3   OH248132   4.815   4.676  12.726  0.1159  0.1645 -0.5975
 8906TIP3    H148133   4.781   4.758  12.690 -0.5805  0.1757  0.0742
 8906TIP3    H248134   4.785   4.676  12.817 -0.1042 -0.9563 -0.6633
 8907TIP3   OH248135   2.445   4.492   6.079  0.3051 -0.6120 -0.1486
 8907TIP3    H148136   2.473   4.579   6.109  0.1847 -0.8802  0.7489
 8907TIP3    H248137   2.389   4.460   6.149 -0.5921 -0.9318 -1.0088
 8908TIP3   OH248138   3.009   6.232  13.611 -0.5858  0.4719  0.4164
 8908TIP3    H148139   3.094   6.214  13.649 -0.7751  1.0061  1.1032
 8908TIP3    H248140   3.029   6.276  13.528 -0.1463 -2.0951 -0.8925
 8909TIP3   OH248141   3.963   5.378   2.447 -0.2360 -0.1650 -0.0958
 8909TIP3    H148142   4.045   5.409   2.485  0.6243 -0.5560 -1.5798
 8909TIP3    H248143   3.911   5.350   2.522  1.3346 -0.7355  0.8198
 8910TIP3   OH248144   4.807   1.141   5.716 -0.3346 -0.3090  0.0073
 8910TIP3    H148145   4.899   1.142   5.742 -0.0464  2.6451 -0.8941
 8910TIP3    H248146   4.806   1.093   5.633  0.7192  1.1565 -0.8871
 8911TIP3   OH248147   0.438   2.113   2.395 -0.5416 -0.0521 -0.3244
 8911TIP3    H148148   0.364   2.081   2.445 -0.3668 -1.1982 -0.7749
 8911TIP3    H248149   0.417   2.091   2.304  1.4598 -2.6774 -0.2028
 8912TIP3   OH248150   2.349   2.197  16.412  0.0400 -0.7589  0.0131
 8912TIP3    H148151   2.350   2.204  16.508 -0.0844 -1.5988  0.0791
 8912TIP3    H248152   2.260   2.220  16.388 -0.3166 -1.8714  0.2171
 8913TIP3   OH248153   6.153   2.796   1.938  0.2360  1.0150 -0.3181
 8913TIP3    H148154   6.062   2.789   1.910 -0.5741  0.5356  2.2387
 8913TIP3    H248155   6.166   2.890   1.952 -0.3699  0.9454  0.7891
 8914TIP3   OH248156   0.732   1.052   1.845 -0.4712  0.9401  0.0568
 8914TIP3    H148157   0.748   1.055   1.751  0.2870  0.3219  0.1649
 8914TIP3    H248158   0.657   1.110   1.858 -1.1409  0.3551 -1.0452
 8915TIP3   OH248159   1.950   0.377  15.652  0.6883  0.5052 -0.6300
 8915TIP3    H148160   2.010   0.442  15.690  2.2500 -1.6337  0.7207
 8915TIP3    H248161   2.002   0.297  15.649 -1.5780 -0.9799 -1.1108
 8916TIP3   OH248162   3.766   4.733  12.425  0.2097 -0.3962 -0.2925
 8916TIP3    H148163   3.836   4.798  12.421  1.5870 -1.8335  0.1597
 8916TIP3    H248164   3.713   4.750  12.347  1.8777 -0.2184 -1.3981
 8917TIP3   OH248165   1.359   0.789  13.093 -0.1307  0.4250  0.1494
 8917TIP3    H148166   1.417   0.759  13.163 -0.5369 -0.4290  0.1343
 8917TIP3    H248167   1.418   0.805  13.019  0.1896  0.4000  0.3979
 8918TIP3   OH248168   6.360   2.675   1.076 -0.1058 -0.4190  0.1994
 8918TIP3    H148169   6.321   2.588   1.086 -0.2726 -0.2884  0.7654
 8918TIP3    H248170   6.387   2.699   1.165  0.3558 -0.0859 -0.0307
 8919TIP3   OH248171   2.635   4.982   4.676 -0.1894 -0.0559  0.1977
 8919TIP3    H148172   2.714   4.973   4.730 -1.5930  2.9314  2.9735
 8919TIP3    H248173   2.667   5.003   4.589  2.0904 -0.7229  0.8453
 8920TIP3   OH248174   6.117   6.205   3.121 -0.7946  0.1043  0.2023
 8920TIP3    H148175   6.102   6.122   3.168 -1.3310  0.9771  1.6197
 8920TIP3    H248176   6.161   6.179   3.041 -0.3691 -1.5076  0.9246
 8921TIP3   OH248177   0.409   2.885  13.670 -0.4105 -0.4464 -0.0001
 8921TIP3    H148178   0.443   2.861  13.756 -1.4673 -0.9670  0.2788
 8921TIP3    H248179   0.482   2.872  13.610 -0.4485 -2.7156  0.4112
 8922TIP3   OH248180   3.037   2.733   4.696 -0.1139  0.0274 -0.5087
 8922TIP3    H148181   3.120   2.686   4.686 -0.8289 -1.8782  1.7779
 8922TIP3    H248182   2.972   2.676   4.654 -0.6001  0.2926 -0.1263
 8923TIP3   OH248183   3.454   0.031  17.058  0.0831  0.4115  0.1142
 8923TIP3    H148184   3.368   0.024  17.099  0.4321  1.2841  1.0163
 8923TIP3    H248185   3.485  -0.059  17.051 -1.7407 -0.0897 -2.0543
 8924TIP3   OH248186   5.295   3.669   2.106 -0.2377 -0.1667 -0.0512
 8924TIP3    H148187   5.226   3.651   2.170 -1.2898 -1.2701 -1.4765
 8924TIP3    H248188   5.254   3.651   2.021  1.7618 -0.6855 -0.9179
 8925TIP3   OH248189   0.672   3.598   6.285  0.1652  0.0139 -0.2096
 8925TIP3    H148190   0.647   3.527   6.226 -1.2306  0.9978 -0.8224
 8925TIP3    H248191   0.752   3.567   6.327 -0.3864 -1.8819 -0.5294
 8926TIP3   OH248192   4.338   1.570   5.542  0.4276 -0.8684 -0.1898
 8926TIP3    H148193   4.383   1.587   5.624 -1.0057  1.2481  0.2116
 8926TIP3    H248194   4.385   1.621   5.477  0.5469 -1.2017 -0.3651
 8927TIP3   OH248195   1.724   0.573   5.396 -0.6567  0.2608 -0.3487
 8927TIP3    H148196   1.751   0.550   5.307  1.9617  1.2194  0.1583
 8927TIP3    H248197   1.745   0.495   5.448 -0.7682  0.2510 -0.3192
 8928TIP3   OH248198   4.271   3.455   1.138  0.2774  0.4233  0.2347
 8928TIP3    H148199   4.301   3.541   1.169  0.3611  0.9343 -1.2288
 8928TIP3    H248200   4.181   3.449   1.168  0.0337  1.3529 -0.2671
 8929TIP3   OH248201   0.115   3.909   5.324  0.7555  0.6212 -0.0343
 8929TIP3    H148202   0.134   3.971   5.253 -1.3405  1.3127 -0.0104
 8929TIP3    H248203   0.163   3.944   5.400 -0.5440  2.3348  0.0248
 8930TIP3   OH248204   4.020   5.750   0.000 -0.2583  0.4837  0.0668
 8930TIP3    H148205   4.106   5.718  -0.028 -0.1127  1.5109 -0.6537
 8930TIP3    H248206   4.031   5.844   0.010 -1.7020  0.8245 -1.4526
 8931TIP3   OH248207   3.381   4.219   1.007 -0.1811 -1.0405 -0.2935
 8931TIP3    H148208   3.418   4.223   1.095  0.8233 -0.4460 -0.7397
 8931TIP3    H248209   3.340   4.133   1.002 -0.5839 -0.9211  0.8914
 8932TIP3   OH248210   6.482   6.359  14.882  0.0324 -0.5131 -0.0243
 8932TIP3    H148211   6.389   6.346  14.864 -0.0203  0.1424 -0.2675
 8932TIP3    H248212   6.494   6.331  14.973 -0.5662  0.1313  0.2589
 8933TIP3   OH248213   0.107   5.707   1.310 -0.3982 -0.5396  0.4584
 8933TIP3    H148214   0.100   5.769   1.237  0.1699 -0.2955  0.6104
 8933TIP3    H248215   0.060   5.629   1.280 -1.5441  0.1473  0.4688
 8934TIP3   OH248216   4.055   4.325   2.748 -0.4985 -0.1031 -0.1895
 8934TIP3    H148217   4.116   4.270   2.699 -2.0000  0.0906 -2.3466
 8934TIP3    H248218   4.018   4.384   2.683 -4.9508 -1.9399  0.4717
 8935TIP3   OH248219   5.066   4.022   4.836  0.3806  0.1230  0.0027
 8935TIP3    H148220   5.032   4.018   4.747  0.0178 -0.5264  0.1687
 8935TIP3    H248221   5.112   3.938   4.849  2.8178  1.3306 -0.5251
 8936TIP3   OH248222   6.354   6.249   0.357 -0.1352 -0.0975 -0.2248
 8936TIP3    H148223   6.438   6.293   0.366  0.3464 -1.2254  0.7975
 8936TIP3    H248224   6.333   6.257   0.263  0.4727  1.3089 -0.2532
 8937TIP3   OH248225   0.577   2.868   3.631 -0.4095 -0.7964  0.0234
 8937TIP3    H148226   0.645   2.871   3.698 -0.3531  0.1907 -0.0743
 8937TIP3    H248227   0.500   2.834   3.676 -0.6481  0.8101  0.8343
 8938TIP3   OH248228   5.889   1.411  15.603 -0.3756  0.4399 -0.0551
 8938TIP3    H148229   5.797   1.407  15.579 -0.5853  0.4562  0.7454
 8938TIP3    H248230   5.936   1.386  15.523 -1.1247 -1.3079  0.0454
 8939TIP3   OH248231   0.383   3.573   1.169 -0.0185  0.3946 -0.0447
 8939TIP3    H148232   0.313   3.633   1.144 -0.6760  0.0184  0.8661
 8939TIP3    H248233   0.342   3.512   1.231  0.7306 -0.7538 -0.6560
 8940TIP3   OH248234   1.598   4.496  14.282  0.1773  0.6620  0.6384
 8940TIP3    H148235   1.693   4.490  14.296  0.6816  1.4535 -2.1788
 8940TIP3    H248236   1.576   4.586  14.305  0.0395  0.3967  1.5721
 8941TIP3   OH248237   1.462   5.343   0.450 -0.0004  0.6459 -0.5747
 8941TIP3    H148238   1.386   5.403   0.451  0.5241  1.3174  0.4678
 8941TIP3    H248239   1.444   5.281   0.521  0.7401  1.2256  0.1328
 8942TIP3   OH248240   1.479   6.229  15.660 -0.5593  0.2441  0.0266
 8942TIP3    H148241   1.486   6.296  15.728  1.1599  1.7122 -1.5557
 8942TIP3    H248242   1.502   6.147  15.705  0.6545  1.1964  1.1954
 8943TIP3   OH248243   2.040   2.951  12.746 -0.8630  0.3281 -0.1819
 8943TIP3    H148244   2.059   3.041  12.772  0.2951  0.4142 -1.2924
 8943TIP3    H248245   2.093   2.897  12.806 -1.2203  0.3920  0.1959
 8944TIP3   OH248246   3.211   4.809   5.012 -0.3508 -0.3124 -0.0033
 8944TIP3    H148247   3.154   4.824   5.087  0.5644  0.7181  0.4867
 8944TIP3    H248248   3.155   4.764   4.948 -1.5862  0.3085  0.6375
 8945TIP3   OH248249   3.345   2.391   3.337  0.3261 -0.3784 -0.4341
 8945TIP3    H148250   3.265   2.351   3.371  1.0081 -0.2235  1.4420
 8945TIP3    H248251   3.349   2.477   3.379  1.0200 -0.0373 -1.1830
 8946TIP3   OH248252   0.327   6.037  14.311 -0.2194  0.4282  0.1970
 8946TIP3    H148253   0.282   6.004  14.388 -1.0167  0.6452 -0.1762
 8946TIP3    H248254   0.266   6.100  14.272  0.1295  0.2332 -0.6745
 8947TIP3   OH248255   5.354   3.346  14.903  0.8330  0.3379 -0.2027
 8947TIP3    H148256   5.444   3.317  14.886  0.6594 -0.1143 -0.3525
 8947TIP3    H248257   5.317   3.279  14.959  0.5367  0.4409 -0.2726
 8948TIP3   OH248258   0.689   0.065   0.394 -0.6379 -0.2682  0.1571
 8948TIP3    H148259   0.733   0.150   0.402 -0.6721 -0.1599 -0.7343
 8948TIP3    H248260   0.742   0.006   0.447  0.4127 -0.0641 -0.6302
 8949TIP3   OH248261   0.599   0.862   3.229  0.2449  0.2846  0.0128
 8949TIP3    H148262   0.597   0.937   3.170  2.1422  0.3112 -0.0637
 8949TIP3    H248263   0.540   0.886   3.301 -1.2387  0.6910 -1.3375
 8950TIP3   OH248264   6.719   1.358   0.292 -0.1270  0.1337 -0.0839
 8950TIP3    H148265   6.785   1.421   0.261  1.6982 -1.9187 -0.5037
 8950TIP3    H248266   6.757   1.272   0.273 -2.7965 -1.1198  0.0126
 8951TIP3   OH248267   4.764   6.547  16.870  0.1292 -0.4209 -0.2301
 8951TIP3    H148268   4.853   6.575  16.891 -0.6848  1.4378  0.8513
 8951TIP3    H248269   4.708   6.593  16.933 -1.8360  0.4995 -2.5369
 8952TIP3   OH248270   1.335   1.472  13.019  0.4624  0.0928 -0.0636
 8952TIP3    H148271   1.395   1.520  13.076 -1.6570  1.2403  1.3014
 8952TIP3    H248272   1.388   1.443  12.945  2.5174  1.6199  0.7891
 8953TIP3   OH248273   2.281   6.455   3.065 -0.2910  0.0702 -0.0869
 8953TIP3    H148274   2.321   6.396   3.129 -0.9840 -1.6308 -1.1822
 8953TIP3    H248275   2.222   6.510   3.117 -0.0324 -0.5561  0.8850
 8954TIP3   OH248276   2.113   2.562  11.405  0.8399 -0.1174  0.7845
 8954TIP3    H148277   2.201   2.535  11.431  2.0784  1.8289 -1.2904
 8954TIP3    H248278   2.110   2.655  11.424 -0.9451 -0.2388  1.2118
 8955TIP3   OH248279   0.103   0.567  10.741 -0.0303 -0.7375 -0.0779
 8955TIP3    H148280   0.099   0.527  10.827 -0.1443 -1.2051 -0.2995
 8955TIP3    H248281   0.189   0.541  10.707 -0.0216 -0.6271 -0.1422
 8956TIP3   OH248282   1.663   3.023   4.220 -0.3368  0.6305 -0.7666
 8956TIP3    H148283   1.670   2.950   4.282  2.6652  0.9358 -0.6519
 8956TIP3    H248284   1.650   3.100   4.276  3.9761  1.1314 -0.2669
 8957TIP3   OH248285   4.791   5.667  15.968 -0.3729  0.0454 -0.1474
 8957TIP3    H148286   4.705   5.697  15.939  0.1883 -0.3045 -2.3330
 8957TIP3    H248287   4.796   5.691  16.060 -2.0572  1.7708 -0.4740
 8958TIP3   OH248288   0.527   2.996   0.890 -0.1255  0.6529  0.1511
 8958TIP3    H148289   0.589   2.924   0.890 -0.1722  0.6056 -0.8085
 8958TIP3    H248290   0.475   2.984   0.811  0.5229  2.2947 -0.5526
 8959TIP3   OH248291   4.459   3.437   1.425 -0.1890  0.7254 -1.0341
 8959TIP3    H148292   4.413   3.367   1.472 -0.3045  1.3820 -0.1640
 8959TIP3    H248293   4.479   3.399   1.339  4.7038 -2.4429  1.2520
 8960TIP3   OH248294   2.120   3.702  11.133 -0.2341 -0.1139 -0.6285
 8960TIP3    H148295   2.192   3.672  11.077 -1.1719 -0.9046 -1.4119
 8960TIP3    H248296   2.043   3.700  11.077 -1.0317 -0.0515  0.4489
 8961TIP3   OH248297   4.189   4.783   0.283  0.1550  0.0554 -0.5688
 8961TIP3    H148298   4.232   4.804   0.201 -0.1214  1.4350 -0.3752
 8961TIP3    H248299   4.098   4.811   0.271  0.0716  0.1088  0.1546
 8962TIP3   OH248300   5.219   3.036   0.871  0.6364  0.2271  0.1724
 8962TIP3    H148301   5.225   3.010   0.779  0.6489 -0.9543  0.5039
 8962TIP3    H248302   5.245   3.128   0.871  1.3632  0.0358 -0.9037
 8963TIP3   OH248303   6.475   4.534  14.660  0.0838 -0.3595  0.2837
 8963TIP3    H148304   6.496   4.618  14.701 -3.3625  0.4537  0.6078
 8963TIP3    H248305   6.464   4.474  14.734 -1.1684 -0.1289  0.3006
 8964TIP3   OH248306   6.065   5.002   3.149  0.3151 -0.0571  0.0143
 8964TIP3    H148307   6.089   4.932   3.089  0.5702  0.4430 -0.4820
 8964TIP3    H248308   6.147   5.024   3.194  0.5792  0.8878 -0.8737
 8965TIP3   OH248309   6.233   1.882  15.311  0.4652 -0.2975 -0.2898
 8965TIP3    H148310   6.173   1.906  15.381 -0.6916 -3.3642 -0.1362
 8965TIP3    H248311   6.182   1.892  15.231  1.3097  1.7381 -0.6049
 8966TIP3   OH248312   2.198   6.436  14.350 -0.0634 -0.3739 -0.6373
 8966TIP3    H148313   2.267   6.386  14.306 -0.1322 -1.8779  0.8901
 8966TIP3    H248314   2.151   6.370  14.402  0.3492  1.3902  2.0748
 8967TIP3   OH248315   1.990   2.861  10.835 -0.5032 -0.6337  0.4628
 8967TIP3    H148316   1.963   2.880  10.924  0.7905 -0.2868  0.7925
 8967TIP3    H248317   2.084   2.841  10.842  0.1138  1.5170 -1.1063
 8968TIP3   OH248318   6.486   0.706  11.156  0.9517  0.5147 -0.4678
 8968TIP3    H148319   6.580   0.710  11.139  1.2089 -2.3096  0.0073
 8968TIP3    H248320   6.479   0.715  11.251  0.6382  2.0752 -0.6395
 8969TIP3   OH248321   6.493   2.510  14.450 -0.5186  0.2010 -0.2691
 8969TIP3    H148322   6.441   2.581  14.488 -1.1859 -0.5632  0.2451
 8969TIP3    H248323   6.461   2.431  14.492  0.1195 -0.4328 -0.9558
 8970TIP3   OH248324   6.346   2.423  11.741 -0.4658  0.5720  0.3242
 8970TIP3    H148325   6.324   2.354  11.680 -1.5935  0.2116  1.1369
 8970TIP3    H248326   6.304   2.398  11.823  0.7378  1.2201  1.1706
 8971TIP3   OH248327   2.091   4.739   5.477  0.0074 -0.2540 -0.2625
 8971TIP3    H148328   2.019   4.678   5.494 -0.7928  1.0845  1.2821
 8971TIP3    H248329   2.158   4.716   5.541 -0.2413  0.3699  0.2348
 8972TIP3   OH248330   3.606   1.485  11.392 -0.0423  0.4215 -0.0411
 8972TIP3    H148331   3.546   1.558  11.376 -0.8294 -0.3164 -0.4573
 8972TIP3    H248332   3.554   1.406  11.375  0.7557 -0.2470  0.5659
 8973TIP3   OH248333   3.397   1.804  17.028 -0.2910 -0.1805 -0.3009
 8973TIP3    H148334   3.463   1.755  16.979  2.6623  2.9657  0.3303
 8973TIP3    H248335   3.432   1.808  17.118 -1.0214  1.9350 -0.0713
 8974TIP3   OH248336   5.958   3.815  16.078  0.1157 -0.3286  0.1311
 8974TIP3    H148337   5.914   3.819  15.993 -1.5319  0.2153  0.9873
 8974TIP3    H248338   6.050   3.834  16.059 -0.2136 -0.3745 -1.5393
 8975TIP3   OH248339   1.774   0.255   5.857  0.4434  0.8308 -0.2438
 8975TIP3    H148340   1.781   0.250   5.762 -1.3474  0.5007 -0.3733
 8975TIP3    H248341   1.720   0.180   5.881  1.9607  0.1490  1.1718
 8976TIP3   OH248342   1.981   3.634   3.141 -0.0297  0.6090 -0.9226
 8976TIP3    H148343   2.030   3.696   3.196 -2.6631  2.4614 -0.5568
 8976TIP3    H248344   1.917   3.689   3.096 -1.5827 -1.7083 -1.5953
 8977TIP3   OH248345   2.249   0.745  10.670 -0.3392  0.5841  1.0826
 8977TIP3    H148346   2.180   0.810  10.681 -0.4712  0.4929  0.7942
 8977TIP3    H248347   2.314   0.789  10.615  0.5802  1.2399  2.6785
 8978TIP3   OH248348   6.366   0.149  16.836  0.2797  0.3263 -0.6954
 8978TIP3    H148349   6.274   0.122  16.834  0.3657 -0.2535  1.8516
 8978TIP3    H248350   6.403   0.105  16.912  2.7586  0.3792 -1.8086
 8979TIP3   OH248351   5.777   4.207  15.808  0.7700  0.2116  0.4334
 8979TIP3    H148352   5.697   4.218  15.859  0.0564  0.8329 -0.7844
 8979TIP3    H248353   5.840   4.266  15.848  1.3037 -1.8918  2.7646
 8980TIP3   OH248354   1.847   2.466  14.907 -0.6070 -0.1231  0.0249
 8980TIP3    H148355   1.790   2.497  14.977 -0.1384  1.2732 -0.2105
 8980TIP3    H248356   1.858   2.372  14.925 -1.1551  0.0573  1.3455
 8981TIP3   OH248357   3.644   4.019  16.501  0.0609  0.3180  0.2744
 8981TIP3    H148358   3.577   4.084  16.481  0.2458  1.0016  1.7467
 8981TIP3    H248359   3.681   3.994  16.416 -1.1802  0.8805 -0.4331
 8982TIP3   OH248360   2.957   0.724  14.114  0.6812  0.0826 -0.0403
 8982TIP3    H148361   2.960   0.806  14.065 -1.7022  1.3575  1.8028
 8982TIP3    H248362   3.039   0.723  14.164  0.3498  1.7753  0.5661
 8983TIP3   OH248363   1.330   2.618  16.172 -0.4430  0.0417 -0.5058
 8983TIP3    H148364   1.356   2.700  16.213 -0.8178 -0.7385  1.3365
 8983TIP3    H248365   1.407   2.562  16.178 -0.6172 -0.2048 -0.5563
 8984TIP3   OH248366   4.754   3.479   1.436 -0.1030  0.7561 -0.4191
 8984TIP3    H148367   4.667   3.457   1.402  0.5692 -0.7723 -1.2362
 8984TIP3    H248368   4.797   3.524   1.364  0.4222 -0.1651 -0.6912
 8985TIP3   OH248369   2.214   4.582  11.757  0.6924  0.1142 -0.7352
 8985TIP3    H148370   2.260   4.639  11.819  1.2321 -0.6631 -0.4038
 8985TIP3    H248371   2.277   4.512  11.739 -0.0926 -0.5583 -0.8641
 8986TIP3   OH248372   6.436   6.662   4.401  0.0432 -0.0033  0.2501
 8986TIP3    H148373   6.384   6.713   4.339 -0.1652  0.1266  0.5316
 8986TIP3    H248374   6.523   6.657   4.360  0.1077  0.6968  0.2823
 8987TIP3   OH248375   4.650   4.285   3.138  0.1416 -0.1866  0.1111
 8987TIP3    H148376   4.570   4.300   3.189  0.0335 -1.2864  0.2926
 8987TIP3    H248377   4.694   4.214   3.184  1.1226  0.2829 -0.1080
 8988TIP3   OH248378   5.772   5.626   1.642 -0.0103 -0.7086 -0.3631
 8988TIP3    H148379   5.836   5.697   1.652  0.5673 -1.1919 -0.5612
 8988TIP3    H248380   5.689   5.664   1.669  0.8712 -0.9173  2.7470
 8989TIP3   OH248381   6.496   5.587   6.652  0.5498 -0.3380 -0.3171
 8989TIP3    H148382   6.456   5.649   6.714  0.1911 -1.2268  0.3549
 8989TIP3    H248383   6.425   5.564   6.592 -0.0331 -2.0712  0.9965
 8990TIP3   OH248384   3.949   0.720   6.078 -0.1183 -0.7459  0.4499
 8990TIP3    H148385   4.015   0.665   6.120  0.9730  0.0093 -0.2563
 8990TIP3    H248386   3.888   0.742   6.149  1.5219  0.2452  1.5993
 8991TIP3   OH248387   4.596   3.295  14.017 -0.2395  0.1008  0.0828
 8991TIP3    H148388   4.618   3.312  13.926 -1.9411  1.0714 -0.1811
 8991TIP3    H248389   4.518   3.240  14.013  0.6697 -1.2821  0.9689
 8992TIP3   OH248390   6.402   0.845  12.595 -0.0055  0.3880  0.1515
 8992TIP3    H148391   6.380   0.764  12.550 -1.7644  0.9522 -0.0740
 8992TIP3    H248392   6.457   0.818  12.669  0.1902 -0.8969 -0.4546
 8993TIP3   OH248393   5.095   4.335  16.666  0.1546 -0.7177  0.0485
 8993TIP3    H148394   5.146   4.274  16.719 -1.8748 -1.5394  1.1225
 8993TIP3    H248395   5.128   4.422  16.691  2.2703 -1.2995 -0.6412
 8994TIP3   OH248396   6.284   4.848   3.590  0.3533 -0.9611 -0.0403
 8994TIP3    H148397   6.255   4.903   3.663 -0.9561 -0.6084 -0.8263
 8994TIP3    H248398   6.262   4.759   3.617  0.4441 -0.8889  0.2705
 8995TIP3   OH248399   2.398   3.755  13.438  0.2195 -0.3066  0.2053
 8995TIP3    H148400   2.482   3.756  13.483 -0.0203 -0.6887  0.6573
 8995TIP3    H248401   2.416   3.795  13.353  1.2386 -2.0026 -0.3896
 8996TIP3   OH248402   0.407   0.288  13.779 -0.2083  0.4701 -0.2691
 8996TIP3    H148403   0.329   0.300  13.835  0.1032  0.5993  0.1412
 8996TIP3    H248404   0.407   0.195  13.758 -0.1610  0.3679  0.1883
 8997TIP3   OH248405   1.781   5.261  11.913 -0.0471  0.0924  0.3246
 8997TIP3    H148406   1.836   5.333  11.943  0.4650  0.2940 -1.0691
 8997TIP3    H248407   1.737   5.296  11.835  0.5707 -1.2494 -0.6392
 8998TIP3   OH248408   3.936   5.858  13.088  0.3875  0.5739  0.7936
 8998TIP3    H148409   3.947   5.778  13.140 -1.0599 -1.2580 -1.6092
 8998TIP3    H248410   4.001   5.850  13.019 -1.3128  0.3213 -0.8012
 8999TIP3   OH248411   3.104   1.923   4.748 -0.3810 -0.0862 -0.1982
 8999TIP3    H148412   3.149   1.876   4.678 -0.0375  0.8173 -0.5901
 8999TIP3    H248413   3.028   1.963   4.706 -0.5459 -0.0966  0.0831
 9000TIP3   OH248414   5.664   0.310  15.959 -0.1026  0.6363  0.3627
 9000TIP3    H148415   5.722   0.268  15.896 -0.7629 -1.3718  1.0492
 9000TIP3    H248416   5.609   0.368  15.906  0.7719  0.5678 -0.6297
 9001TIP3   OH248417   6.775   1.521  12.002  0.6112 -0.1776 -0.1255
 9001TIP3    H148418   6.764   1.557  12.090  0.1754 -0.8523  0.0968
 9001TIP3    H248419   6.721   1.443  12.001  1.7444 -0.9644 -0.5399
 9002TIP3   OH248420   0.590   0.269  15.778 -0.2507 -0.1324 -0.1946
 9002TIP3    H148421   0.620   0.283  15.868  0.0803  0.3552 -0.3827
 9002TIP3    H248422   0.663   0.297  15.723 -0.3102 -0.7795 -0.6146
 9003TIP3   OH248423   5.324   5.742   6.315 -0.8379  0.2128  0.3850
 9003TIP3    H148424   5.405   5.728   6.265 -0.0810 -1.4488  2.0038
 9003TIP3    H248425   5.316   5.837   6.322 -0.0133  0.4335 -1.3735
 9004TIP3   OH248426   4.912   1.236  17.101  0.1186  0.5337 -0.5544
 9004TIP3    H148427   4.885   1.319  17.062 -2.1875  0.0460 -0.0735
 9004TIP3    H248428   4.878   1.169  17.042 -0.6592 -0.1317  0.6211
 9005TIP3   OH248429   4.616   4.555  16.634 -0.3811 -0.3799  0.3681
 9005TIP3    H148430   4.595   4.612  16.709  0.4191 -0.2274  0.4752
 9005TIP3    H248431   4.557   4.481  16.644 -1.1031  0.2065  0.4884
 9006TIP3   OH248432   1.865   0.769   5.004 -0.2213  0.3669  0.0947
 9006TIP3    H148433   1.906   0.856   5.006 -0.7162  0.5881  2.0334
 9006TIP3    H248434   1.775   0.786   5.032 -0.3976 -0.7434  0.1920
 9007TIP3   OH248435   4.610   2.426  16.690  0.0600 -0.4805 -0.3861
 9007TIP3    H148436   4.574   2.340  16.710  0.0480 -0.2760  0.4746
 9007TIP3    H248437   4.654   2.454  16.771 -1.0542  0.8867 -0.2287
 9008TIP3   OH248438   2.881   4.499   3.131  0.0316 -0.0896 -0.2090
 9008TIP3    H148439   2.828   4.499   3.210  1.3508 -0.1130  0.6943
 9008TIP3    H248440   2.845   4.570   3.077 -0.4693  0.3361  0.6879
 9009TIP3   OH248441   6.750   5.273  14.987 -0.0598 -0.1457  0.2095
 9009TIP3    H148442   6.662   5.236  14.996  0.3289 -1.6319 -1.7762
 9009TIP3    H248443   6.769   5.269  14.893  2.5724 -0.9087  0.7200
 9010TIP3   OH248444   3.170   1.901   4.179  0.0254  0.8924  0.3063
 9010TIP3    H148445   3.212   1.944   4.253 -0.5808  1.0892  0.5389
 9010TIP3    H248446   3.188   1.808   4.191  0.3025  0.9659  0.4630
 9011TIP3   OH248447   0.399   2.127  12.401 -0.6792  0.1297  0.3102
 9011TIP3    H148448   0.389   2.211  12.356  0.5762  0.1507  0.0476
 9011TIP3    H248449   0.485   2.132  12.443  0.5724 -2.0350 -1.8790
 9012TIP3   OH248450   4.481   4.914  10.743 -0.6326 -0.2816  0.3850
 9012TIP3    H148451   4.531   4.994  10.728 -0.1012 -1.0940 -2.6521
 9012TIP3    H248452   4.391   4.936  10.719 -0.3045 -0.8114 -1.4360
 9013TIP3   OH248453   3.969   4.201  12.223  0.0713  0.5371 -0.6912
 9013TIP3    H148454   3.880   4.171  12.244  0.6938  0.1646  1.4608
 9013TIP3    H248455   3.968   4.211  12.128 -2.0920 -0.0745 -0.7667
 9014TIP3   OH248456   6.114   5.024  15.652 -0.6579 -0.7083  0.0308
 9014TIP3    H148457   6.179   4.987  15.711  1.7288  0.7563 -1.5789
 9014TIP3    H248458   6.034   5.028  15.704  1.2157  0.0021  2.9905
 9015TIP3   OH248459   5.706   6.143   2.849 -0.2793  0.2540  0.9234
 9015TIP3    H148460   5.615   6.137   2.877 -1.7201  1.2279 -3.1044
 9015TIP3    H248461   5.716   6.234   2.821  1.3119 -0.3508 -0.5494
 9016TIP3   OH248462   5.356   6.674  12.326 -0.1210 -0.4929  0.4987
 9016TIP3    H148463   5.439   6.626  12.331 -1.3873 -2.9649 -0.9692
 9016TIP3    H248464   5.305   6.642  12.400 -0.7688 -1.0844 -0.1835
 9017TIP3   OH248465   0.542   1.740   1.622 -0.3125  0.8922  0.2911
 9017TIP3    H148466   0.449   1.729   1.640 -0.0650 -0.6143  0.6935
 9017TIP3    H248467   0.578   1.651   1.621  0.7229  1.2946 -2.1129
 9018TIP3   OH248468   5.698   4.553  16.170  0.2634  0.0551  0.6191
 9018TIP3    H148469   5.764   4.604  16.216 -0.6577  1.2874  0.5907
 9018TIP3    H248470   5.652   4.505  16.240 -2.2027  3.1598  1.2285
 9019TIP3   OH248471   5.102   0.452  16.966  0.2820  0.2855  0.4081
 9019TIP3    H148472   5.194   0.428  16.977 -0.1765 -1.9589 -0.2798
 9019TIP3    H248473   5.102   0.548  16.968  2.3732  0.2975  2.2410
 9020TIP3   OH248474   4.923   6.446  12.843  0.3181 -0.7288 -0.0745
 9020TIP3    H148475   4.870   6.479  12.915  0.2936  0.1113 -0.4718
 9020TIP3    H248476   5.000   6.408  12.886  0.4295  0.0038  0.3883
 9021TIP3   OH248477   2.094   0.864   4.311  0.0682 -0.3495 -0.2728
 9021TIP3    H148478   2.162   0.898   4.253 -1.0141  1.2633 -0.6330
 9021TIP3    H248479   2.107   0.770   4.311  0.7807 -0.2717 -2.2932
 9022TIP3   OH248480   4.717   5.772  13.698 -0.1436 -0.1236  0.4888
 9022TIP3    H148481   4.754   5.857  13.720 -1.0688  0.5136 -0.3436
 9022TIP3    H248482   4.639   5.764  13.754  0.4118 -0.8070  1.1788
 9023TIP3   OH248483   5.260   6.126  14.314 -0.1085 -0.0575  1.0120
 9023TIP3    H148484   5.335   6.153  14.369  0.8278  1.2881 -0.8703
 9023TIP3    H248485   5.292   6.050  14.266  1.2200  2.4360 -2.1873
 9024TIP3   OH248486   4.467   2.388   4.190 -0.0767 -0.0918  0.4397
 9024TIP3    H148487   4.521   2.463   4.166  0.7512 -1.5638 -2.5184
 9024TIP3    H248488   4.529   2.325   4.227 -0.5255  0.0943  1.5118
 9025TIP3   OH248489   5.030   6.610   2.825 -0.6852 -0.3683  0.0539
 9025TIP3    H148490   5.100   6.668   2.857 -1.8867  0.5538  1.0677
 9025TIP3    H248491   5.077   6.535   2.787  0.8612  0.2235  0.7266
 9026TIP3   OH248492   3.196   5.027  11.823  0.6428 -0.2722 -0.1869
 9026TIP3    H148493   3.214   4.937  11.851  0.9728 -0.0867  0.1836
 9026TIP3    H248494   3.102   5.027  11.803 -0.0111  0.0871  2.6833
 9027TIP3   OH248495   2.527   3.679  14.266  0.2016  0.7120  0.1114
 9027TIP3    H148496   2.554   3.622  14.338 -0.9515 -0.3378 -0.2610
 9027TIP3    H248497   2.586   3.656  14.194  1.6167  2.0474  0.8301
 9028TIP3   OH248498   4.123   5.746   6.505 -0.0855  0.2124  0.0651
 9028TIP3    H148499   4.174   5.710   6.577 -0.9719 -1.0617  0.0726
 9028TIP3    H248500   4.066   5.812   6.546 -0.1505 -0.0724  0.4345
 9029TIP3   OH248501   5.851   1.554  13.590 -0.1541  0.3669  0.2867
 9029TIP3    H148502   5.856   1.539  13.684 -1.2503 -2.8761 -0.1283
 9029TIP3    H248503   5.911   1.489  13.552 -0.1674  1.2438 -1.3007
 9030TIP3   OH248504   0.786   1.408  15.088 -0.0225  0.0098 -0.4129
 9030TIP3    H148505   0.776   1.315  15.108 -0.3521  0.4717  1.6508
 9030TIP3    H248506   0.877   1.416  15.059  0.4843 -0.6883  0.9701
 9031TIP3   OH248507   3.612   5.948   5.084 -0.3975 -0.4745 -0.3574
 9031TIP3    H148508   3.530   5.929   5.130  0.3492 -0.2022  1.1023
 9031TIP3    H248509   3.657   5.864   5.080  0.4927 -0.0968  1.3272
 9032TIP3   OH248510   1.841   2.104   2.873  0.5592  0.5414  1.0463
 9032TIP3    H148511   1.919   2.053   2.849  0.6335  1.0927  0.0859
 9032TIP3    H248512   1.771   2.066   2.820  0.4919  1.0338  0.7833
 9033TIP3   OH248513   5.692   2.776   2.757  0.3478  0.0990  0.7743
 9033TIP3    H148514   5.637   2.801   2.683 -1.5286  0.2972  2.1898
 9033TIP3    H248515   5.714   2.685   2.741 -2.4925 -0.7415  1.4132
 9034TIP3   OH248516   2.073   3.220   2.327  0.1411 -0.2685 -0.4148
 9034TIP3    H148517   2.041   3.213   2.417  0.5780 -0.0385 -0.2419
 9034TIP3    H248518   2.043   3.305   2.296  1.0048  0.1543 -0.0877
 9035TIP3   OH248519   0.742   4.050   4.272 -0.0127 -0.0182  0.4259
 9035TIP3    H148520   0.738   3.968   4.223 -0.5237  0.2616 -0.0077
 9035TIP3    H248521   0.830   4.084   4.255  0.8213 -1.3162  1.9934
 9036TIP3   OH248522   6.601   5.345  16.812  0.2881  0.5855  0.0175
 9036TIP3    H148523   6.617   5.415  16.750  1.7082  2.0117  1.9348
 9036TIP3    H248524   6.507   5.350  16.831  0.1324  1.0814 -0.8891
 9037TIP3   OH248525   6.263   3.283   3.553  0.1752 -0.0631  0.0201
 9037TIP3    H148526   6.350   3.307   3.583 -0.7806 -0.1121  3.0232
 9037TIP3    H248527   6.229   3.362   3.510  2.0004 -0.3343 -1.9779
 9038TIP3   OH248528   5.621   5.425  13.087 -0.1850  0.9571 -0.2270
 9038TIP3    H148529   5.657   5.369  13.156  1.0794  1.3999 -0.5084
 9038TIP3    H248530   5.572   5.493  13.133  0.4704  1.1208  0.2191
 9039TIP3   OH248531   2.294   2.511  14.853  0.1541 -0.1670  0.1033
 9039TIP3    H148532   2.379   2.548  14.878  0.5285 -0.6865 -0.3852
 9039TIP3    H248533   2.241   2.586  14.828  0.0239  0.3003  1.6993
 9040TIP3   OH248534   2.765   4.389  12.926  0.2145  0.9419 -0.3108
 9040TIP3    H148535   2.858   4.369  12.917  0.1790  0.7002 -0.1231
 9040TIP3    H248536   2.752   4.401  13.020 -0.4336 -1.3565 -0.0858
 9041TIP3   OH248537   3.742   4.677   2.241  0.1093  0.3414 -0.0790
 9041TIP3    H148538   3.794   4.721   2.308 -0.7878  0.1608  0.7392
 9041TIP3    H248539   3.701   4.604   2.287 -0.0309 -0.1439 -0.9681
 9042TIP3   OH248540   2.656   1.040   6.127  0.0796  0.3905  0.2990
 9042TIP3    H148541   2.611   1.084   6.199  1.2510  0.4858  1.0011
 9042TIP3    H248542   2.749   1.049   6.149  0.4708  0.6869 -1.3832
 9043TIP3   OH248543   5.738   5.978  12.332  0.1894  0.2120  0.2615
 9043TIP3    H148544   5.648   6.007  12.346  0.6067  1.7660 -0.1849
 9043TIP3    H248545   5.769   5.955  12.420 -1.1950 -2.0405  0.1937
 9044TIP3   OH248546   6.551   1.890  15.102  0.5402  0.0278 -0.5549
 9044TIP3    H148547   6.624   1.946  15.130 -1.6954  2.4575  0.6606
 9044TIP3    H248548   6.538   1.830  15.175  0.5940  0.3491 -0.2777
 9045TIP3   OH248549   3.346   0.725   4.512  0.2297 -0.2089 -0.7250
 9045TIP3    H148550   3.334   0.764   4.599  0.3788  0.5600 -1.0417
 9045TIP3    H248551   3.319   0.634   4.522 -0.1892 -0.0051  0.0183
 9046TIP3   OH248552   5.043   3.587   2.877  0.5709 -0.1473 -0.5148
 9046TIP3    H148553   5.009   3.529   2.945  2.0107 -2.2943 -1.5827
 9046TIP3    H248554   5.137   3.573   2.878  0.9088  1.9366 -1.0501
 9047TIP3   OH248555   6.454   5.972  14.358 -0.3008 -0.2196 -0.0764
 9047TIP3    H148556   6.482   6.054  14.318  0.3816 -0.3419  0.1426
 9047TIP3    H248557   6.359   5.978  14.361 -0.3161  0.0292 -1.1814
 9048TIP3   OH248558   2.382   4.467   2.182 -0.3336 -0.4025 -0.7294
 9048TIP3    H148559   2.322   4.417   2.126 -0.1252 -2.0361  0.4629
 9048TIP3    H248560   2.334   4.478   2.264  0.7765 -1.2503  0.0395
 9049TIP3   OH248561   4.819   0.632  12.761  0.4471 -0.3347 -0.0350
 9049TIP3    H148562   4.753   0.630  12.691  0.7931 -0.3845 -0.3611
 9049TIP3    H248563   4.845   0.541  12.773  1.0140 -0.2296 -0.4413
 9050TIP3   OH248564   1.043   6.175  15.524 -0.5313  0.2114  0.1336
 9050TIP3    H148565   1.131   6.140  15.528 -0.9557 -0.8352  0.4900
 9050TIP3    H248566   0.989   6.111  15.572 -1.4326  0.9625  0.1480
 9051TIP3   OH248567   6.342   1.069   5.765  0.3173  0.1910 -0.2079
 9051TIP3    H148568   6.389   1.017   5.831  0.1405  0.4530  0.1263
 9051TIP3    H248569   6.256   1.084   5.804 -0.3058 -0.9161 -1.1303
 9052TIP3   OH248570   2.544   6.480  14.541 -0.0666 -0.2709  0.1585
 9052TIP3    H148571   2.589   6.408  14.586 -0.3595 -2.1704 -2.4878
 9052TIP3    H248572   2.451   6.458  14.548 -0.1874  0.1264 -0.2172
 9053TIP3   OH248573   0.872   2.707   3.358 -0.0751  0.3628 -0.4032
 9053TIP3    H148574   0.782   2.739   3.349  0.1116  0.9316 -0.2541
 9053TIP3    H248575   0.920   2.749   3.286 -0.2699 -1.1906 -1.4681
 9054TIP3   OH248576   2.860   0.723  15.653  0.1355 -0.1085  0.9865
 9054TIP3    H148577   2.952   0.701  15.644  0.5584  1.3211  1.7774
 9054TIP3    H248578   2.826   0.722  15.563  1.2601  0.7844  0.5368
 9055TIP3   OH248579   2.855   4.851  14.127  0.3615 -0.3928 -0.0644
 9055TIP3    H148580   2.891   4.937  14.106 -0.5837 -0.0057 -0.1155
 9055TIP3    H248581   2.877   4.797  14.051 -0.1635  0.1386 -0.5999
 9056TIP3   OH248582   3.653   2.412   0.252 -0.1555  0.3523 -0.1274
 9056TIP3    H148583   3.589   2.428   0.322  1.7978 -0.7540  1.9488
 9056TIP3    H248584   3.737   2.406   0.297  1.1698 -0.1993 -2.6104
 9057TIP3   OH248585   1.604   4.994   5.468  0.0289  0.4944  0.3842
 9057TIP3    H148586   1.572   4.932   5.403  0.5934  1.3662 -0.7415
 9057TIP3    H248587   1.563   4.966   5.550 -0.5938 -0.6863 -0.3144
 9058TIP3   OH248588   2.203   0.430  13.114 -0.2272  0.5403  0.1608
 9058TIP3    H148589   2.229   0.352  13.164 -1.2247  1.3035  1.9201
 9058TIP3    H248590   2.154   0.395  13.039  0.3794 -0.5686  0.2644
 9059TIP3   OH248591   3.968   5.466  14.261 -0.5101 -0.0519 -0.4257
 9059TIP3    H148592   4.029   5.538  14.246  1.1295 -1.2940  0.0694
 9059TIP3    H248593   4.025   5.390  14.274 -2.1941 -1.3424 -0.4923
 9060TIP3   OH248594   3.452   0.633  12.191  0.3110  0.7633 -0.0599
 9060TIP3    H148595   3.427   0.558  12.246  0.9727  0.2135 -0.4983
 9060TIP3    H248596   3.408   0.707  12.231 -3.2668 -0.3742 -1.6841
 9061TIP3   OH248597   4.421   4.387  14.748  0.2494  0.3039 -0.1188
 9061TIP3    H148598   4.470   4.355  14.672 -1.4445 -0.9086 -0.7247
 9061TIP3    H248599   4.401   4.308  14.798 -0.8113  0.8305  0.2848
 9062TIP3   OH248600   4.461   1.239  12.627 -0.4946  0.0231 -0.5730
 9062TIP3    H148601   4.458   1.334  12.615 -1.5300  0.0071 -0.5207
 9062TIP3    H248602   4.511   1.226  12.707 -1.3325  0.5860  0.0472
 9063TIP3   OH248603   2.876   6.471   0.590 -0.3798 -0.4276  0.1221
 9063TIP3    H148604   2.940   6.508   0.528 -1.5733  2.3701  0.5281
 9063TIP3    H248605   2.845   6.392   0.546  2.1866 -1.0130 -0.7840
 9064TIP3   OH248606   4.432   4.572  15.804  0.1200  0.1198 -0.0021
 9064TIP3    H148607   4.447   4.667  15.798  0.0789  0.0799 -0.9218
 9064TIP3    H248608   4.498   4.541  15.865  0.2416  0.7243  0.1825
 9065TIP3   OH248609   3.373   6.269   0.367 -0.0935  0.3991  0.0474
 9065TIP3    H148610   3.344   6.222   0.289  0.8087  1.2510 -0.8109
 9065TIP3    H248611   3.333   6.221   0.440 -2.5676  0.7904 -1.0132
 9066TIP3   OH248612   0.713   2.500  15.267 -0.0914  0.5434  0.7051
 9066TIP3    H148613   0.757   2.478  15.185 -0.3706  0.3439  0.6118
 9066TIP3    H248614   0.620   2.491  15.248 -0.1200 -0.6417  1.3696
 9067TIP3   OH248615   5.140   4.990   0.509  0.4922 -0.2442 -0.5026
 9067TIP3    H148616   5.082   4.981   0.434  0.7939 -0.9408 -0.6551
 9067TIP3    H248617   5.194   5.066   0.489 -1.4309  1.4125  0.3532
 9068TIP3   OH248618   0.329   6.006   3.618 -0.5194  0.8739  0.0938
 9068TIP3    H148619   0.266   5.965   3.677 -2.1003  2.8703 -0.1600
 9068TIP3    H248620   0.373   6.071   3.672  0.4113  0.4027 -0.0833
 9069TIP3   OH248621   4.979   3.819  15.851  0.7378  0.1845  0.3964
 9069TIP3    H148622   4.997   3.737  15.896 -0.1542 -0.4521 -0.3809
 9069TIP3    H248623   4.926   3.870  15.913  0.7314 -0.0971  0.6203
 9070TIP3   OH248624   1.200   2.684   5.705 -0.3677  0.4723  0.0984
 9070TIP3    H148625   1.171   2.717   5.790 -0.3128  0.8683 -0.0334
 9070TIP3    H248626   1.206   2.762   5.649 -0.5192  0.2008 -0.3041
 9071TIP3   OH248627   3.718   3.671  16.370  0.4452  0.6447 -0.0053
 9071TIP3    H148628   3.654   3.653  16.439 -0.2564  0.7187 -0.6383
 9071TIP3    H248629   3.704   3.603  16.305  1.1466  0.5440 -0.0566
 9072TIP3   OH248630   1.784   2.291  14.521 -0.2990 -0.3208  0.3650
 9072TIP3    H148631   1.820   2.208  14.489  0.8750  0.5445 -0.6004
 9072TIP3    H248632   1.861   2.345  14.539 -1.0653  0.7285  0.5121
 9073TIP3   OH248633   5.472   1.247   6.004 -0.4498 -0.3565  0.4375
 9073TIP3    H148634   5.438   1.317   6.059 -1.5372  0.7850 -1.6317
 9073TIP3    H248635   5.527   1.292   5.940 -0.5578 -1.4720 -0.4551
 9074TIP3   OH248636   6.379   4.447   6.462  0.9047  0.2142  0.1615
 9074TIP3    H148637   6.455   4.389   6.463  0.6764 -0.0793  1.4820
 9074TIP3    H248638   6.411   4.529   6.500  0.7379  0.3227  0.0671
 9075TIP3   OH248639   6.690   0.936  15.769  0.0467 -0.4849  0.5766
 9075TIP3    H148640   6.700   1.015  15.823  1.2408 -0.5216  0.4362
 9075TIP3    H248641   6.703   0.967  15.679 -2.4231 -0.3384  0.2599
 9076TIP3   OH248642   4.631   0.809   4.901  0.0755 -0.3858 -0.1319
 9076TIP3    H148643   4.581   0.728   4.892  0.6883 -0.8324  0.4879
 9076TIP3    H248644   4.719   0.787   4.872 -0.0561  0.3877 -1.1593
 9077TIP3   OH248645   3.919   5.266   4.306  0.0964  0.2051 -0.2313
 9077TIP3    H148646   3.967   5.198   4.352 -0.7084  0.2400  0.6700
 9077TIP3    H248647   3.980   5.340   4.302  2.0825 -1.4858 -3.8140
 9078TIP3   OH248648   3.085   4.799   2.967 -0.1585 -0.3020 -0.3141
 9078TIP3    H148649   3.031   4.758   2.900 -0.8950  0.2866 -0.0950
 9078TIP3    H248650   3.174   4.771   2.947 -0.2458  0.6087 -2.0951
 9079TIP3   OH248651   1.149   0.391  16.903 -0.7114  0.3221  0.3630
 9079TIP3    H148652   1.191   0.475  16.891  0.6247 -0.5873 -1.4911
 9079TIP3    H248653   1.192   0.353  16.980 -1.9265  1.6609  1.7350
 9080TIP3   OH248654   1.865   4.110  12.644  0.2995  0.7907 -0.2225
 9080TIP3    H148655   1.960   4.116  12.636  0.3840 -0.5256 -0.3974
 9080TIP3    H248656   1.848   4.115  12.738  0.5800  0.5679 -0.1587
 9081TIP3   OH248657   3.395   6.514  14.705 -0.1257  0.0633 -0.0666
 9081TIP3    H148658   3.333   6.579  14.735 -0.0688  0.2319 -0.3066
 9081TIP3    H248659   3.427   6.548  14.621  0.0912 -0.1487 -0.0734
 9082TIP3   OH248660   3.569   3.142   2.042 -0.1367  0.0910 -0.8600
 9082TIP3    H148661   3.567   3.097   2.126  0.0451  1.3409 -0.1688
 9082TIP3    H248662   3.501   3.100   1.990 -0.9030 -0.0385  0.2473
 9083TIP3   OH248663   4.299   3.099   1.861 -0.0378  0.3573 -0.0572
 9083TIP3    H148664   4.348   3.134   1.935  0.6232 -0.0504 -0.2972
 9083TIP3    H248665   4.293   3.005   1.879 -1.4603  0.5123  0.3903
 9084TIP3   OH248666   5.125   6.192   1.065 -0.1034 -0.4665  0.2269
 9084TIP3    H148667   5.040   6.234   1.066  0.1878  0.1031  1.5445
 9084TIP3    H248668   5.168   6.220   1.146  2.3043  1.2224 -1.5445
 9085TIP3   OH248669   6.544   1.918  11.714 -0.1079 -0.5319  0.3393
 9085TIP3    H148670   6.575   1.953  11.797  0.8172 -0.3816 -0.0628
 9085TIP3    H248671   6.582   1.830  11.709 -0.4032 -0.6523  0.2116
 9086TIP3   OH248672   0.977   0.781  16.502  0.5502 -0.3070  0.4082
 9086TIP3    H148673   1.060   0.826  16.482  0.0807  0.2621 -0.2683
 9086TIP3    H248674   0.911   0.829  16.453  0.2630 -2.7365 -1.6911
 9087TIP3   OH248675   1.023   4.751  12.287  0.3686  0.1019  0.3548
 9087TIP3    H148676   0.930   4.765  12.306  0.2512  0.0452 -0.1524
 9087TIP3    H248677   1.026   4.663  12.249  0.6260  0.1107  0.3563
 9088TIP3   OH248678   1.059   5.421   0.592  0.3464 -0.6340 -1.0238
 9088TIP3    H148679   1.064   5.341   0.646  4.7871 -0.0129 -0.3040
 9088TIP3    H248680   0.983   5.468   0.626 -0.6274 -3.1720  0.4843
 9089TIP3   OH248681   5.768   3.425   4.245  0.2260  0.3480 -0.4318
 9089TIP3    H148682   5.856   3.445   4.279 -0.2219 -0.6672  1.3594
 9089TIP3    H248683   5.764   3.330   4.244 -1.2097  0.3872  0.4048
 9090TIP3   OH248684   0.318   6.695   3.282  0.0180  0.0613 -0.7040
 9090TIP3    H148685   0.389   6.732   3.229  0.0927 -0.1582 -0.7592
 9090TIP3    H248686   0.354   6.615   3.319 -1.1264 -1.6567 -3.1470
 9091TIP3   OH248687   3.733   4.029  13.990 -0.0999 -0.8577 -0.1744
 9091TIP3    H148688   3.736   4.003  13.899 -0.6293 -0.4006 -0.3318
 9091TIP3    H248689   3.749   4.124  13.988 -0.3896 -0.7979  0.1725
 9092TIP3   OH248690   1.716   3.485  16.364 -0.0224 -0.0693 -0.5605
 9092TIP3    H148691   1.778   3.417  16.340  0.1580 -0.3031  0.5414
 9092TIP3    H248692   1.769   3.553  16.405 -0.4955 -0.3104  0.4619
 9093TIP3   OH248693   0.266   0.895   1.516  0.1065 -0.3401 -0.2024
 9093TIP3    H148694   0.204   0.948   1.566  0.7235  1.4417 -1.2960
 9093TIP3    H248695   0.297   0.829   1.578 -0.2961  0.8931  1.3323
 9094TIP3   OH248696   0.802   5.202  13.111  0.1107 -0.1648 -0.1057
 9094TIP3    H148697   0.802   5.296  13.092  2.3517  0.2895  2.0047
 9094TIP3    H248698   0.720   5.187  13.158 -0.5668  0.5830 -1.0245
 9095TIP3   OH248699   1.393   3.405  12.056 -0.6899 -0.0908 -0.2222
 9095TIP3    H148700   1.356   3.446  12.134  0.9753  0.0009  0.5509
 9095TIP3    H248701   1.409   3.314  12.081 -0.9544 -0.2823 -0.7392
 9096TIP3   OH248702   3.297   2.504   1.481  0.9874  0.4255  0.5631
 9096TIP3    H148703   3.242   2.503   1.560 -0.9437 -1.5673 -0.7399
 9096TIP3    H248704   3.335   2.416   1.477  1.4073  0.6478 -0.5005
 9097TIP3   OH248705   3.646   4.915   6.795 -0.6290 -0.2930  0.0890
 9097TIP3    H148706   3.697   4.858   6.738  0.3969  0.8420 -0.1344
 9097TIP3    H248707   3.661   4.881   6.883 -0.2186 -0.5074 -0.0645
 9098TIP3   OH248708   3.261   1.369  15.678  0.4454  0.6267 -0.2210
 9098TIP3    H148709   3.203   1.404  15.610 -0.8452  0.5851  0.8256
 9098TIP3    H248710   3.344   1.353  15.634 -0.5278  0.1088 -1.9035
 9099TIP3   OH248711   3.205   0.143   1.448 -0.1154  0.0374 -0.1205
 9099TIP3    H148712   3.262   0.120   1.374 -0.4023 -1.4527  0.0989
 9099TIP3    H248713   3.171   0.230   1.427  1.0743  0.3075 -0.9671
 9100TIP3   OH248714   5.014   2.899  15.536 -0.1131  1.0954 -0.3804
 9100TIP3    H148715   4.970   2.868  15.614 -0.0405 -0.7652 -1.0574
 9100TIP3    H248716   4.946   2.901  15.469  0.2849  0.6129 -0.8029
 9101TIP3   OH248717   2.366   6.346  13.054  0.3865  0.6944 -0.6183
 9101TIP3    H148718   2.412   6.342  13.137 -0.2763  0.0134 -0.2763
 9101TIP3    H248719   2.367   6.439  13.030  1.4360  0.7578 -0.3471
 9102TIP3   OH248720   6.682   1.714   6.481 -0.0354 -0.0660  0.1798
 9102TIP3    H148721   6.624   1.670   6.419 -2.0615  0.1610  1.8797
 9102TIP3    H248722   6.669   1.807   6.465  0.8966 -0.0101 -0.3369
 9103TIP3   OH248723   3.606   1.508  14.143 -0.0368 -0.2113 -0.1209
 9103TIP3    H148724   3.652   1.587  14.117 -1.1501  0.4898  0.0144
 9103TIP3    H248725   3.566   1.476  14.063  1.2374 -1.2074 -0.3802
 9104TIP3   OH248726   6.452   1.845  12.585 -0.1240 -0.3848  0.2402
 9104TIP3    H148727   6.393   1.794  12.642 -0.6601  0.1739  0.1931
 9104TIP3    H248728   6.408   1.846  12.500  0.2477 -0.4703  0.0481
 9105TIP3   OH248729   0.343   1.679   0.035  0.2748 -0.1201 -0.1425
 9105TIP3    H148730   0.362   1.685   0.129 -0.0519  3.3276 -0.2380
 9105TIP3    H248731   0.415   1.726  -0.007 -1.1105  0.9144 -1.4093
 9106TIP3   OH248732   6.581   4.085   2.692 -0.0664 -0.2318  0.2466
 9106TIP3    H148733   6.489   4.108   2.696 -0.5305 -1.9695  0.0044
 9106TIP3    H248734   6.607   4.073   2.784 -0.1832 -0.1304  0.2917
 9107TIP3   OH248735   2.342   0.824   1.944 -0.2270  0.4147  0.4012
 9107TIP3    H148736   2.423   0.774   1.955  0.8300  2.3944  2.0353
 9107TIP3    H248737   2.324   0.821   1.850  0.5032 -1.8999  0.3069
 9108TIP3   OH248738   4.200   3.389  14.846 -0.1238  0.3462 -0.2551
 9108TIP3    H148739   4.111   3.407  14.875 -0.0144  0.7818 -0.1859
 9108TIP3    H248740   4.190   3.333  14.769 -0.4921  1.4104 -0.9900
 9109TIP3   OH248741   6.494   2.495  16.231  0.4439  0.3977  0.1165
 9109TIP3    H148742   6.480   2.558  16.160  2.0000  1.8269  1.0281
 9109TIP3    H248743   6.554   2.540  16.291  2.1400 -2.2062  0.4546
 9110TIP3   OH248744   3.485   0.047  12.551  0.2134 -0.2087  0.0087
 9110TIP3    H148745   3.403   0.062  12.504 -0.0834 -1.0916  0.2522
 9110TIP3    H248746   3.520   0.135  12.566  0.1420  0.1023 -1.5631
 9111TIP3   OH248747   0.133   1.693   2.708 -0.3070  0.5026  0.4387
 9111TIP3    H148748   0.210   1.743   2.736 -0.0392  0.2825  0.0992
 9111TIP3    H248749   0.075   1.692   2.784 -0.6937  2.0843  0.1871
 9112TIP3   OH248750   2.334   6.624   1.591 -0.0726 -0.4421  0.4098
 9112TIP3    H148751   2.264   6.682   1.560  0.2575 -0.4061 -0.2788
 9112TIP3    H248752   2.321   6.620   1.686 -2.5874 -2.5049  0.0374
 9113TIP3   OH248753   5.777   2.078   3.421  0.0342  0.8219 -0.1210
 9113TIP3    H148754   5.756   1.990   3.451  1.4039  0.4208 -0.2703
 9113TIP3    H248755   5.718   2.135   3.469 -1.3915 -0.2320 -0.5729
 9114TIP3   OH248756   0.150   0.100   3.451  0.5587  0.6841 -0.1101
 9114TIP3    H148757   0.234   0.129   3.486  0.7162 -1.8413  1.7169
 9114TIP3    H248758   0.172   0.058   3.368  0.8137  2.0128 -0.7256
 9115TIP3   OH248759   2.652   4.994  12.910 -0.6822  0.3531  0.0978
 9115TIP3    H148760   2.587   5.063  12.902 -0.7542  0.3658  0.7950
 9115TIP3    H248761   2.617   4.923  12.856 -0.5774  0.8760 -0.6668
 9116TIP3   OH248762   2.134   3.597  16.337 -0.0218  0.2913 -0.0621
 9116TIP3    H148763   2.043   3.617  16.358 -0.4419 -1.2790 -0.3108
 9116TIP3    H248764   2.174   3.573  16.421  0.3770  1.6676  0.1685
 9117TIP3   OH248765   6.486   2.714  13.396 -0.7759 -0.6151 -0.5269
 9117TIP3    H148766   6.551   2.647  13.417 -0.7166 -0.3940  0.0063
 9117TIP3    H248767   6.432   2.675  13.328 -1.5638 -1.7086  0.7098
 9118TIP3   OH248768   3.002   1.232  15.834  0.5081 -0.2613 -0.6942
 9118TIP3    H148769   2.991   1.327  15.835 -0.8482 -0.4040  0.2953
 9118TIP3    H248770   2.935   1.202  15.773 -0.9090 -0.7520  1.0436
 9119TIP3   OH248771   0.101   6.537  15.455  0.2865 -0.2400  0.1980
 9119TIP3    H148772   0.160   6.610  15.437 -1.2512  1.3288  1.3445
 9119TIP3    H248773   0.116   6.515  15.547 -0.2585 -0.4508  0.2406
 9120TIP3   OH248774   3.240   0.780   0.528  0.5266  0.0426  0.0778
 9120TIP3    H148775   3.292   0.701   0.540 -1.2285 -0.9762  1.0495
 9120TIP3    H248776   3.195   0.767   0.444 -0.5978 -0.4731  0.7564
 9121TIP3   OH248777   1.497   2.098  16.612 -0.3001 -0.2157 -0.3059
 9121TIP3    H148778   1.584   2.135  16.620  0.0606 -0.9898 -0.6123
 9121TIP3    H248779   1.472   2.073  16.701 -0.4662  0.5593 -0.1272
 9122TIP3   OH248780   5.013   5.466   0.659 -0.1466  0.4479  0.6490
 9122TIP3    H148781   4.921   5.475   0.681 -0.1323  1.5308  0.3005
 9122TIP3    H248782   5.030   5.537   0.597  0.6159 -0.5022 -0.2486
 9123TIP3   OH248783   5.260   2.208  13.008  0.2693 -0.0264  0.3329
 9123TIP3    H148784   5.299   2.157  12.937 -1.0235 -1.1110  0.3979
 9123TIP3    H248785   5.284   2.162  13.088  0.2152  0.2061  0.4847
 9124TIP3   OH248786   5.816   3.926   3.295  0.3105  0.0513  0.0823
 9124TIP3    H148787   5.817   4.019   3.274  1.1748  0.0475  0.0773
 9124TIP3    H248788   5.737   3.892   3.252  0.7306  0.5226 -1.0699
 9125TIP3   OH248789   4.855   2.306  14.239 -0.1568  0.2751  0.2446
 9125TIP3    H148790   4.892   2.262  14.162 -0.8533 -1.5141  0.8999
 9125TIP3    H248791   4.891   2.394  14.236 -0.5545  0.3744 -2.3967
 9126TIP3   OH248792   4.982   1.128   1.800  0.5603  0.6633 -0.5264
 9126TIP3    H148793   5.052   1.069   1.828 -0.0578 -0.4002 -1.1733
 9126TIP3    H248794   4.902   1.080   1.821 -0.0108  2.1783  0.8961
 9127TIP3   OH248795   0.653   5.400   3.443 -0.2137 -0.3797  0.0514
 9127TIP3    H148796   0.698   5.467   3.392  0.5392 -0.3395  0.7501
 9127TIP3    H248797   0.560   5.422   3.436 -0.1159 -0.3705 -1.2741
 9128TIP3   OH248798   2.444   2.511   1.227  0.2158  0.0795 -0.3498
 9128TIP3    H148799   2.516   2.508   1.164 -0.4642 -0.1385 -1.1287
 9128TIP3    H248800   2.443   2.602   1.258 -0.9966  0.8328 -2.4977
 9129TIP3   OH248801   0.599   4.200   3.669 -0.0548  0.8082  0.1298
 9129TIP3    H148802   0.678   4.168   3.713  0.3070 -0.5748 -1.4418
 9129TIP3    H248803   0.632   4.252   3.596 -0.6080  0.9604 -0.0142
 9130TIP3   OH248804   1.010   6.406   2.448 -0.0146 -0.7733  0.4637
 9130TIP3    H148805   1.094   6.396   2.493  1.0774 -0.1903 -1.3857
 9130TIP3    H248806   0.985   6.497   2.463  1.9832  0.3758 -2.7862
 9131TIP3   OH248807   5.867   4.653  11.579  0.1118 -0.6182  0.3346
 9131TIP3    H148808   5.860   4.735  11.626  0.4307  0.7057 -1.8313
 9131TIP3    H248809   5.779   4.637  11.544  0.3501 -0.4888 -0.3444
 9132TIP3   OH248810   5.387   4.691   3.869 -0.6541 -0.1434 -0.0106
 9132TIP3    H148811   5.301   4.659   3.841 -0.0784  0.4842 -2.6685
 9132TIP3    H248812   5.447   4.620   3.848 -0.5051 -0.6614  2.0208
 9133TIP3   OH248813   2.453   6.133  12.872  0.6770  0.3057  0.1299
 9133TIP3    H148814   2.476   6.156  12.782 -2.0500 -1.4665 -1.1024
 9133TIP3    H248815   2.387   6.197  12.897 -0.7099 -0.9625 -0.2243
 9134TIP3   OH248816   3.217   5.821   5.361 -0.2920  0.0772 -0.6935
 9134TIP3    H148817   3.141   5.781   5.403  1.2178  0.4867  2.5744
 9134TIP3    H248818   3.292   5.772   5.395  0.9636 -0.5027 -4.0760
 9135TIP3   OH248819   5.172   5.732  12.933 -0.7227  0.0866 -0.6923
 9135TIP3    H148820   5.109   5.711  12.864  0.6120  0.5877 -2.0803
 9135TIP3    H248821   5.246   5.675  12.916 -0.0069  0.8692 -0.2343
 9136TIP3   OH248822   2.016   0.554   0.651  0.2081 -0.3701 -0.0163
 9136TIP3    H148823   1.972   0.523   0.730 -0.9299 -2.0916 -1.2886
 9136TIP3    H248824   1.946   0.562   0.586  1.7532 -3.7383 -2.2590
 9137TIP3   OH248825   0.761   0.477   4.673 -0.3003  0.2367 -0.0783
 9137TIP3    H148826   0.754   0.573   4.682  0.2326  0.3925 -1.2808
 9137TIP3    H248827   0.722   0.459   4.587 -0.7878 -0.6764  0.3347
 9138TIP3   OH248828   1.163   0.866  15.885  1.0209 -0.5716 -0.6912
 9138TIP3    H148829   1.161   0.875  15.790 -0.2265  0.7130 -0.5659
 9138TIP3    H248830   1.232   0.926  15.914 -0.5158  1.2124 -0.6050
 9139TIP3   OH248831   6.529   0.606  16.748 -0.3023  0.3273  0.3783
 9139TIP3    H148832   6.556   0.567  16.831  0.0997 -0.5128 -0.1462
 9139TIP3    H248833   6.434   0.593  16.745 -0.1996 -0.4196  0.3051
 9140TIP3   OH248834   5.904   4.720   0.752  0.0542 -0.0986  0.2963
 9140TIP3    H148835   5.981   4.775   0.734 -0.1565 -0.3603 -1.3926
 9140TIP3    H248836   5.887   4.734   0.846  2.3899 -0.3289  0.7853
 9141TIP3   OH248837   5.717   3.000   2.316 -0.0408 -0.0554 -0.1934
 9141TIP3    H148838   5.710   3.001   2.412  1.4299 -0.6855 -0.0564
 9141TIP3    H248839   5.742   2.910   2.295  0.6895  0.3392 -1.0794
 9142TIP3   OH248840   3.414   4.919   5.981 -0.3154 -0.3029 -0.2791
 9142TIP3    H148841   3.354   4.993   5.965 -0.4783 -0.1303  1.0814
 9142TIP3    H248842   3.481   4.955   6.039  1.0603 -0.5359 -1.6959
 9143TIP3   OH248843   3.070   1.922   0.641 -0.4196  0.1839 -0.1568
 9143TIP3    H148844   3.119   1.842   0.626 -1.3563 -0.5193  0.4890
 9143TIP3    H248845   3.095   1.980   0.569 -0.4009 -1.0007 -1.1044
 9144TIP3   OH248846   0.223   0.179  13.003 -0.1346 -0.0648 -0.0691
 9144TIP3    H148847   0.241   0.161  12.911  0.1450  0.0312 -0.0331
 9144TIP3    H248848   0.167   0.106  13.031  0.9924 -0.8898  0.0697
 9145TIP3   OH248849   3.577   5.071  11.544  0.4427  0.0109  0.0510
 9145TIP3    H148850   3.564   4.979  11.569 -0.3528  0.0903 -0.0715
 9145TIP3    H248851   3.643   5.068  11.475 -0.0862 -0.5346 -0.4372
 9146TIP3   OH248852   0.054   0.789   4.320  0.1499 -0.5485 -0.1075
 9146TIP3    H148853   0.080   0.707   4.364 -0.1758 -0.5303  0.1187
 9146TIP3    H248854  -0.032   0.809   4.357 -0.0536 -0.4474 -0.6472
 9147TIP3   OH248855   4.037   1.725  14.952  0.7633  0.2651  0.3336
 9147TIP3    H148856   4.050   1.787  14.881 -0.1597 -1.8368 -1.7511
 9147TIP3    H248857   4.117   1.672  14.953  0.7220  0.2087  0.7525
 9148TIP3   OH248858   1.951   0.048   2.440  0.3972  0.2149  0.4044
 9148TIP3    H148859   2.039   0.055   2.403  0.1585  2.3459  0.1406
 9148TIP3    H248860   1.951   0.111   2.513 -1.2100  0.9940 -0.2392
 9149TIP3   OH248861   5.377   0.137  16.789  0.5941  0.0131  0.2574
 9149TIP3    H148862   5.343   0.211  16.739  0.6935 -0.4863 -0.5554
 9149TIP3    H248863   5.307   0.114  16.849 -1.3339 -2.2833 -2.7317
 9150TIP3   OH248864   0.004   1.093  12.419 -0.1773  0.1666  0.3674
 9150TIP3    H148865   0.043   1.107  12.505  0.2305  0.6637  0.1019
 9150TIP3    H248866  -0.090   1.083  12.436 -0.1581  0.7585  0.8178
 9151TIP3   OH248867   3.072   0.774  13.782  0.5583 -0.4434  0.0413
 9151TIP3    H148868   3.039   0.863  13.773 -0.8828 -0.5787  3.2092
 9151TIP3    H248869   3.158   0.785  13.822 -1.4470 -0.5263  4.6746
 9152TIP3   OH248870   3.495   2.182  15.066  0.3080  0.0835 -0.2520
 9152TIP3    H148871   3.403   2.208  15.075  0.1570 -0.1853 -0.9283
 9152TIP3    H248872   3.542   2.237  15.127 -0.2515  0.5661 -0.2499
 9153TIP3   OH248873   0.296   3.387  16.633  0.1677  0.3694  0.6054
 9153TIP3    H148874   0.229   3.322  16.649  0.5514 -0.4277 -0.9685
 9153TIP3    H248875   0.266   3.435  16.556  1.0522  0.4820  0.3244
 9154TIP3   OH248876   2.343   1.833  16.203  0.1023  0.4127  0.1173
 9154TIP3    H148877   2.273   1.861  16.263 -1.1491 -0.5662 -0.8786
 9154TIP3    H248878   2.299   1.824  16.118  1.5776  0.3981 -0.6476
 9155TIP3   OH248879   3.722   5.857   4.050 -0.2688  0.1879 -0.4204
 9155TIP3    H148880   3.740   5.950   4.037  0.8261  0.0116 -0.1708
 9155TIP3    H248881   3.690   5.826   3.965  1.0970  0.3873 -1.0159
 9156TIP3   OH248882   1.474   6.361  14.278 -0.5989  0.4002 -0.2124
 9156TIP3    H148883   1.499   6.443  14.235  0.7615  0.2168  0.2191
 9156TIP3    H248884   1.534   6.296  14.242 -0.0397  0.0725  1.3010
 9157TIP3   OH248885   4.792   6.219  16.157  0.6070  0.4332  0.2217
 9157TIP3    H148886   4.753   6.154  16.100  2.4471 -0.2230 -0.3011
 9157TIP3    H248887   4.847   6.169  16.217  0.2154  1.3001  1.3384
 9158TIP3   OH248888   5.853   4.542   6.839  0.5316 -0.0506 -0.0869
 9158TIP3    H148889   5.839   4.462   6.788  0.2860 -0.0551 -0.0138
 9158TIP3    H248890   5.767   4.585   6.841  0.6203  0.1246  0.0254
 9159TIP3   OH248891   4.148   0.156  13.270  0.1429 -0.3430  0.2144
 9159TIP3    H148892   4.189   0.070  13.281  1.4319  0.0488 -1.2331
 9159TIP3    H248893   4.171   0.181  13.180 -2.2004  0.4795 -0.1919
 9160TIP3   OH248894   2.515   6.723   3.878  0.1303  0.6612  0.5580
 9160TIP3    H148895   2.561   6.641   3.860  0.3575  1.0686 -0.8048
 9160TIP3    H248896   2.485   6.752   3.792  0.9367  2.5390  0.9059
 9161TIP3   OH248897   3.368   2.855   3.283 -0.7539 -0.4304  0.0775
 9161TIP3    H148898   3.423   2.818   3.215 -0.2012  1.6178 -0.6421
 9161TIP3    H248899   3.429   2.906   3.337 -1.6817  0.5139  0.2433
 9162TIP3   OH248900   3.184   0.726  15.088 -0.0091  0.0419 -0.0053
 9162TIP3    H148901   3.097   0.764  15.092 -0.3590 -0.8564  1.1590
 9162TIP3    H248902   3.183   0.675  15.006  0.0929  1.5921 -0.9870
 9163TIP3   OH248903   5.200   6.349   2.517 -0.6290  0.0317  0.0291
 9163TIP3    H148904   5.148   6.428   2.506  1.5168  1.4577 -0.2372
 9163TIP3    H248905   5.216   6.342   2.611 -0.9903 -0.2011  0.0736
 9164TIP3   OH248906   0.475   0.236  11.343  0.4837  0.6804 -0.3222
 9164TIP3    H148907   0.419   0.309  11.372  0.6530  0.5256  0.3978
 9164TIP3    H248908   0.413   0.165  11.325  0.1404  1.5884 -2.8885
 9165TIP3   OH248909   0.711   0.696  15.931 -0.2051 -0.3196  0.1408
 9165TIP3    H148910   0.729   0.693  16.025  0.9788 -0.3909 -0.0858
 9165TIP3    H248911   0.628   0.648  15.921  0.9056 -2.4686  0.8519
 9166TIP3   OH248912   5.413   4.957  14.888 -0.0140  0.1714 -0.2053
 9166TIP3    H148913   5.427   5.051  14.881 -0.0510  0.4288  2.5419
 9166TIP3    H248914   5.490   4.918  14.848 -0.1019  1.3627 -1.5576
 9167TIP3   OH248915   3.746   3.564   4.622 -0.1686 -0.3099  0.6099
 9167TIP3    H148916   3.838   3.583   4.607 -0.5726  1.1908 -0.0154
 9167TIP3    H248917   3.707   3.647   4.649 -1.3251 -0.9503  0.9993
 9168TIP3   OH248918   4.890   1.736  16.335 -0.2472  0.4796  0.2397
 9168TIP3    H148919   4.940   1.814  16.312 -0.0321  0.1741 -0.3548
 9168TIP3    H248920   4.904   1.676  16.261 -0.8008  0.0662  0.4665
 9169TIP3   OH248921   6.534   6.371  12.398  0.4877 -0.4671 -0.5138
 9169TIP3    H148922   6.496   6.444  12.350 -1.5581 -0.3965  1.1243
 9169TIP3    H248923   6.468   6.302  12.392  0.8515 -0.9554  0.9037
 9170TIP3   OH248924   1.254   0.159   2.570  0.2923 -0.3296 -0.0871
 9170TIP3    H148925   1.223   0.250   2.570  0.5933 -0.2250 -0.6424
 9170TIP3    H248926   1.348   0.166   2.586  0.6132 -0.4325 -1.8504
 9171TIP3   OH248927   6.705   2.706  15.049  0.4936 -0.4168 -0.0985
 9171TIP3    H148928   6.649   2.705  14.972  2.0353  2.6192 -1.3489
 9171TIP3    H248929   6.645   2.704  15.123 -1.1172 -0.3333 -1.3816
 9172TIP3   OH248930   6.307   3.202   6.807  0.1556 -0.3206 -0.2152
 9172TIP3    H148931   6.228   3.160   6.771  1.0547 -1.9797 -0.3072
 9172TIP3    H248932   6.367   3.129   6.824  2.1487  1.0229 -1.3042
 9173TIP3   OH248933   4.474   6.615   5.796  0.2921  0.1932  0.0839
 9173TIP3    H148934   4.405   6.620   5.863 -1.7023 -1.1911 -1.8088
 9173TIP3    H248935   4.437   6.659   5.720  0.8759 -1.9467 -1.4720
 9174TIP3   OH248936   4.552   0.811   4.341  0.1431  0.2515 -0.0565
 9174TIP3    H148937   4.458   0.820   4.358  0.2111 -1.0729  1.1801
 9174TIP3    H248938   4.588   0.898   4.360 -0.6335  0.3797  0.9053
 9175TIP3   OH248939   2.679   5.392  12.766 -0.1408  0.4820  0.0807
 9175TIP3    H148940   2.627   5.405  12.687  1.0992  1.1055 -0.6602
 9175TIP3    H248941   2.762   5.435  12.747  0.9397 -1.1606  0.9044
 9176TIP3   OH248942   4.963   4.108  16.172  0.4461 -0.1097 -0.3934
 9176TIP3    H148943   4.999   4.152  16.249 -2.7959  0.3935  0.9432
 9176TIP3    H248944   4.898   4.169  16.138  1.5456 -0.5057 -3.3543
 9177TIP3   OH248945   6.412   2.072   2.213  0.0922  0.1654 -0.2065
 9177TIP3    H148946   6.457   2.032   2.138 -0.4371  0.1809 -0.5336
 9177TIP3    H248947   6.376   2.153   2.179 -3.1477 -1.4877 -0.8730
 9178TIP3   OH248948   5.612   1.454   3.383 -1.3461 -0.2629  0.1248
 9178TIP3    H148949   5.611   1.388   3.452 -0.6400 -1.1587 -0.7098
 9178TIP3    H248950   5.607   1.537   3.429 -1.4880 -0.8711  1.2221
 9179TIP3   OH248951   5.506   5.696   1.967  0.3206 -0.4226  0.4369
 9179TIP3    H148952   5.598   5.706   1.944 -0.0837  1.1336 -0.6685
 9179TIP3    H248953   5.460   5.747   1.900 -1.3754 -1.6104  0.6624
 9180TIP3   OH248954   2.487   1.508  13.627  0.0723 -0.5983  0.4921
 9180TIP3    H148955   2.415   1.454  13.595 -0.1642 -0.8849  1.4887
 9180TIP3    H248956   2.449   1.595  13.638 -0.0574 -0.6937  0.7899
 9181TIP3   OH248957   4.659   5.190   2.241 -0.0282 -0.0915 -0.1664
 9181TIP3    H148958   4.653   5.263   2.304  0.0126 -0.1275 -0.1206
 9181TIP3    H248959   4.665   5.112   2.296 -0.1067 -0.1317 -0.2153
 9182TIP3   OH248960   4.277   6.398  11.502  0.2475  0.0294 -0.2581
 9182TIP3    H148961   4.251   6.342  11.428 -1.7020 -0.9937  1.1633
 9182TIP3    H248962   4.341   6.345  11.550  1.1804  0.5170 -0.9507
 9183TIP3   OH248963   4.260   0.617  14.646  0.1386 -0.8319  0.3926
 9183TIP3    H148964   4.215   0.545  14.602 -1.9385  0.8450 -0.3357
 9183TIP3    H248965   4.268   0.590  14.737 -0.8569 -1.8524  0.1778
 9184TIP3   OH248966   2.599   4.443   2.961  0.0263  0.3994  0.5155
 9184TIP3    H148967   2.663   4.382   2.996  2.1021  2.2519  0.0391
 9184TIP3    H248968   2.622   4.452   2.868 -1.8114 -0.0142  0.0058
 9185TIP3   OH248969   0.095   1.615   3.593 -0.0038 -0.1129  0.5467
 9185TIP3    H148970   0.142   1.641   3.514 -0.6472  0.9625  0.5049
 9185TIP3    H248971   0.149   1.547   3.632  2.5283  2.2880  1.4239
 9186TIP3   OH248972   1.752   2.635  17.188  0.1614 -0.2729 -0.1218
 9186TIP3    H148973   1.689   2.630  17.261 -0.2158 -0.8570 -0.4798
 9186TIP3    H248974   1.734   2.719  17.147  0.4898  0.1344  0.5639
 9187TIP3   OH248975   1.043   6.490   3.905  0.5482 -0.3266 -0.0552
 9187TIP3    H148976   1.043   6.559   3.971  0.0863  0.2665 -0.6740
 9187TIP3    H248977   1.126   6.444   3.919  1.3609  1.0233 -0.3441
 9188TIP3   OH248978   6.239   2.388  16.630  0.1740  0.2026  0.7029
 9188TIP3    H148979   6.214   2.402  16.539 -0.2020  0.9223  0.9077
 9188TIP3    H248980   6.169   2.334  16.667  0.5884 -0.5187  0.4338
 9189TIP3   OH248981   1.549   0.352  16.843 -0.3093  0.5759 -0.5179
 9189TIP3    H148982   1.638   0.315  16.838 -0.0683  0.8429  1.2462
 9189TIP3    H248983   1.492   0.278  16.821  0.3335  0.2991 -1.2981
 9190TIP3   OH248984   3.632   6.125  11.047  0.3679 -0.2580 -0.2937
 9190TIP3    H148985   3.542   6.111  11.018  0.1033 -1.3363  0.9777
 9190TIP3    H248986   3.681   6.140  10.967 -0.6188 -1.5308 -1.1509
 9191TIP3   OH248987   4.912   0.128  16.636 -0.1688 -0.1795  0.5776
 9191TIP3    H148988   4.831   0.146  16.686  0.6645 -1.3931  2.4235
 9191TIP3    H248989   4.961   0.210  16.641 -1.6667  0.8850 -1.3717
 9192TIP3   OH248990   3.873   6.131  17.199 -0.5802  0.5372  0.3592
 9192TIP3    H148991   3.907   6.221  17.192  0.7574 -0.0800 -1.4888
 9192TIP3    H248992   3.790   6.141  17.246  0.4040  2.5259  1.7665
 9193TIP3   OH248993   0.199   0.204  13.403  0.3609 -0.3574  0.0183
 9193TIP3    H148994   0.122   0.220  13.348  0.1964 -0.1265  0.3133
 9193TIP3    H248995   0.261   0.159  13.345  0.2831  0.0969 -0.4219
 9194TIP3   OH248996   4.908   1.936   3.452  0.6982  0.5851  0.3548
 9194TIP3    H148997   4.887   2.027   3.473 -0.8174  0.1789  0.6774
 9194TIP3    H248998   4.867   1.920   3.368  0.4669  0.0387  0.5657
 9195TIP3   OH248999   1.719   0.982  15.440 -0.1373 -0.2553  0.3786
 9195TIP3    H149000   1.791   0.919  15.445 -0.6089 -0.7067  1.7726
 9195TIP3    H249001   1.676   0.975  15.525 -0.9062  1.1100  0.1060
 9196TIP3   OH249002   2.389   3.154  15.710 -0.1575  0.1484 -0.1958
 9196TIP3    H149003   2.310   3.137  15.658  0.9189 -1.8719 -1.2554
 9196TIP3    H249004   2.412   3.068  15.745  2.5325  0.3719 -1.3137
 9197TIP3   OH249005   2.500   0.294   2.379  0.0180  0.6023  0.6826
 9197TIP3    H149006   2.540   0.319   2.462  0.7870  1.5234  0.0496
 9197TIP3    H249007   2.524   0.202   2.367 -0.0885  0.4716  1.4727
 9198TIP3   OH249008   1.478   1.018  13.396 -0.1672  0.0240  0.4875
 9198TIP3    H149009   1.572   1.016  13.380 -0.3810 -1.8639 -0.7516
 9198TIP3    H249010   1.447   1.094  13.347  0.4220 -0.5969 -0.8750
 9199TIP3   OH249011   0.601   6.141  17.104  0.4586  0.3052 -0.2309
 9199TIP3    H149012   0.658   6.218  17.099 -2.4271  2.6688  1.3924
 9199TIP3    H249013   0.557   6.138  17.019  1.5442 -0.3346 -0.7663
 9200TIP3   OH249014   6.134   6.387  13.278  1.0102 -0.2804 -0.0222
 9200TIP3    H149015   6.142   6.313  13.338 -2.1140 -0.3421  0.4195
 9200TIP3    H249016   6.153   6.351  13.192  0.7179 -1.3377  0.3448
 9201TIP3   OH249017   1.960   2.537   2.012  0.0580 -0.0848 -0.0087
 9201TIP3    H149018   2.023   2.603   1.982  1.5054 -1.7819 -0.7727
 9201TIP3    H249019   1.997   2.504   2.094  0.0274 -0.8834 -0.3106
 9202TIP3   OH249020   0.723   2.910  15.570  0.2147 -0.8701  0.0454
 9202TIP3    H149021   0.656   2.880  15.508  0.1274  0.3611 -0.4659
 9202TIP3    H249022   0.735   2.836  15.629 -1.7071 -1.0600  0.2260
 9203TIP3   OH249023   5.067   6.001   0.331  0.0234  0.1330  0.3827
 9203TIP3    H149024   5.036   6.086   0.299 -2.2717 -0.3371  1.2154
 9203TIP3    H249025   5.084   5.951   0.252 -0.2154  0.8321 -0.1247
 9204TIP3   OH249026   3.430   1.294   1.737 -0.1647  0.2538 -0.3038
 9204TIP3    H149027   3.450   1.204   1.712 -1.0652  0.1418 -0.6390
 9204TIP3    H249028   3.344   1.288   1.780 -0.6484  1.0863 -1.1521
 9205TIP3   OH249029   2.176   1.507   3.239  0.2026 -0.0369  0.1392
 9205TIP3    H149030   2.265   1.513   3.274  0.4537 -0.4138 -0.4244
 9205TIP3    H249031   2.121   1.541   3.309  0.7962  0.2793  0.4624
 9206TIP3   OH249032   4.120   4.396  12.613  0.3581  0.5812  0.0163
 9206TIP3    H149033   4.097   4.467  12.673 -0.8124 -0.6647  1.0784
 9206TIP3    H249034   4.055   4.402  12.543  0.6603  0.9599 -0.2319
 9207TIP3   OH249035   5.808   2.990  11.586  0.7530 -0.5533 -0.3759
 9207TIP3    H149036   5.897   3.020  11.602  0.7068 -0.4258 -0.3625
 9207TIP3    H249037   5.752   3.060  11.617  0.6878  0.3420 -2.3970
 9208TIP3   OH249038   0.920   6.173   5.036  0.5068  0.2650 -0.7417
 9208TIP3    H149039   0.927   6.267   5.056  0.5377  0.2321 -0.6011
 9208TIP3    H249040   0.827   6.154   5.045  0.6514  0.0421  0.2932
 9209TIP3   OH249041   1.087   5.550  13.577 -0.4414 -0.1883 -0.0268
 9209TIP3    H149042   1.110   5.560  13.669 -1.3819  0.4016  0.1496
 9209TIP3    H249043   1.154   5.492  13.542  0.0753 -0.2053  0.9665
 9210TIP3   OH249044   4.038   0.035   5.080  0.1352  0.4245  0.5179
 9210TIP3    H149045   4.090  -0.044   5.067  2.2074  2.0081 -1.3004
 9210TIP3    H249046   4.007   0.058   4.992 -0.9962  1.2730  1.1212
 9211TIP3   OH249047   1.590   2.124  16.009 -0.1840 -0.1109 -0.1295
 9211TIP3    H149048   1.545   2.199  16.048 -1.0859  0.2129 -1.7427
 9211TIP3    H249049   1.628   2.077  16.083 -0.2802  1.5058  0.9617
 9212TIP3   OH249050   1.117   0.612  13.111  0.1075  0.6672 -0.3876
 9212TIP3    H149051   1.175   0.543  13.143  1.2627  1.2051 -1.2682
 9212TIP3    H249052   1.174   0.688  13.100 -1.2076  1.8567  0.8238
 9213TIP3   OH249053   6.294   6.664  13.929 -0.3218 -0.1575  0.2272
 9213TIP3    H149054   6.276   6.711  14.010  0.3793 -0.6221  0.6615
 9213TIP3    H249055   6.259   6.720  13.860  2.3832  2.0685  0.5528
 9214TIP3   OH249056   3.844   3.844   4.666  0.5851  0.4102  0.0057
 9214TIP3    H149057   3.870   3.885   4.584 -0.7759 -0.5821 -0.9421
 9214TIP3    H249058   3.917   3.787   4.689  0.9958  0.7469 -0.4719
 9215TIP3   OH249059   1.383   4.680  16.355 -0.6266 -0.0882 -0.5463
 9215TIP3    H149060   1.333   4.762  16.353 -0.1524  0.2033 -0.3941
 9215TIP3    H249061   1.471   4.704  16.326 -0.1799 -0.3256  0.5752
 9216TIP3   OH249062   0.269   4.300  15.761  0.9844  0.4450  0.0388
 9216TIP3    H149063   0.190   4.307  15.814  0.9274 -0.9677  0.1631
 9216TIP3    H249064   0.244   4.336  15.676 -0.1403 -1.0647 -0.2775
 9217TIP3   OH249065   3.345   2.284   0.570 -0.9313 -0.3439 -0.1425
 9217TIP3    H149066   3.327   2.305   0.661  1.6739 -0.8057  0.5117
 9217TIP3    H249067   3.327   2.190   0.563 -0.5237 -0.4345  0.0452
 9218TIP3   OH249068   6.047   4.143  17.083  0.4189  0.3267 -0.2257
 9218TIP3    H149069   6.070   4.153  17.175 -0.1880 -1.7425  0.1752
 9218TIP3    H249070   5.988   4.216  17.065 -1.0180 -0.3328  1.5842
 9219TIP3   OH249071   3.691   4.701  16.929 -0.6378  0.2511 -0.0552
 9219TIP3    H149072   3.694   4.634  16.997 -1.8634  0.8149  0.5653
 9219TIP3    H249073   3.692   4.651  16.847  1.6315 -0.3959  0.3433
 9220TIP3   OH249074   2.781   6.594   1.527 -0.0970  0.4954  0.8665
 9220TIP3    H149075   2.785   6.660   1.596  0.6511 -0.6666  1.9676
 9220TIP3    H249076   2.852   6.618   1.467 -0.9085  1.6534  0.3599
 9221TIP3   OH249077   3.140   4.646  11.253  0.1632  0.3716 -0.4449
 9221TIP3    H149078   3.104   4.594  11.181 -2.8664 -0.0601  1.3232
 9221TIP3    H249079   3.218   4.597  11.281 -0.6841 -1.3829 -1.0695
 9222TIP3   OH249080   2.484   0.996  16.633 -0.3766 -0.0593 -0.0965
 9222TIP3    H149081   2.560   1.005  16.691  0.1124  2.7213 -1.0919
 9222TIP3    H249082   2.508   0.926  16.573  0.5304 -0.6095  0.8866
 9223TIP3   OH249083   4.580   3.807  14.021  0.2303 -0.3452 -0.2550
 9223TIP3    H149084   4.522   3.851  14.082  1.5219 -1.0830  1.5448
 9223TIP3    H249085   4.578   3.715  14.047  2.6744 -0.2893  0.2769
 9224TIP3   OH249086   0.868   4.514   0.471  0.2983 -0.3815  0.7586
 9224TIP3    H149087   0.890   4.453   0.400  1.4398  1.5567 -0.6175
 9224TIP3    H249088   0.949   4.522   0.521  0.1363 -0.0267  0.9637
 9225TIP3   OH249089   5.000   3.147  13.663 -0.4446 -0.1156  0.1189
 9225TIP3    H149090   5.053   3.131  13.586 -1.4944 -1.1754 -0.3911
 9225TIP3    H249091   4.985   3.061  13.701  0.5608  0.4445  1.8624
 9226TIP3   OH249092   3.625   0.290  13.108 -0.0387 -0.1765 -0.0778
 9226TIP3    H149093   3.532   0.298  13.129  0.2267  0.5407  0.8827
 9226TIP3    H249094   3.652   0.208  13.149  0.4591  1.1796  2.4427
 9227TIP3   OH249095   5.205   1.882   1.408 -1.2977 -0.0448 -0.0894
 9227TIP3    H149096   5.168   1.817   1.467  0.7209  0.0570  1.3487
 9227TIP3    H249097   5.247   1.831   1.338 -1.3311 -0.2262  0.0242
 9228TIP3   OH249098   4.164   6.224   1.042  0.6522  0.0224 -0.0632
 9228TIP3    H149099   4.071   6.212   1.026  0.7197  0.0580 -0.5012
 9228TIP3    H249100   4.174   6.318   1.054  0.7041  0.0786 -0.5216
 9229TIP3   OH249101   5.615   3.767  12.966  0.2437  0.2317 -0.4163
 9229TIP3    H149102   5.663   3.692  12.932  1.0515 -0.4785  2.1565
 9229TIP3    H249103   5.539   3.775  12.909  1.0352 -1.4639 -1.7651
 9230TIP3   OH249104   4.175   0.012  13.913 -0.4133  0.0459 -0.0821
 9230TIP3    H149105   4.125   0.023  13.994  2.2072  1.1445  1.4442
 9230TIP3    H249106   4.130   0.067  13.849 -1.4017  0.6625  1.1177
 9231TIP3   OH249107   6.379   3.036   4.323  0.3787 -0.7254  0.0579
 9231TIP3    H149108   6.360   3.119   4.366 -0.5438 -1.0714  0.3480
 9231TIP3    H249109   6.310   2.977   4.355  0.4308 -1.3243 -0.9191
 9232TIP3   OH249110   5.559   3.328  15.392  0.0874 -0.3463 -0.1740
 9232TIP3    H149111   5.519   3.407  15.357 -0.9356 -0.3028  1.0613
 9232TIP3    H249112   5.490   3.262  15.388  0.1142 -0.4761  1.2725
 9233TIP3   OH249113   0.565   3.630   0.449 -0.4958 -0.1260  0.1071
 9233TIP3    H149114   0.571   3.557   0.510 -1.5019  0.9662  1.5380
 9233TIP3    H249115   0.642   3.684   0.467 -0.8819  0.2862  0.5489
 9234TIP3   OH249116   1.245   4.986   4.618  0.1262 -0.3696 -0.5901
 9234TIP3    H149117   1.329   5.015   4.654 -0.9541  0.4514  1.3364
 9234TIP3    H249118   1.190   4.969   4.695 -2.3964  1.8968 -1.8000
 9235TIP3   OH249119   2.859   3.911   0.082  0.6318  0.0156  0.1294
 9235TIP3    H149120   2.862   3.820   0.110  0.6596 -0.5067 -1.4964
 9235TIP3    H249121   2.948   3.930   0.052  0.4035  0.2688 -0.4152
 9236TIP3   OH249122   5.530   2.458  13.614 -0.6523 -0.0310 -0.1717
 9236TIP3    H149123   5.612   2.465  13.662 -1.0159  0.9083  0.3239
 9236TIP3    H249124   5.464   2.497  13.672 -0.6948  3.4920 -2.3920
 9237TIP3   OH249125   3.672   5.127   1.248  0.1262  0.2166 -0.5168
 9237TIP3    H149126   3.725   5.048   1.238 -0.4318 -0.3376  0.7933
 9237TIP3    H249127   3.611   5.124   1.175  0.2590 -0.4490 -0.6034
 9238TIP3   OH249128   5.255   1.917  12.085 -0.3298 -0.2451  0.1622
 9238TIP3    H149129   5.332   1.968  12.112 -0.2690 -0.6334  0.7288
 9238TIP3    H249130   5.227   1.872  12.164  0.4572 -2.2023 -0.6297
 9239TIP3   OH249131   2.372   3.502   3.512 -0.3624  0.0787 -0.3320
 9239TIP3    H149132   2.355   3.584   3.466 -0.9581  0.1431  0.0065
 9239TIP3    H249133   2.467   3.499   3.521 -0.2327  0.0533 -1.5975
 9240TIP3   OH249134   5.594   5.697  13.737 -0.3592  0.4457 -0.1656
 9240TIP3    H149135   5.613   5.607  13.711  0.1374  1.0702 -2.0725
 9240TIP3    H249136   5.663   5.720  13.799  0.0157 -0.2054 -0.3405
 9241TIP3   OH249137   4.992   4.734   1.849 -0.5212 -0.1348 -0.0944
 9241TIP3    H149138   4.950   4.819   1.842 -0.8479 -0.3317 -0.5676
 9241TIP3    H249139   4.991   4.714   1.942  0.4840  0.8411  0.1434
 9242TIP3   OH249140   6.582   4.527   1.213 -0.7590 -0.2790  0.1263
 9242TIP3    H149141   6.660   4.497   1.166 -0.5201 -2.4729  1.8065
 9242TIP3    H249142   6.513   4.467   1.185 -1.7478  1.2989 -0.9156
 9243TIP3   OH249143   3.406   6.636   1.477 -0.3318  0.1159  0.2647
 9243TIP3    H149144   3.429   6.563   1.535 -0.9278  0.1436  0.5405
 9243TIP3    H249145   3.319   6.662   1.505 -0.1449  0.8999  0.1195
 9244TIP3   OH249146   1.838   4.170  13.399 -0.1383 -0.3184 -0.2538
 9244TIP3    H149147   1.776   4.229  13.355  0.2294  1.5475  1.6800
 9244TIP3    H249148   1.867   4.111  13.330 -0.1911  2.0315 -2.3522
 9245TIP3   OH249149   5.264   0.750  17.173 -0.3167 -0.2641  0.4276
 9245TIP3    H149150   5.270   0.845  17.165  0.5922 -0.3622 -0.2785
 9245TIP3    H249151   5.208   0.723  17.100 -0.7248 -0.2564  0.7378
 9246TIP3   OH249152   1.583   1.366  15.907 -0.3577 -0.2673  0.5318
 9246TIP3    H149153   1.502   1.328  15.872 -1.2617  1.4475  0.6944
 9246TIP3    H249154   1.599   1.442  15.851  1.1780 -0.6214  0.4840
 9247TIP3   OH249155   0.838   6.511   5.941 -0.3253  0.0742 -0.2526
 9247TIP3    H149156   0.793   6.593   5.920 -1.3685 -0.3890  0.1835
 9247TIP3    H249157   0.792   6.476   6.017  0.2459 -0.8149 -0.3064
 9248TIP3   OH249158   2.201   0.972  10.932 -0.2654  0.1157  0.3788
 9248TIP3    H149159   2.145   0.944  10.859 -0.7220  0.0254  0.7590
 9248TIP3    H249160   2.264   1.031  10.892 -0.7843  0.4089 -0.0229
 9249TIP3   OH249161   3.109   2.713  11.232 -0.1922 -0.3798  0.2151
 9249TIP3    H149162   3.018   2.718  11.200 -0.2800 -1.2455  0.3122
 9249TIP3    H249163   3.161   2.706  11.153 -0.2502 -0.4591  0.1844
 9250TIP3   OH249164   4.168   4.795  10.837  0.2089  0.5771  0.0035
 9250TIP3    H149165   4.199   4.881  10.810  1.1007  0.3203  0.1914
 9250TIP3    H249166   4.073   4.800  10.827  0.3656  1.1149 -1.3205
 9251TIP3   OH249167   0.732   3.651   0.244  0.6728 -0.2334 -0.5339
 9251TIP3    H149168   0.799   3.657   0.311  0.1853 -0.1683 -0.0509
 9251TIP3    H249169   0.651   3.635   0.292  0.1796  0.7180 -1.0363
 9252TIP3   OH249170   3.474   4.089  16.191 -0.1883  0.0660  0.7362
 9252TIP3    H149171   3.394   4.142  16.181 -0.3096  0.2692  2.5935
 9252TIP3    H249172   3.539   4.151  16.223  0.4317 -0.3405  0.2664
 9253TIP3   OH249173   3.265   4.784   1.797 -0.1758  0.4960  0.6999
 9253TIP3    H149174   3.230   4.769   1.885  0.4348  1.3797  1.1036
 9253TIP3    H249175   3.341   4.727   1.791 -1.5153 -1.2428 -0.0875
 9254TIP3   OH249176   1.071   5.927  14.771 -0.0477  0.0321 -0.1473
 9254TIP3    H149177   1.105   5.960  14.688  0.1676 -0.7625 -0.3764
 9254TIP3    H249178   1.101   5.836  14.775 -0.0160  0.0765  0.8203
 9255TIP3   OH249179   1.755   4.981   2.180  0.1245 -0.1256 -0.0959
 9255TIP3    H149180   1.796   4.970   2.265  1.0370  0.8446 -0.3953
 9255TIP3    H249181   1.757   4.894   2.140  1.5914 -0.1599  0.0283
 9256TIP3   OH249182   1.510   5.659   0.298 -0.2871  0.3292  0.6930
 9256TIP3    H149183   1.575   5.729   0.294 -1.0085  0.9421 -1.0733
 9256TIP3    H249184   1.544   5.592   0.239 -0.4165 -0.0927  1.0957
 9257TIP3   OH249185   0.434   3.522   6.425  0.3700 -0.2961  0.3382
 9257TIP3    H149186   0.517   3.569   6.418  0.5038 -0.6772 -0.7716
 9257TIP3    H249187   0.374   3.570   6.367  0.8093 -2.1075 -1.6581
 9258TIP3   OH249188   1.098   5.149   4.451 -0.3011  0.4233 -0.2338
 9258TIP3    H149189   1.167   5.205   4.417  0.1542 -0.0138 -0.0498
 9258TIP3    H249190   1.142   5.095   4.517 -0.6272 -0.4861 -0.7590
 9259TIP3   OH249191   6.586   2.724   0.591 -0.4726  0.2448 -0.1695
 9259TIP3    H149192   6.498   2.687   0.589 -0.9650  1.2697  1.5974
 9259TIP3    H249193   6.622   2.706   0.504 -2.0335 -1.1041 -0.5540
 9260TIP3   OH249194   1.526   0.457   4.514  0.1278 -0.5417 -0.0163
 9260TIP3    H149195   1.580   0.379   4.496  0.5108 -0.4332  0.6380
 9260TIP3    H249196   1.441   0.422   4.538  1.1489 -0.8863  3.2404
 9261TIP3   OH249197   2.025   1.525  12.965  0.0813 -0.1752  0.5591
 9261TIP3    H149198   1.954   1.508  13.027  1.4809 -0.4140  2.1308
 9261TIP3    H249199   2.069   1.602  13.000 -0.0062  0.5657 -0.9554
 9262TIP3   OH249200   2.071   3.980  10.394 -0.0006 -0.2977  0.2041
 9262TIP3    H149201   2.017   3.906  10.366  0.5597 -0.4396 -0.4933
 9262TIP3    H249202   2.043   4.052  10.338  1.4786 -0.7117 -1.0802
 9263TIP3   OH249203   4.965   0.612  12.165 -0.1910  0.2180  0.0509
 9263TIP3    H149204   4.928   0.526  12.149  1.1382 -0.4492  0.4622
 9263TIP3    H249205   4.963   0.655  12.080 -0.7634 -0.2568 -0.1758
 9264TIP3   OH249206   2.575   0.025  12.103  0.1909 -0.3412 -0.2081
 9264TIP3    H149207   2.521  -0.012  12.033  0.3910 -2.1305  0.5522
 9264TIP3    H249208   2.656  -0.027  12.100  0.8452  0.6339  0.3192
 9265TIP3   OH249209   1.665   1.976   4.253 -0.2210 -0.2495  0.1428
 9265TIP3    H149210   1.743   1.967   4.198 -0.4121  0.0177 -0.1802
 9265TIP3    H249211   1.665   1.898   4.308  0.5977  0.0414  0.5603
 9266TIP3   OH249212   1.577   0.058   4.034 -0.1052 -0.1822  0.5271
 9266TIP3    H149213   1.534   0.124   4.089 -0.1025  0.8814 -0.7331
 9266TIP3    H249214   1.560  -0.025   4.079 -2.6218  0.3222  0.6046
 9267TIP3   OH249215   4.897   2.848  16.531 -0.3607 -0.1261 -0.1954
 9267TIP3    H149216   4.915   2.856  16.625  2.5177  0.8988 -0.7938
 9267TIP3    H249217   4.846   2.767  16.523 -0.4693 -0.3307  2.2125
 9268TIP3   OH249218   2.403   0.509  16.359 -0.0552 -0.5444 -0.5219
 9268TIP3    H149219   2.345   0.585  16.369  0.1122 -0.3837 -0.7697
 9268TIP3    H249220   2.367   0.461  16.284 -1.2912 -1.7340  0.7945
 9269TIP3   OH249221   2.698   5.849   6.001  0.2349 -0.7279 -0.4654
 9269TIP3    H149222   2.638   5.825   6.071 -0.7443 -0.6732 -1.2732
 9269TIP3    H249223   2.747   5.924   6.036 -1.8452  0.7637 -0.6747
 9270TIP3   OH249224   0.786   6.109  16.688  0.7004  0.0015 -0.6050
 9270TIP3    H149225   0.794   6.025  16.733  2.2062 -0.5379 -1.8298
 9270TIP3    H249226   0.820   6.173  16.751 -1.9029 -0.0639  0.9335
 9271TIP3   OH249227   1.203   1.847  12.604  0.6240 -0.1929 -0.6808
 9271TIP3    H149228   1.110   1.860  12.625  0.3618  0.2386 -2.0533
 9271TIP3    H249229   1.241   1.812  12.685 -0.2578  1.7490  0.6196
 9272TIP3   OH249230   4.352   1.540  13.339  0.2267 -0.7030  0.0517
 9272TIP3    H149231   4.277   1.555  13.282  2.6455  0.4035 -2.9686
 9272TIP3    H249232   4.326   1.466  13.394 -3.0639 -0.2924 -0.8282
 9273TIP3   OH249233   1.841   0.810  15.185 -0.3029  0.7097  0.4372
 9273TIP3    H149234   1.805   0.764  15.260  0.5334  1.1829  1.1436
 9273TIP3    H249235   1.891   0.882  15.223 -0.0366  1.0741 -0.5817
 9274TIP3   OH249236   3.190   1.401   4.817 -0.9684  0.4851 -0.3633
 9274TIP3    H149237   3.220   1.371   4.903  0.8745  0.6001 -0.9539
 9274TIP3    H249238   3.203   1.495   4.817 -1.5276  0.5668 -0.5568
 9275TIP3   OH249239   3.911   1.006  13.513  0.4158  0.3010  0.7072
 9275TIP3    H149240   3.837   0.961  13.555 -0.9945  3.1666  1.4247
 9275TIP3    H249241   3.964   1.038  13.586  1.7445 -0.7480  0.1998
 9276TIP3   OH249242   4.594   0.400   2.562 -0.3535 -0.0824  0.2155
 9276TIP3    H149243   4.502   0.411   2.539 -0.3570 -0.8313 -0.1323
 9276TIP3    H249244   4.632   0.353   2.488  1.1038  3.3226 -1.2991
 9277TIP3   OH249245   2.216   3.911  11.829 -0.1081  0.7473 -0.6594
 9277TIP3    H149246   2.222   3.833  11.773 -0.6292  1.1702 -1.3002
 9277TIP3    H249247   2.270   3.976  11.785 -0.0263  0.8920 -0.3463
 9278TIP3   OH249248   4.382   6.281  15.142 -0.0238  0.4685  0.3523
 9278TIP3    H149249   4.385   6.226  15.064 -0.7705  2.1554 -0.8896
 9278TIP3    H249250   4.416   6.365  15.113 -1.1144  1.3580  1.6254
 9279TIP3   OH249251   4.481   3.906  15.148  0.3504 -0.0018  0.2343
 9279TIP3    H149252   4.423   3.839  15.184 -0.3664  0.1118 -0.7031
 9279TIP3    H249253   4.442   3.989  15.176  0.0610  0.0749 -0.3996
 9280TIP3   OH249254   3.189   2.601   0.114 -0.3144 -0.8122  0.0124
 9280TIP3    H149255   3.168   2.574   0.203 -0.5354 -0.5168  0.0503
 9280TIP3    H249256   3.258   2.540   0.086  0.2330 -0.4864  0.6257
 9281TIP3   OH249257   0.931   2.864  12.691  0.5079  0.1365  0.0170
 9281TIP3    H149258   0.933   2.854  12.786 -3.4585 -0.1315  0.1397
 9281TIP3    H249259   0.986   2.792  12.659 -1.6770 -2.5109  1.9820
 9282TIP3   OH249260   1.773   6.115   0.330  0.2671 -0.3505  0.3348
 9282TIP3    H149261   1.697   6.171   0.313  0.7709  0.8984  2.0227
 9282TIP3    H249262   1.845   6.160   0.287  0.3703 -0.5878  0.2605
 9283TIP3   OH249263   4.826   5.245  15.486  0.1481 -0.0370  0.4786
 9283TIP3    H149264   4.832   5.157  15.523 -1.6535 -1.0010 -1.4013
 9283TIP3    H249265   4.901   5.252  15.427 -0.4641 -0.8906 -0.4383
 9284TIP3   OH249266   3.820   1.211   4.856 -0.6948  0.2976 -0.7568
 9284TIP3    H149267   3.874   1.291   4.856  0.2720 -0.3372 -0.0439
 9284TIP3    H249268   3.868   1.151   4.798  1.0957 -1.3791  2.3339
 9285TIP3   OH249269   4.883   5.772   5.474 -0.4420  0.0412  0.3759
 9285TIP3    H149270   4.850   5.707   5.413 -0.4017  0.1105  0.2798
 9285TIP3    H249271   4.978   5.773   5.459 -0.7527  2.3149 -1.8093
 9286TIP3   OH249272   2.084   3.147   6.702 -0.0742  0.3401 -0.2015
 9286TIP3    H149273   1.994   3.138   6.734 -0.5821 -0.6201 -1.8413
 9286TIP3    H249274   2.105   3.239   6.714 -1.6573  0.7886 -0.7700
 9287TIP3   OH249275   0.006   2.304   1.186 -0.5310  0.1675 -0.3511
 9287TIP3    H149276  -0.034   2.261   1.110 -1.0414 -2.0106  1.1045
 9287TIP3    H249277  -0.064   2.359   1.222 -0.8791 -0.2801 -0.3419
 9288TIP3   OH249278   5.585   2.387   4.892 -0.4766  0.9323  0.1612
 9288TIP3    H149279   5.596   2.302   4.848 -1.8387  0.0197  1.5410
 9288TIP3    H249280   5.667   2.433   4.875  0.9199 -1.2665  0.6762
 9289TIP3   OH249281   0.149   2.968  15.611  0.5054 -0.1142 -0.3347
 9289TIP3    H149282   0.072   2.983  15.666  1.4733 -1.1106  1.3413
 9289TIP3    H249283   0.156   3.046  15.557 -2.2081 -0.3855 -1.1423
 9290TIP3   OH249284   5.476   0.571  15.718  0.4231 -0.3381 -0.1062
 9290TIP3    H149285   5.472   0.475  15.714  0.1864 -0.2680 -1.8376
 9290TIP3    H249286   5.449   0.592  15.808  1.7063 -1.9508  0.6862
 9291TIP3   OH249287   3.768   4.357  14.458  0.0477  0.4009 -0.1473
 9291TIP3    H149288   3.802   4.350  14.547  0.7242  1.3287 -0.3235
 9291TIP3    H249289   3.749   4.450  14.446  1.7270  0.5995 -1.5793
 9292TIP3   OH249290   4.559   6.223  11.882 -0.2536  0.2549  0.0556
 9292TIP3    H149291   4.548   6.313  11.912 -1.8926  0.2219 -0.3509
 9292TIP3    H249292   4.563   6.171  11.962 -2.4043  0.3980  0.2996
 9293TIP3   OH249293   2.811   4.082   1.941 -0.0283  0.0986  0.4325
 9293TIP3    H149294   2.808   4.093   2.036 -1.2881 -0.6737  0.4830
 9293TIP3    H249295   2.837   3.991   1.928  0.7805  0.3752  0.0205
 9294TIP3   OH249296   1.976   4.843   4.001 -0.3055  0.4704  0.5803
 9294TIP3    H149297   1.982   4.920   4.057  2.3959 -0.1017  1.1015
 9294TIP3    H249298   2.012   4.772   4.053  0.4405 -0.4658 -1.1696
 9295TIP3   OH249299   5.435   5.961  12.139  0.2886  0.0711 -0.7663
 9295TIP3    H149300   5.429   6.038  12.195 -0.4945  0.1029 -0.8858
 9295TIP3    H249301   5.508   5.978  12.081 -0.1997  0.9422 -1.1243
 9296TIP3   OH249302   3.052   2.731  16.585  0.7638 -0.1656  0.4101
 9296TIP3    H149303   3.031   2.653  16.636  0.7212 -1.1492 -1.0917
 9296TIP3    H249304   3.146   2.725  16.568  0.7540  0.0870  0.2497
 9297TIP3   OH249305   4.321   6.626  10.866 -0.7522 -0.9930  0.3048
 9297TIP3    H149306   4.349   6.574  10.941 -2.4040 -1.1655  0.8273
 9297TIP3    H249307   4.234   6.657  10.889 -0.0666  1.4771 -0.2777
 9298TIP3   OH249308   0.413   3.014  16.738 -0.1085  0.1841  0.7117
 9298TIP3    H149309   0.468   2.936  16.725  0.0673  0.4252  0.0148
 9298TIP3    H249310   0.370   3.027  16.653 -0.7235  0.3987  1.0558
 9299TIP3   OH249311   6.424   6.259   3.645  0.3082 -0.1782  0.2919
 9299TIP3    H149312   6.388   6.257   3.556  1.2599 -1.5617 -0.0803
 9299TIP3    H249313   6.487   6.332   3.644 -0.2520  0.3016  0.0575
 9300TIP3   OH249314   1.199   3.633  16.454 -0.3533  0.6153  0.4012
 9300TIP3    H149315   1.252   3.710  16.432 -0.3314  0.8669  1.3088
 9300TIP3    H249316   1.262   3.565  16.475 -0.3792  0.4786  0.0485
 9301TIP3   OH249317   0.063   3.157  13.171  0.4064 -0.1594  0.2750
 9301TIP3    H149318  -0.026   3.187  13.185  0.6771  0.3817  0.8644
 9301TIP3    H249319   0.055   3.064  13.150 -0.2056 -0.3648  1.4208
 9302TIP3   OH249320   1.859   5.763   0.677 -0.3843 -0.5279  0.1766
 9302TIP3    H149321   1.818   5.849   0.674 -0.2652 -0.4866 -0.4074
 9302TIP3    H249322   1.909   5.763   0.759  1.2570  0.7215 -0.8013
 9303TIP3   OH249323   5.865   2.372   1.714 -0.2330  0.0554 -0.0583
 9303TIP3    H149324   5.849   2.298   1.656  1.3639 -0.1644 -0.2346
 9303TIP3    H249325   5.813   2.443   1.676 -2.7971 -1.2819  0.8554
 9304TIP3   OH249326   2.624   4.510   2.687 -0.4662 -0.1205 -0.0200
 9304TIP3    H149327   2.617   4.561   2.606 -0.2396 -2.0453 -1.2836
 9304TIP3    H249328   2.609   4.420   2.660  0.1316 -0.8617  2.0160
 9305TIP3   OH249329   1.806   5.105  15.386 -0.4907  0.6557 -0.4102
 9305TIP3    H149330   1.888   5.145  15.417  0.6774 -0.4921 -1.9373
 9305TIP3    H249331   1.760   5.080  15.466  0.9075  0.8152  0.4700
 9306TIP3   OH249332   0.393   0.081   5.001 -0.8685 -0.3970  0.9797
 9306TIP3    H149333   0.466   0.021   4.991 -0.2550 -0.0725  3.1506
 9306TIP3    H249334   0.358   0.091   4.913  0.5942 -1.9353  0.1846
 9307TIP3   OH249335   3.138   5.676  16.097 -0.2454 -0.0156 -0.4821
 9307TIP3    H149336   3.101   5.661  16.185  1.4324  1.1286  0.4441
 9307TIP3    H249337   3.161   5.588  16.066  0.2178 -0.3294  0.7065
 9308TIP3   OH249338   4.431   3.818   3.644 -0.6764 -0.5737  0.0785
 9308TIP3    H149339   4.398   3.878   3.578 -1.0756 -0.8264  0.0510
 9308TIP3    H249340   4.509   3.862   3.680 -0.8483 -0.1385 -0.0847
 9309TIP3   OH249341   6.442   6.120   0.805 -0.2187  0.6778  0.6327
 9309TIP3    H149342   6.355   6.105   0.843 -0.4838 -0.4274 -0.3706
 9309TIP3    H249343   6.501   6.067   0.859 -0.3250  0.5546  0.6269
 9310TIP3   OH249344   0.404   4.688  12.521  0.0724 -0.5579 -0.3307
 9310TIP3    H149345   0.438   4.644  12.598 -1.9204 -1.7338 -0.0995
 9310TIP3    H249346   0.357   4.620  12.473  0.2622  0.4358 -1.9613
 9311TIP3   OH249347   0.501   1.190  12.671 -0.3305  0.4975 -0.1602
 9311TIP3    H149348   0.577   1.211  12.616 -0.2068  0.0362 -0.1636
 9311TIP3    H249349   0.450   1.128  12.618  1.1847 -2.1229  1.3590
 9312TIP3   OH249350   3.330   2.302  13.271 -0.0657  0.1326 -0.0525
 9312TIP3    H149351   3.295   2.379  13.316 -0.8001  0.3992 -1.0545
 9312TIP3    H249352   3.265   2.233  13.288  0.0850  0.0059  0.0075
 9313TIP3   OH249353   2.123   2.702  15.972  0.5484  0.7320  0.7003
 9313TIP3    H149354   2.182   2.777  15.969  0.2043  1.0525  1.6553
 9313TIP3    H249355   2.161   2.639  15.912  1.4594  1.2281  0.7500
 9314TIP3   OH249356   0.056   0.597   0.669 -0.2095  0.0392  0.1327
 9314TIP3    H149357   0.082   0.622   0.581 -0.4482  1.3434  0.4286
 9314TIP3    H249358   0.110   0.651   0.727 -1.1003  0.2628  0.7730
 9315TIP3   OH249359   4.295   4.925  14.031 -0.4532 -0.3216  0.3111
 9315TIP3    H149360   4.357   4.875  14.084  0.1251  0.4007  0.3287
 9315TIP3    H249361   4.349   4.969  13.966 -0.8617  0.8524  0.7430
 9316TIP3   OH249362   2.466   2.111   4.108 -0.5394 -0.7206  0.2946
 9316TIP3    H149363   2.560   2.112   4.091 -0.7125  0.0363 -0.6347
 9316TIP3    H249364   2.458   2.131   4.201  0.1173  1.7090 -0.1481
 9317TIP3   OH249365   5.363   2.510  15.739 -0.1346 -0.4081  0.3184
 9317TIP3    H149366   5.426   2.578  15.761  0.9064 -1.8558  1.9919
 9317TIP3    H249367   5.403   2.462  15.667 -0.6814  0.4576 -0.5800
 9318TIP3   OH249368   5.232   0.814  16.134 -0.0778 -0.3891 -0.8090
 9318TIP3    H149369   5.142   0.835  16.157 -0.0713 -1.0291 -0.1602
 9318TIP3    H249370   5.284   0.883  16.175 -0.3654  0.7166 -2.2906
 9319TIP3   OH249371   5.148   1.948  15.307 -0.3222  0.0933 -0.0105
 9319TIP3    H149372   5.227   1.983  15.265 -0.4103  1.1503  0.6755
 9319TIP3    H249373   5.169   1.945  15.400 -1.2103  0.7351  0.2201
 9320TIP3   OH249374   0.929   0.567   5.373  0.3775  0.1198 -0.2470
 9320TIP3    H149375   1.017   0.529   5.367  0.8841  1.2926 -0.3174
 9320TIP3    H249376   0.870   0.493   5.357  1.3748 -0.2464 -2.3892
 9321TIP3   OH249377   2.909   6.267   0.838 -0.5020  0.6725 -0.1466
 9321TIP3    H149378   2.843   6.283   0.770  0.0488 -0.4265 -0.9510
 9321TIP3    H249379   2.984   6.232   0.790 -0.4475 -0.9951  1.1504
 9322TIP3   OH249380   3.138   5.279  11.989 -0.4907  0.3171 -0.2532
 9322TIP3    H149381   3.110   5.210  12.050  1.4938  1.0823  1.5595
 9322TIP3    H249382   3.174   5.230  11.915 -0.3664 -0.6066  0.3978
 9323TIP3   OH249383   5.099   2.923  11.522 -0.2434 -0.0394 -0.9530
 9323TIP3    H149384   5.162   2.892  11.457 -1.6388 -0.3016 -2.1994
 9323TIP3    H249385   5.057   2.998  11.480  0.7829  1.5350  0.7458
 9324TIP3   OH249386   1.038   0.750   4.791  0.0768  0.1307  0.7691
 9324TIP3    H149387   1.034   0.838   4.828  0.3635  0.0169  1.0669
 9324TIP3    H249388   1.122   0.746   4.745 -0.7748  0.6605 -0.8754
 9325TIP3   OH249389   0.585   4.983  14.386 -0.1965 -0.6180  0.6148
 9325TIP3    H149390   0.527   5.041  14.336 -0.3424 -1.6579 -0.4246
 9325TIP3    H249391   0.650   5.042  14.424  1.1320 -0.0125 -2.4671
 9326TIP3   OH249392   0.159   0.373  13.869 -0.3700  0.3121  0.0118
 9326TIP3    H149393   0.136   0.327  13.950  1.0520 -1.1159 -0.3690
 9326TIP3    H249394   0.093   0.343  13.806 -0.6941  0.4218  0.2947
 9327TIP3   OH249395   4.537   2.841   3.267 -0.5798  0.1006  0.1274
 9327TIP3    H149396   4.628   2.861   3.248 -0.3550  0.6650  1.7028
 9327TIP3    H249397   4.488   2.915   3.230 -0.2127  0.8522  1.1227
 9328TIP3   OH249398   0.116   2.913  11.917  0.3098  0.1861  0.3794
 9328TIP3    H149399   0.061   2.950  11.986  2.3413 -0.8694  2.6251
 9328TIP3    H249400   0.117   2.819  11.935 -0.1370 -0.2851 -1.8655
 9329TIP3   OH249401   1.002   2.103   4.591  0.5764 -0.1929  0.0370
 9329TIP3    H149402   0.909   2.106   4.570  0.5534 -1.2545 -0.0404
 9329TIP3    H249403   1.046   2.132   4.511  0.3012  0.6318  0.1864
 9330TIP3   OH249404   1.844   4.897   0.612 -0.0360  0.5106  0.3410
 9330TIP3    H149405   1.893   4.944   0.545  0.0583  1.8735  1.3299
 9330TIP3    H249406   1.790   4.964   0.654 -1.2554 -0.6013  0.6004
 9331TIP3   OH249407   2.674   4.716  11.093 -0.0694  0.1339  0.3686
 9331TIP3    H149408   2.611   4.788  11.090  1.6262  1.6943  0.6370
 9331TIP3    H249409   2.649   4.665  11.169 -1.8056 -0.0349 -0.3048
 9332TIP3   OH249410   5.899   5.296  14.371 -0.0928  0.8103  0.0951
 9332TIP3    H149411   5.878   5.214  14.415 -0.9433  1.2192  0.4614
 9332TIP3    H249412   5.983   5.323  14.409  1.1341 -0.8290 -1.3680
 9333TIP3   OH249413   5.496   4.826  14.005 -0.4273  0.0658  0.6225
 9333TIP3    H149414   5.460   4.877  13.933 -0.7044 -0.6075  0.2733
 9333TIP3    H249415   5.587   4.855  14.012 -0.5196  0.4422  0.2834
 9334TIP3   OH249416   2.262   0.884  17.077  0.3687  0.0875  0.0168
 9334TIP3    H149417   2.321   0.885  17.002  1.0270 -0.3337  0.5275
 9334TIP3    H249418   2.262   0.793  17.107  0.2497  0.2882  0.6381
 9335TIP3   OH249419   2.872   0.362   3.843 -0.3682 -0.0108 -0.0064
 9335TIP3    H149420   2.811   0.436   3.835  0.5746  0.7907  0.0691
 9335TIP3    H249421   2.877   0.345   3.936  0.0696  0.3934  0.0458
 9336TIP3   OH249422   0.258   6.735  10.837 -0.1519 -0.2054  0.2225
 9336TIP3    H149423   0.339   6.754  10.791 -0.2754  0.5917  0.3296
 9336TIP3    H249424   0.189   6.772  10.781 -0.4242 -0.6639  0.2496
 9337TIP3   OH249425   2.145   6.606   4.917  0.0728  0.2302 -0.6911
 9337TIP3    H149426   2.181   6.519   4.901  0.9212  0.3695  0.4273
 9337TIP3    H249427   2.215   6.654   4.961 -0.0073  1.8199 -2.2420
 9338TIP3   OH249428   6.456   4.710  15.860  0.3894  0.0826  0.0990
 9338TIP3    H149429   6.380   4.768  15.867  0.2537 -0.2736  1.7431
 9338TIP3    H249430   6.516   4.741  15.929  0.7103 -1.1435  0.3750
 9339TIP3   OH249431   0.386   6.262   0.321 -0.1153 -0.5543  0.0049
 9339TIP3    H149432   0.338   6.343   0.304  2.7328  1.5787  1.5502
 9339TIP3    H249433   0.388   6.216   0.237 -0.7006  1.6033 -1.2135
 9340TIP3   OH249434   5.457   5.521   4.713 -0.1908 -0.4118  0.8315
 9340TIP3    H149435   5.511   5.591   4.752 -0.7683 -0.0465  0.9774
 9340TIP3    H249436   5.513   5.444   4.715  0.1398 -0.1595  1.4811
 9341TIP3   OH249437   0.889   0.222   0.704 -0.2585 -0.3758  0.2028
 9341TIP3    H149438   0.944   0.284   0.753  1.2937 -0.9033 -0.8038
 9341TIP3    H249439   0.857   0.273   0.629 -0.1395 -0.3827  0.1452
 9342TIP3   OH249440   1.138   5.045   1.124 -0.5452  0.5401  0.1259
 9342TIP3    H149441   1.086   5.118   1.157  1.2498  1.6586  0.5365
 9342TIP3    H249442   1.215   5.086   1.085 -0.0925 -1.0688 -0.7033
 9343TIP3   OH249443   6.591   0.835  16.053 -0.5047  0.3657 -0.5689
 9343TIP3    H149444   6.528   0.767  16.032 -1.4811  1.0084  0.2366
 9343TIP3    H249445   6.609   0.878  15.969 -0.4029 -0.4483 -0.9610
 9344TIP3   OH249446   6.243   3.491   3.789  0.3494  0.2690 -0.5967
 9344TIP3    H149447   6.221   3.573   3.745 -1.9642 -0.2156 -0.4335
 9344TIP3    H249448   6.166   3.471   3.843  2.1577 -0.4034  1.7990
 9345TIP3   OH249449   4.614   3.409   0.648 -0.0028  0.3135  0.2517
 9345TIP3    H149450   4.541   3.364   0.689  0.0115 -0.5021 -0.5901
 9345TIP3    H249451   4.668   3.339   0.610  0.2033  1.0103 -0.7698
 9346TIP3   OH249452   3.867   4.078  15.660  0.1122 -0.0900  0.5278
 9346TIP3    H149453   3.844   4.065  15.569  0.8779  0.4352  0.2529
 9346TIP3    H249454   3.956   4.114  15.658  0.1428 -0.0818  1.4733
 9347TIP3   OH249455   4.604   2.442   1.370 -0.6165  0.1318 -0.0728
 9347TIP3    H149456   4.590   2.534   1.350 -0.2220  0.7623  2.4196
 9347TIP3    H249457   4.686   2.420   1.324  0.5011  1.6370  1.1631
 9348TIP3   OH249458   1.226   4.452  11.548 -0.3298  0.2782  0.2998
 9348TIP3    H149459   1.160   4.518  11.570  0.4262  1.5400 -1.2010
 9348TIP3    H249460   1.189   4.406  11.473 -0.1948 -0.0700  0.4451
 9349TIP3   OH249461   3.071   5.420   3.361  0.2896  0.4365 -0.3956
 9349TIP3    H149462   3.093   5.413   3.453  0.6698  0.3176 -0.4953
 9349TIP3    H249463   3.032   5.507   3.352 -0.7858  0.0105  0.0881
 9350TIP3   OH249464   3.739   6.163   3.471 -0.6400  0.2024 -0.5317
 9350TIP3    H149465   3.680   6.213   3.414 -1.1151  0.9960  0.6277
 9350TIP3    H249466   3.789   6.229   3.518 -1.1001 -0.3953  0.8474
 9351TIP3   OH249467   6.528   4.683  13.013  0.6192  0.2442 -0.4968
 9351TIP3    H149468   6.477   4.656  13.089  1.6918  1.2543  0.6048
 9351TIP3    H249469   6.608   4.630  13.017  1.2151  1.1458 -0.2286
 9352TIP3   OH249470   5.401   0.038   4.911 -0.5799  0.0773  0.2414
 9352TIP3    H149471   5.344  -0.035   4.889  1.0065 -0.6277 -1.6959
 9352TIP3    H249472   5.453   0.007   4.986 -0.7723 -0.3147  0.2136
 9353TIP3   OH249473   1.148   3.953   4.584 -0.5739  0.8026 -0.1085
 9353TIP3    H149474   1.103   3.910   4.657  0.6599 -1.3677 -0.5781
 9353TIP3    H249475   1.128   3.899   4.508  0.7735  1.2229 -0.7840
 9354TIP3   OH249476   3.518   1.964   2.417 -1.1186  0.6792 -0.0941
 9354TIP3    H149477   3.556   1.991   2.501 -1.0548  0.6474 -0.1134
 9354TIP3    H249478   3.424   1.980   2.428 -1.2192 -0.1398  0.2937
 9355TIP3   OH249479   5.581   6.050   0.047 -0.1043 -0.0914  0.2633
 9355TIP3    H149480   5.490   6.066   0.021 -0.1930 -1.5401 -0.3680
 9355TIP3    H249481   5.606   6.130   0.094 -1.3106  0.8280 -0.5885
 9356TIP3   OH249482   2.405   0.835  14.589  0.0616  0.2257  0.4683
 9356TIP3    H149483   2.462   0.908  14.615 -1.1712  1.7576 -1.0394
 9356TIP3    H249484   2.350   0.871  14.520 -0.8192 -2.0591 -0.0576
 9357TIP3   OH249485   1.144   2.330  11.839 -0.5616 -0.0115 -0.9240
 9357TIP3    H149486   1.087   2.259  11.869  0.5274 -0.1439  0.9237
 9357TIP3    H249487   1.219   2.286  11.799  0.6463  0.0340  1.2158
 9358TIP3   OH249488   2.940   2.929   4.859 -0.1776 -0.3104 -0.1507
 9358TIP3    H149489   2.997   3.005   4.870  0.9466 -1.1060 -0.3596
 9358TIP3    H249490   2.996   2.863   4.817 -1.8674 -0.3495 -2.4655
 9359TIP3   OH249491   0.059   6.504  16.910  0.3741  0.2920 -0.1911
 9359TIP3    H149492   0.072   6.418  16.949 -0.3305  0.6670  0.9014
 9359TIP3    H249493   0.092   6.565  16.976  0.8165  0.8652 -0.9387
 9360TIP3   OH249494   0.682   0.486  11.120  0.0762  0.6809 -0.9302
 9360TIP3    H149495   0.742   0.560  11.132  2.0804 -0.7518 -1.8067
 9360TIP3    H249496   0.618   0.518  11.056  1.2099  1.4996 -1.6798
 9361TIP3   OH249497   1.356   4.439   0.311  0.2119  0.1559 -0.3345
 9361TIP3    H149498   1.393   4.482   0.235 -1.9218 -0.6571 -1.9031
 9361TIP3    H249499   1.353   4.346   0.287  1.4592 -0.4032  1.5781
 9362TIP3   OH249500   3.291   3.791   0.330 -0.2995 -0.0902 -0.0123
 9362TIP3    H149501   3.279   3.769   0.238 -1.2479 -0.9583  0.3170
 9362TIP3    H249502   3.384   3.812   0.337 -0.4213  0.9700 -1.3700
 9363TIP3   OH249503   5.349   6.446  11.622 -0.2693 -0.3252  0.0038
 9363TIP3    H149504   5.340   6.357  11.589 -2.1565  0.3723 -1.4567
 9363TIP3    H249505   5.404   6.437  11.700 -1.3113 -2.9010  0.5086
 9364TIP3   OH249506   6.211   1.201  12.714  0.3030  0.1445 -0.2850
 9364TIP3    H149507   6.289   1.225  12.664  0.1649  0.0895 -0.5263
 9364TIP3    H249508   6.164   1.284  12.727  0.8653  0.3305  0.6635
 9365TIP3   OH249509   0.878   4.200  15.719  0.3331  0.4015 -0.2576
 9365TIP3    H149510   0.801   4.173  15.770 -0.2172 -1.4800 -2.0227
 9365TIP3    H249511   0.916   4.271  15.770 -0.7706 -0.7567  2.2876
 9366TIP3   OH249512   2.366   5.635  14.192 -0.2373 -0.6282  0.1575
 9366TIP3    H149513   2.279   5.660  14.225  0.6585  1.1212  1.2845
 9366TIP3    H249514   2.352   5.616  14.099 -2.1353 -2.0016  0.7103
 9367TIP3   OH249515   6.776   1.614   5.770 -0.5130 -0.0502 -0.1602
 9367TIP3    H149516   6.871   1.611   5.767 -0.4262  2.5758 -1.3062
 9367TIP3    H249517   6.748   1.523   5.754  1.7912 -1.4610  3.2332
 9368TIP3   OH249518   4.363   4.346  14.116  0.0163 -0.1985 -0.0433
 9368TIP3    H149519   4.444   4.296  14.124  0.8626  1.0546 -0.6343
 9368TIP3    H249520   4.294   4.284  14.137  1.2161 -0.9002  1.8995
 9369TIP3   OH249521   2.429   2.613   1.576  0.1080 -0.2436 -0.1485
 9369TIP3    H149522   2.359   2.597   1.639 -0.9530 -0.1141 -1.2772
 9369TIP3    H249523   2.476   2.689   1.611 -1.2608  0.6299 -0.1867
 9370TIP3   OH249524   5.853   0.907  13.723  1.0835  0.6071 -0.1600
 9370TIP3    H149525   5.938   0.949  13.709  0.8551  0.8628 -0.8260
 9370TIP3    H249526   5.805   0.923  13.641  0.5316  0.1482  0.0709
 9371TIP3   OH249527   2.754   1.321  16.028 -0.1962  0.3794 -0.3704
 9371TIP3    H149528   2.793   1.343  16.113 -2.0322 -0.6844  0.7773
 9371TIP3    H249529   2.827   1.328  15.966  1.5769 -0.5713  1.5422
 9372TIP3   OH249530   3.150   6.323   6.166  0.0424  0.0300  0.2373
 9372TIP3    H149531   3.172   6.283   6.082 -2.9614 -2.3626  0.5131
 9372TIP3    H249532   3.124   6.412   6.144  1.8934  0.2894 -1.0187
 9373TIP3   OH249533   0.631   6.743   5.083 -0.6307 -0.0342 -0.0007
 9373TIP3    H149534   0.724   6.769   5.080 -0.9079  0.9373 -0.4537
 9373TIP3    H249535   0.618   6.710   5.172  0.3969 -1.1140 -0.2343
 9374TIP3   OH249536   6.205   1.203  11.744 -0.3189 -0.5553 -0.3343
 9374TIP3    H149537   6.241   1.279  11.699  1.7513 -0.6055  1.1569
 9374TIP3    H249538   6.167   1.238  11.824  2.3791 -1.2527  1.3244
 9375TIP3   OH249539   6.325   5.301  16.823 -0.0583  0.2121  0.5834
 9375TIP3    H149540   6.294   5.303  16.913 -0.0583  2.0989  0.5629
 9375TIP3    H249541   6.295   5.383  16.785  0.5872 -0.2208 -0.9237
 9376TIP3   OH249542   2.710   5.493  14.580  0.1214  0.7398 -0.1542
 9376TIP3    H149543   2.633   5.543  14.604  0.4536  1.0241  0.3109
 9376TIP3    H249544   2.783   5.539  14.620  0.6136  0.8719 -1.1750
 9377TIP3   OH249545   0.978   0.216   2.707 -0.4943 -0.0352  0.1412
 9377TIP3    H149546   0.957   0.237   2.615 -2.1847  0.9223  0.7241
 9377TIP3    H249547   0.933   0.133   2.723 -2.5695  1.2127  0.9180
 9378TIP3   OH249548   5.326   1.632   5.654 -0.3698  0.3612 -0.0184
 9378TIP3    H149549   5.386   1.690   5.607 -0.3275  0.6718  0.4201
 9378TIP3    H249550   5.267   1.691   5.701 -0.4276  0.0467  0.3029
 9379TIP3   OH249551   4.579   0.281   3.804 -0.2133 -0.0896 -0.2438
 9379TIP3    H149552   4.662   0.240   3.779  0.2186  0.7688 -0.2335
 9379TIP3    H249553   4.587   0.372   3.775 -0.9340  0.1329  0.2377
 9380TIP3   OH249554   6.654   2.625   3.797  0.2726 -0.5886  0.0759
 9380TIP3    H149555   6.625   2.535   3.785  1.3102 -1.0094  0.6198
 9380TIP3    H249556   6.748   2.617   3.815  0.8222  0.7459 -2.0924
 9381TIP3   OH249557   2.845   4.496   5.993  0.5670 -0.0251  0.3556
 9381TIP3    H149558   2.815   4.439   6.064 -0.4051  0.5670  0.4257
 9381TIP3    H249559   2.928   4.532   6.024  0.2567  0.0544  1.0991
 9382TIP3   OH249560   1.874   0.791  11.542 -0.1207 -0.2773  0.0610
 9382TIP3    H149561   1.865   0.760  11.632  1.7405  1.0174  0.7284
 9382TIP3    H249562   1.895   0.884  11.552  1.6129 -0.4742 -1.6633
 9383TIP3   OH249563   2.780   6.615   0.195  0.0486  0.1251 -0.0526
 9383TIP3    H149564   2.712   6.644   0.135  1.3529  0.4825 -1.3852
 9383TIP3    H249565   2.761   6.660   0.277 -0.1897  1.7484 -0.9902
 9384TIP3   OH249566   5.041   4.347   5.579 -0.2881 -0.1266  0.8992
 9384TIP3    H149567   5.038   4.442   5.567 -1.7317 -0.2513  0.1899
 9384TIP3    H249568   5.134   4.326   5.574  0.0484  1.2565  1.0814
 9385TIP3   OH249569   0.426   2.711   2.238 -0.4519  0.1179 -0.2204
 9385TIP3    H149570   0.354   2.738   2.295  0.5515 -2.3077  2.3339
 9385TIP3    H249571   0.505   2.739   2.285  0.3715 -1.4301 -0.6497
 9386TIP3   OH249572   5.754   5.677   5.559 -0.0443  0.0709 -0.0010
 9386TIP3    H149573   5.751   5.704   5.467 -1.3449 -0.6143 -0.1702
 9386TIP3    H249574   5.796   5.751   5.603  0.6530  0.3833 -1.1479
 9387TIP3   OH249575   1.272   1.419   1.976 -0.4891  0.0469  0.1455
 9387TIP3    H149576   1.327   1.348   1.944 -0.4535  0.9734 -1.9419
 9387TIP3    H249577   1.320   1.454   2.051  0.6273 -0.6345 -0.2277
 9388TIP3   OH249578   5.330   2.240  12.079 -0.4876  0.5297 -0.4445
 9388TIP3    H149579   5.283   2.218  12.159 -1.7737 -0.0144 -1.3251
 9388TIP3    H249580   5.272   2.210  12.009  0.6605  0.9130 -1.5715
 9389TIP3   OH249581   2.967   0.072  11.625  0.3725 -0.5543 -0.4576
 9389TIP3    H149582   2.987   0.127  11.549  1.2513 -1.3593 -0.8123
 9389TIP3    H249583   3.047   0.072  11.677 -0.1609 -0.1743  0.3762
 9390TIP3   OH249584   5.556   5.105  10.609 -0.0012  0.3475  0.0845
 9390TIP3    H149585   5.561   5.074  10.699 -1.0825 -0.0091  0.0187
 9390TIP3    H249586   5.492   5.176  10.611  1.9104  2.1489  0.0932
 9391TIP3   OH249587   2.023   1.638  16.743  0.2442  0.0832  0.9467
 9391TIP3    H149588   1.984   1.565  16.793 -1.0896  0.0113 -0.1689
 9391TIP3    H249589   2.059   1.596  16.665  1.8067  0.2810  1.5494
 9392TIP3   OH249590   0.762   4.620   1.642 -0.1442  0.4736  0.0272
 9392TIP3    H149591   0.744   4.699   1.692 -1.2507 -0.4922  1.1841
 9392TIP3    H249592   0.841   4.583   1.682 -1.4953 -0.7327  1.6105
 9393TIP3   OH249593   2.343   0.012  16.363 -0.0391  0.5869 -0.0396
 9393TIP3    H149594   2.329   0.105  16.347 -1.3851  0.5600  0.8990
 9393TIP3    H249595   2.434   0.006  16.392 -0.3370  1.7924  1.2156
 9394TIP3   OH249596   0.669   3.821   2.694  0.1334 -0.3589  0.0020
 9394TIP3    H149597   0.612   3.861   2.629  0.3426 -3.1942 -2.0265
 9394TIP3    H249598   0.751   3.805   2.648  1.3478  0.3030  1.8457
 9395TIP3   OH249599   5.372   1.750  12.797 -0.2090  0.1000 -0.4655
 9395TIP3    H149600   5.452   1.721  12.841 -0.6402  1.1586  1.0443
 9395TIP3    H249601   5.334   1.670  12.760  0.1986 -0.8074  1.0412
 9396TIP3   OH249602   6.333   1.398  17.126 -0.4611 -0.2101 -0.1637
 9396TIP3    H149603   6.425   1.378  17.140 -0.6289 -0.0902  1.2631
 9396TIP3    H249604   6.318   1.476  17.180 -1.4956 -0.4769 -0.0623
 9397TIP3   OH249605   3.134   2.816   1.536  0.3209 -0.3377  0.8246
 9397TIP3    H149606   3.181   2.899   1.546 -0.9771  0.2866  1.8628
 9397TIP3    H249607   3.045   2.841   1.512 -0.3804 -1.3766  2.2953
 9398TIP3   OH249608   6.489   2.695   2.869  0.5306 -0.4035 -0.7415
 9398TIP3    H149609   6.538   2.777   2.875 -1.9624  1.0979 -0.0269
 9398TIP3    H249610   6.507   2.650   2.952  0.2054  0.4241 -0.2234
 9399TIP3   OH249611   4.617   0.375  14.829  0.0555  0.1671 -0.2135
 9399TIP3    H149612   4.560   0.300  14.846  0.6777  0.0626  1.4931
 9399TIP3    H249613   4.616   0.425  14.910  0.4074  1.5133 -1.0245
 9400TIP3   OH249614   6.201   1.573  11.919  0.0279 -0.5144 -0.4568
 9400TIP3    H149615   6.192   1.565  12.014  0.2040  0.4942 -0.3507
 9400TIP3    H249616   6.125   1.528  11.883 -0.9253  0.5513  0.2019
 9401TIP3   OH249617   0.046   0.685  11.763 -0.3218 -0.0811 -0.0149
 9401TIP3    H149618   0.033   0.658  11.854 -0.2049  1.0564  0.3413
 9401TIP3    H249619   0.005   0.771  11.757  0.8866  0.4562 -0.6899
 9402TIP3   OH249620   5.212   6.584  15.054 -0.4249  0.0073  0.1254
 9402TIP3    H149621   5.293   6.583  15.004 -0.2118  0.6899  0.4380
 9402TIP3    H249622   5.217   6.507  15.110 -0.4228 -0.4631 -0.5182
 9403TIP3   OH249623   1.646   5.804   0.974  0.1559  0.0795  0.5283
 9403TIP3    H149624   1.639   5.721   0.927 -1.7982  1.0700 -0.9711
 9403TIP3    H249625   1.710   5.855   0.923  0.9899 -0.3284  1.1713
 9404TIP3   OH249626   2.222   0.976  16.557 -0.2293 -0.2783 -0.3151
 9404TIP3    H149627   2.168   0.901  16.581 -1.1934  0.9315  1.3368
 9404TIP3    H249628   2.301   0.966  16.611 -1.8143  1.7019  2.4702
 9405TIP3   OH249629   5.165   0.243   3.053 -0.3574  0.2283  0.4969
 9405TIP3    H149630   5.197   0.167   3.004 -0.5736 -0.4884  1.4540
 9405TIP3    H249631   5.131   0.206   3.134  0.6650  1.4888  1.5142
 9406TIP3   OH249632   1.532   5.555   1.138 -0.3809 -0.0410 -0.1516
 9406TIP3    H149633   1.573   5.620   1.196 -0.7239 -0.8978  1.0546
 9406TIP3    H249634   1.595   5.545   1.066  0.3925  0.4656  0.4443
 9407TIP3   OH249635   0.465   6.737  17.203 -0.1871  0.3050 -0.0936
 9407TIP3    H149636   0.442   6.645  17.213  0.2705  0.1185 -0.7117
 9407TIP3    H249637   0.544   6.749  17.256 -1.2135  0.7473  1.3573
 9408TIP3   OH249638   4.163   4.119  14.157 -0.0363 -0.3448  0.0887
 9408TIP3    H149639   4.088   4.118  14.217 -0.9884  1.5871 -1.0038
 9408TIP3    H249640   4.140   4.055  14.089 -1.3650  1.2273 -0.9803
 9409TIP3   OH249641   1.449   5.233  13.495  0.5490 -0.2923 -0.0401
 9409TIP3    H149642   1.402   5.151  13.479  0.3446 -0.2953  0.5487
 9409TIP3    H249643   1.513   5.239  13.424  0.6254 -1.0076 -0.0326
 9410TIP3   OH249644   4.730   6.026   2.729 -0.0156  0.2801 -0.3275
 9410TIP3    H149645   4.783   5.947   2.724 -1.2227 -0.6769  1.6468
 9410TIP3    H249646   4.782   6.092   2.682  3.5915 -0.2751  2.6516
 9411TIP3   OH249647   4.576   1.375   0.427  0.3906  0.1007  0.5173
 9411TIP3    H149648   4.640   1.304   0.419  0.9297  0.5888  0.4796
 9411TIP3    H249649   4.624   1.445   0.470 -1.0246 -0.6703  3.4478
 9412TIP3   OH249650   2.207   2.735  12.830 -0.1063  0.5812  0.0362
 9412TIP3    H149651   2.229   2.674  12.760  0.4077  1.0319 -0.1959
 9412TIP3    H249652   2.181   2.679  12.904  1.2384  0.0639  0.1242
 9413TIP3   OH249653   6.717   0.319  13.185 -0.0451  0.1109 -0.6551
 9413TIP3    H149654   6.732   0.356  13.098 -1.0608  1.2685 -0.3420
 9413TIP3    H249655   6.720   0.394  13.244 -1.9108 -0.3225  0.0165
 9414TIP3   OH249656   5.720   3.593  14.139 -0.1702 -0.1042 -0.5701
 9414TIP3    H149657   5.783   3.575  14.069 -0.5184  0.2210 -0.9699
 9414TIP3    H249658   5.723   3.515  14.195  4.0400  1.7734  2.0713
 9415TIP3   OH249659   3.442   3.930  13.804 -0.1616 -0.3662 -0.3609
 9415TIP3    H149660   3.439   3.979  13.722 -1.6374 -1.1986 -0.8250
 9415TIP3    H249661   3.381   3.977  13.862  0.7727  0.1411  0.2290
 9416TIP3   OH249662   0.066   5.618   1.812 -0.4521  0.1901  0.2304
 9416TIP3    H149663   0.113   5.641   1.732 -0.2470  1.1624  0.6245
 9416TIP3    H249664   0.016   5.540   1.789  0.1385  0.0638 -0.6440
 9417TIP3   OH249665   1.721   0.993   3.570  0.1152  0.2896  0.2434
 9417TIP3    H149666   1.701   0.912   3.522  1.0777  1.0524 -1.4989
 9417TIP3    H249667   1.699   0.973   3.661 -0.2712 -1.7200 -0.2633
 9418TIP3   OH249668   0.001   2.639   5.533 -0.6602  0.1954 -0.3065
 9418TIP3    H149669  -0.029   2.555   5.499 -0.9749 -0.5255  1.6635
 9418TIP3    H249670   0.092   2.623   5.559 -0.4226  0.7336 -0.8048
 9419TIP3   OH249671   5.903   2.695  14.728 -0.2652  0.8414  0.6475
 9419TIP3    H149672   5.963   2.769  14.713 -1.9479  1.8819 -1.2206
 9419TIP3    H249673   5.954   2.618  14.703  1.1827  1.4306  1.6773
 9420TIP3   OH249674   1.209   6.040   3.516 -0.0260  0.0286 -0.0317
 9420TIP3    H149675   1.228   6.040   3.610 -1.4526  1.4797  0.2810
 9420TIP3    H249676   1.143   5.972   3.505 -1.2241  1.1117  0.3328
 9421TIP3   OH249677   5.108   5.658  16.082  0.1205  0.0560 -0.3225
 9421TIP3    H149678   5.134   5.641  15.992  0.6047  0.4615 -0.2578
 9421TIP3    H249679   5.188   5.648  16.133 -0.5429 -2.2067  0.3445
 9422TIP3   OH249680   2.207   4.135   0.151 -0.3514  0.3280 -0.5066
 9422TIP3    H149681   2.261   4.059   0.172  0.6899  0.7292 -1.6870
 9422TIP3    H249682   2.148   4.144   0.226 -0.2017 -1.3803 -0.1646
 9423TIP3   OH249683   3.736   0.867   0.899 -0.1393  0.3396 -0.1720
 9423TIP3    H149684   3.698   0.955   0.902  0.3820  0.6509 -2.0852
 9423TIP3    H249685   3.794   0.868   0.823  0.3762 -1.4644  0.1669
 9424TIP3   OH249686   2.457   2.082  12.823 -0.1835  0.3171 -0.1458
 9424TIP3    H149687   2.492   2.026  12.892 -0.8143  0.2606  0.1292
 9424TIP3    H249688   2.363   2.089  12.842  0.3853  4.2006  1.8429
 9425TIP3   OH249689   3.818   0.939  12.927 -0.4897  0.0173  0.2016
 9425TIP3    H149690   3.821   1.033  12.910 -2.0137 -0.1430 -1.0964
 9425TIP3    H249691   3.885   0.902  12.870 -1.4667  0.0932 -1.0050
 9426TIP3   OH249692   6.534   5.653   0.884 -0.4051  0.1660  0.2101
 9426TIP3    H149693   6.458   5.633   0.938 -0.1388 -0.9694  0.1768
 9426TIP3    H249694   6.600   5.588   0.910  0.5035  1.0492  0.1435
 9427TIP3   OH249695   6.725   5.286  14.311 -0.3628  0.4027 -0.1558
 9427TIP3    H149696   6.639   5.253  14.286  0.5723 -0.5033 -2.3092
 9427TIP3    H249697   6.750   5.346  14.240  0.6854  0.7996  0.5284
 9428TIP3   OH249698   4.527   2.888   5.959  0.0628 -0.0126  0.9928
 9428TIP3    H149699   4.450   2.881   6.015 -0.5949  0.7092  0.2008
 9428TIP3    H249700   4.601   2.888   6.020 -0.6404  0.8441  1.8758
 9429TIP3   OH249701   0.283   4.312  16.142 -0.0934  0.6400  0.0871
 9429TIP3    H149702   0.212   4.368  16.111  0.5961  1.4947  0.0163
 9429TIP3    H249703   0.360   4.341  16.092  0.5438  0.5104  0.9752
 9430TIP3   OH249704   2.137   3.436  16.134  0.3954 -0.0675 -0.7800
 9430TIP3    H149705   2.139   3.510  16.194 -1.0685 -1.7222  1.4254
 9430TIP3    H249706   2.207   3.453  16.071  3.1004  0.9771  2.3572
 9431TIP3   OH249707   1.546   5.266   0.887 -0.2025 -0.2673  0.4242
 9431TIP3    H149708   1.567   5.355   0.916 -0.7282 -0.1648  0.4925
 9431TIP3    H249709   1.552   5.213   0.967  1.7400 -0.5921  0.0880
 9432TIP3   OH249710   2.267   4.933   3.627  0.0893 -0.6070  0.3287
 9432TIP3    H149711   2.255   4.936   3.532  0.1806 -1.4175  0.2831
 9432TIP3    H249712   2.330   4.862   3.641 -0.9968 -1.4461  1.0759
 9433TIP3   OH249713   1.430   1.140  16.356  0.1281  0.0002 -1.3951
 9433TIP3    H149714   1.366   1.203  16.325  0.0488  0.0528 -1.1300
 9433TIP3    H249715   1.514   1.187  16.352  0.0787  0.1002 -1.2611
 9434TIP3   OH249716   5.902   1.766   1.673 -0.0964  0.5201 -0.2495
 9434TIP3    H149717   5.925   1.798   1.760  2.4123 -0.3086 -0.5724
 9434TIP3    H249718   5.869   1.677   1.688 -0.8670  0.8375 -0.0323
 9435TIP3   OH249719   2.854   6.625   2.508 -0.1663  0.2166 -0.2725
 9435TIP3    H149720   2.906   6.578   2.573 -0.8720 -1.4196 -0.8882
 9435TIP3    H249721   2.783   6.665   2.558  0.1526  0.2210  0.1764
 9436TIP3   OH249722   3.697   4.826   2.937  0.1676  0.1482  0.3673
 9436TIP3    H149723   3.773   4.796   2.888  0.3514 -0.7131  1.1652
 9436TIP3    H249724   3.671   4.751   2.991 -0.7644  0.6853  0.6897
 9437TIP3   OH249725   6.187   3.872  16.429  0.4755 -0.2076  0.2677
 9437TIP3    H149726   6.224   3.788  16.403  1.2370  0.0201  0.5727
 9437TIP3    H249727   6.245   3.903  16.499  0.6837  0.9322 -0.3850
 9438TIP3   OH249728   2.857   3.924   3.813 -0.0090 -0.1285 -0.5106
 9438TIP3    H149729   2.917   3.854   3.837 -0.4372 -0.5373 -0.6273
 9438TIP3    H249730   2.870   3.936   3.719  0.3491  0.2218 -0.4181
 9439TIP3   OH249731   4.881   4.597   4.324  0.6130 -0.2288  0.4143
 9439TIP3    H149732   4.841   4.526   4.373  0.8015 -1.0373 -0.5966
 9439TIP3    H249733   4.915   4.556   4.245 -0.4296  1.1965 -0.8048
 9440TIP3   OH249734   2.643   3.345   5.635 -0.0791  0.0265  0.8920
 9440TIP3    H149735   2.712   3.408   5.613 -0.4297 -0.0060 -0.3283
 9440TIP3    H249736   2.574   3.362   5.571 -0.2203 -1.5173  0.6160
 9441TIP3   OH249737   6.395   3.601   3.419  0.8662 -0.1378  0.3041
 9441TIP3    H149738   6.418   3.671   3.480  2.1411 -0.1920 -0.0977
 9441TIP3    H249739   6.311   3.567   3.451  1.9630 -0.7801  2.5723
 9442TIP3   OH249740   3.422   6.736  12.986 -0.1523 -0.3705  0.3166
 9442TIP3    H149741   3.426   6.679  12.908 -0.0629 -1.4892  1.1248
 9442TIP3    H249742   3.483   6.807  12.966 -1.9844  0.7069 -1.6866
 9443TIP3   OH249743   2.713   2.943  15.002  0.0638 -0.3133 -0.7112
 9443TIP3    H149744   2.752   3.030  14.994 -0.1258 -0.0065  1.2931
 9443TIP3    H249745   2.758   2.904  15.077 -1.1628 -1.2189 -0.4304
 9444TIP3   OH249746   3.802   5.895   5.816  0.0386 -0.1276 -0.3578
 9444TIP3    H149747   3.720   5.945   5.825 -0.2333 -0.5865 -0.2939
 9444TIP3    H249748   3.799   5.862   5.726 -0.7932 -1.8097  0.2706
 9445TIP3   OH249749   5.201   5.967  12.458  0.0671 -0.2683 -0.0350
 9445TIP3    H149750   5.145   6.032  12.416  0.9551  0.5092 -0.0373
 9445TIP3    H249751   5.178   5.884  12.417  0.9006  0.4726 -2.0239
 9446TIP3   OH249752   0.618   6.197  10.819 -0.3170  0.2468 -0.2825
 9446TIP3    H149753   0.591   6.146  10.895  0.0318 -0.8492 -0.8652
 9446TIP3    H249754   0.544   6.192  10.759 -1.0581  2.1224  0.4677
 9447TIP3   OH249755   1.292   0.332   4.605  0.3187  0.0372  0.0617
 9447TIP3    H149756   1.203   0.365   4.614  0.8275  1.2119  0.8906
 9447TIP3    H249757   1.297   0.260   4.669 -0.0247 -0.0278  0.0168
 9448TIP3   OH249758   2.879   0.961   4.902  0.2968  0.7620 -0.7206
 9448TIP3    H149759   2.894   0.867   4.905 -0.3531  0.6641 -0.0043
 9448TIP3    H249760   2.932   0.996   4.974  1.0989  1.0330 -1.4391
 9449TIP3   OH249761   4.412   4.888  16.089  0.5223 -0.0502  0.2381
 9449TIP3    H149762   4.418   4.944  16.166 -0.1519 -0.5821  0.6783
 9449TIP3    H249763   4.503   4.869  16.066  0.7072 -1.9825  2.4181
 9450TIP3   OH249764   2.787   3.341  10.557  0.3644 -0.1255 -0.8547
 9450TIP3    H149765   2.698   3.307  10.571  0.7981 -1.4067 -1.1576
 9450TIP3    H249766   2.827   3.340  10.644  0.0916  0.4313 -0.7208
 9451TIP3   OH249767   1.893   6.207  12.690  0.6203 -0.1180  0.3249
 9451TIP3    H149768   1.860   6.131  12.642 -0.4895  1.1265 -0.9038
 9451TIP3    H249769   1.937   6.260  12.624  1.9198  0.0197  1.2950
 9452TIP3   OH249770   4.810   0.372   0.408 -0.6445  0.4721 -0.0008
 9452TIP3    H149771   4.860   0.298   0.442  1.4770  1.4927 -0.8575
 9452TIP3    H249772   4.868   0.414   0.345 -2.3340  2.0924 -0.5309
 9453TIP3   OH249773   2.396   0.542   5.606 -0.2902 -0.2756 -0.3096
 9453TIP3    H149774   2.377   0.619   5.659  0.3970 -1.4651  1.7254
 9453TIP3    H249775   2.492   0.532   5.612 -0.3069 -0.9512 -1.0318
 9454TIP3   OH249776   0.070   5.018   2.912 -0.4977  0.2027 -0.5899
 9454TIP3    H149777   0.055   4.967   2.992 -0.0220 -0.5800 -0.9912
 9454TIP3    H249778   0.064   5.109   2.940  0.8706 -0.0441  0.5977
 9455TIP3   OH249779   1.265   5.547  16.325 -1.1334  0.4099  0.1947
 9455TIP3    H149780   1.340   5.533  16.267  0.3772  1.1967  1.9426
 9455TIP3    H249781   1.194   5.571  16.265  0.2486  0.7036 -1.3879
 9456TIP3   OH249782   3.629   1.158   2.623 -0.8759  0.7771  0.0677
 9456TIP3    H149783   3.649   1.065   2.638  0.4456  1.1194  0.5115
 9456TIP3    H249784   3.542   1.170   2.662 -0.9061 -0.1913  0.3347
 9457TIP3   OH249785   1.209   4.564  10.288  0.1758  0.3194  0.1501
 9457TIP3    H149786   1.223   4.483  10.338  0.9257  0.3844  0.0494
 9457TIP3    H249787   1.115   4.581  10.296 -0.1265 -0.9917 -0.4937
 9458TIP3   OH249788   4.713   3.151   2.257 -0.1616 -0.5121  0.3762
 9458TIP3    H149789   4.699   3.211   2.330 -0.2887  0.1894 -0.2225
 9458TIP3    H249790   4.808   3.140   2.253  0.0708  1.7405 -1.1698
 9459TIP3   OH249791   3.586   1.847   4.347  0.2777 -0.2847 -0.0115
 9459TIP3    H149792   3.516   1.781   4.347 -0.2240  0.2481  0.4240
 9459TIP3    H249793   3.592   1.876   4.438  0.1601  0.6281 -0.2903
 9460TIP3   OH249794   3.349   3.611   1.712  0.0635 -0.1962  0.3147
 9460TIP3    H149795   3.259   3.636   1.687  0.2737  1.0579  0.7472
 9460TIP3    H249796   3.403   3.641   1.639  0.3948  1.2773  1.1310
 9461TIP3   OH249797   2.223   5.888  14.690  0.0903 -0.2043 -0.2735
 9461TIP3    H149798   2.136   5.912  14.721  0.9604  1.1173  1.2120
 9461TIP3    H249799   2.240   5.948  14.617  0.0080 -0.0463 -0.1620
 9462TIP3   OH249800   1.062   6.369  12.183 -0.4530 -0.3388  0.3571
 9462TIP3    H149801   1.158   6.369  12.181 -0.3769  0.5776  2.2255
 9462TIP3    H249802   1.039   6.462  12.181 -1.2771 -0.5383  0.5310
 9463TIP3   OH249803   3.916   3.254  15.937  0.4139  0.1987 -0.0488
 9463TIP3    H149804   3.851   3.307  15.891 -1.5957  0.4511  2.9018
 9463TIP3    H249805   3.907   3.166  15.899 -1.5800  0.2660  0.2119
 9464TIP3   OH249806   0.952   4.865  14.883 -0.1117 -0.0812 -0.6050
 9464TIP3    H149807   0.879   4.904  14.834 -1.0504 -1.5006 -0.3651
 9464TIP3    H249808   0.957   4.776  14.850  1.8207  0.1340 -0.9354
 9465TIP3   OH249809   1.939   1.999   1.096  0.4062 -0.0055  0.8567
 9465TIP3    H149810   1.929   2.035   1.007  0.7930 -0.3625  0.6685
 9465TIP3    H249811   2.034   1.997   1.110  0.5032 -2.7106  0.1432
 9466TIP3   OH249812   4.482   2.818   0.775  0.4714 -0.2383 -0.6469
 9466TIP3    H149813   4.455   2.757   0.844  1.4471  0.5302  0.4239
 9466TIP3    H249814   4.524   2.890   0.822 -1.9271  1.9710 -1.7735
 9467TIP3   OH249815   5.449   2.597   4.373  0.0637 -0.3491 -0.2622
 9467TIP3    H149816   5.445   2.635   4.461 -0.2793  1.8223 -1.1828
 9467TIP3    H249817   5.379   2.531   4.373  0.4233 -0.7540  1.2617
 9468TIP3   OH249818   5.842   2.527  16.413 -0.4255 -0.4372 -0.0817
 9468TIP3    H149819   5.859   2.535  16.507  2.6349 -0.7797 -0.5460
 9468TIP3    H249820   5.756   2.485  16.407  1.9168 -6.0144  2.6317
 9469TIP3   OH249821   1.258   5.254  16.080 -0.0290  0.1827 -0.3019
 9469TIP3    H149822   1.162   5.261  16.084  0.1387  2.6741  0.5446
 9469TIP3    H249823   1.289   5.332  16.125  2.4216 -0.5106 -0.7246
 9470TIP3   OH249824   0.981   0.192  16.887  0.1686  0.2757 -0.4097
 9470TIP3    H149825   0.930   0.221  16.963 -0.2962 -0.5186 -0.4122
 9470TIP3    H249826   1.036   0.267  16.865 -1.5438  1.4426 -0.8796
 9471TIP3   OH249827   0.511   1.018   0.540  0.4155 -0.1321  0.4398
 9471TIP3    H149828   0.515   0.954   0.610  3.3463 -0.3351  0.1158
 9471TIP3    H249829   0.569   1.089   0.568  1.3951 -0.0819 -1.6159
 9472TIP3   OH249830   5.160   6.687  15.448 -0.0338  0.1448  0.2112
 9472TIP3    H149831   5.186   6.728  15.366  1.4863 -0.2837  0.4626
 9472TIP3    H249832   5.114   6.608  15.423  1.6299 -0.6939 -0.2208
 9473TIP3   OH249833   2.088   0.212  16.925  0.2003 -0.4362  0.1836
 9473TIP3    H149834   2.108   0.162  16.845  0.5936 -1.6185  1.0142
 9473TIP3    H249835   2.040   0.289  16.893  2.0756  0.1278 -1.4029
 9474TIP3   OH249836   3.514   0.370  14.733  0.0530 -0.3333  0.4482
 9474TIP3    H149837   3.553   0.428  14.799  0.3483  0.2138 -0.2008
 9474TIP3    H249838   3.588   0.317  14.702 -0.4578 -1.9599  1.9558
 9475TIP3   OH249839   0.367   2.726  16.585  0.3888 -0.3122 -0.0865
 9475TIP3    H149840   0.457   2.711  16.557  0.0688  0.0023 -1.3572
 9475TIP3    H249841   0.353   2.664  16.656  1.1122 -1.4881 -0.9421
 9476TIP3   OH249842   1.241   2.511   3.499  0.6307  0.3693  0.1903
 9476TIP3    H149843   1.258   2.420   3.524 -0.0220  0.2793  0.3234
 9476TIP3    H249844   1.179   2.504   3.426 -0.3806  0.7357  1.0018
 9477TIP3   OH249845   5.339   4.199  16.390  0.0364  0.5189  0.9153
 9477TIP3    H149846   5.299   4.270  16.339  1.8703  1.1553  0.3149
 9477TIP3    H249847   5.266   4.144  16.416 -1.1582  1.3027 -0.7021
 9478TIP3   OH249848   6.620   4.035  17.162  0.2340 -0.4458 -0.7469
 9478TIP3    H149849   6.672   3.955  17.161  2.8490  1.1774 -0.5840
 9478TIP3    H249850   6.675   4.098  17.209 -1.6324  1.5119 -1.1335
 9479TIP3   OH249851   0.816   4.941  15.581  0.2208 -0.0911  0.4026
 9479TIP3    H149852   0.842   5.033  15.581  1.4117 -0.3834 -1.6492
 9479TIP3    H249853   0.773   4.928  15.496 -0.6455 -1.2468  1.0023
 9480TIP3   OH249854   6.055   4.476  16.749 -0.2168 -0.0507 -0.0586
 9480TIP3    H149855   6.062   4.526  16.668  0.8242 -0.0712  0.0174
 9480TIP3    H249856   6.122   4.513  16.806 -0.6368 -0.3463  0.6293
 9481TIP3   OH249857   2.620   4.816   4.151  0.0714  0.0042  0.2891
 9481TIP3    H149858   2.534   4.778   4.136  0.6808 -0.3767 -2.6218
 9481TIP3    H249859   2.604   4.908   4.170 -0.9470  0.2482 -1.6115
 9482TIP3   OH249860   2.325   5.208  13.926  0.1460  0.3962  0.0861
 9482TIP3    H149861   2.411   5.198  13.967  0.3131  0.8211 -0.1543
 9482TIP3    H249862   2.263   5.200  13.999  0.3414 -0.8332  0.1184
 9483TIP3   OH249863   0.763   5.954   1.633 -0.1158 -0.0935 -0.5582
 9483TIP3    H149864   0.711   5.894   1.687 -1.6179  1.3375 -0.3748
 9483TIP3    H249865   0.809   6.009   1.695 -0.0276  0.0230 -0.7265
 9484TIP3   OH249866   4.435   5.786   5.134 -0.0709  0.2001 -0.0347
 9484TIP3    H149867   4.501   5.729   5.094  0.0237  0.6356 -0.5010
 9484TIP3    H249868   4.461   5.875   5.109 -0.8572  0.3732 -0.2565
 9485TIP3   OH249869   3.158   6.444  12.462  0.1100 -0.0472  0.0267
 9485TIP3    H149870   3.240   6.397  12.446 -0.2617 -0.1427 -1.7267
 9485TIP3    H249871   3.178   6.505  12.533  1.3540 -0.9359  0.4439
 9486TIP3   OH249872   5.638   5.390   2.838  0.3331 -0.2687 -0.0244
 9486TIP3    H149873   5.680   5.476   2.842  0.4392 -0.2535 -1.1322
 9486TIP3    H249874   5.548   5.406   2.866  0.3925  0.1843 -0.0864
 9487TIP3   OH249875   5.647   2.652  14.745  0.1125  0.4753 -0.4051
 9487TIP3    H149876   5.645   2.558  14.726 -1.5175  0.7515 -1.7442
 9487TIP3    H249877   5.740   2.674  14.747  0.5269 -1.2535  0.4077
 9488TIP3   OH249878   5.142   1.869   2.215 -0.1648 -0.0640 -0.1825
 9488TIP3    H149879   5.123   1.962   2.226 -0.9565  0.1941 -3.2932
 9488TIP3    H249880   5.063   1.825   2.245  0.0908  0.2670  0.9994
 9489TIP3   OH249881   4.856   3.550   3.490  0.7419 -0.3342 -0.5075
 9489TIP3    H149882   4.894   3.464   3.476  0.0635 -0.9214  1.1291
 9489TIP3    H249883   4.777   3.533   3.541 -0.5947  1.0506 -2.0513
 9490TIP3   OH249884   3.309   1.831   3.517 -0.0890  0.2297 -0.0577
 9490TIP3    H149885   3.397   1.795   3.509 -1.0671 -1.6937 -2.9810
 9490TIP3    H249886   3.273   1.788   3.595  1.2405  0.4117  0.6729
 9491TIP3   OH249887   2.878   6.619   1.977 -0.1471  0.3868  0.2458
 9491TIP3    H149888   2.850   6.548   1.920  0.2700 -0.5534  1.1906
 9491TIP3    H249889   2.801   6.677   1.984  0.0292  0.9146 -1.8338
 9492TIP3   OH249890   0.817   1.303   2.220 -0.2279 -0.2191  0.1528
 9492TIP3    H149891   0.900   1.284   2.176 -0.6258 -0.5384 -0.4768
 9492TIP3    H249892   0.774   1.366   2.163 -0.4007 -0.0238  0.4992
 9493TIP3   OH249893   3.755   2.982  12.217  0.1725  0.0999  0.2651
 9493TIP3    H149894   3.747   2.963  12.311 -1.2671  0.5835  0.2417
 9493TIP3    H249895   3.841   3.024  12.209 -0.2226  1.1857  1.5646
 9494TIP3   OH249896   4.095   5.111  15.309 -0.0778 -0.0698 -0.2295
 9494TIP3    H149897   4.109   5.021  15.279  0.8869  0.4396 -1.3249
 9494TIP3    H249898   4.177   5.135  15.351 -1.2139 -0.5802  2.3956
 9495TIP3   OH249899   5.530   6.434   0.882 -0.3903 -0.0627 -0.9377
 9495TIP3    H149900   5.514   6.461   0.973 -1.8936 -2.1201 -0.5387
 9495TIP3    H249901   5.442   6.417   0.847  0.1930  0.6304 -2.7462
 9496TIP3   OH249902   3.323   1.052   2.021 -0.2020 -0.0437 -0.1846
 9496TIP3    H149903   3.341   0.961   1.997 -0.2313 -0.4849  1.4480
 9496TIP3    H249904   3.264   1.083   1.952  2.6673 -0.1013 -2.7935
 9497TIP3   OH249905   1.239   3.226   3.973  0.7503 -0.3695  0.5939
 9497TIP3    H149906   1.225   3.131   3.973 -0.6652 -0.1628 -0.1690
 9497TIP3    H249907   1.152   3.263   3.980  1.2814  0.8977  0.5682
 9498TIP3   OH249908   6.682   1.405   1.342  0.9395  0.0079 -0.0978
 9498TIP3    H149909   6.647   1.494   1.335 -0.7179 -0.5843  0.4428
 9498TIP3    H249910   6.612   1.349   1.310  1.8820 -1.1347 -0.2037
 9499TIP3   OH249911   2.506   1.820   1.460 -0.0010 -0.3354  0.1869
 9499TIP3    H149912   2.458   1.892   1.419  0.8235  0.3930  0.4975
 9499TIP3    H249913   2.446   1.787   1.528  0.1951  1.0091  1.0315
 9500TIP3   OH249914   0.916   5.889  14.014 -0.4098 -0.2141  0.3366
 9500TIP3    H149915   0.865   5.944  14.073 -0.0038 -0.0559  0.5375
 9500TIP3    H249916   0.990   5.943  13.988 -0.2333 -0.5196  0.2018
 9501TIP3   OH249917   3.928   3.529  14.072  0.0239 -1.3950  0.4960
 9501TIP3    H149918   3.965   3.556  13.988 -1.1106 -0.4910  0.2806
 9501TIP3    H249919   3.863   3.595  14.092  0.4202 -1.4914  2.1964
 9502TIP3   OH249920   1.531   2.398   0.430  0.0634 -0.2536  0.1180
 9502TIP3    H149921   1.440   2.373   0.445 -0.6484  1.8062 -0.6453
 9502TIP3    H249922   1.563   2.425   0.516 -0.8138  1.4287 -0.0766
 9503TIP3   OH249923   4.595   0.946  12.662 -0.3277  0.0176 -0.2133
 9503TIP3    H149924   4.557   1.033  12.673 -0.0973 -0.1024  1.7114
 9503TIP3    H249925   4.527   0.886  12.693 -0.3551 -0.4738 -1.2115
 9504TIP3   OH249926   6.779   2.276   5.283  0.0447 -0.2077  0.6180
 9504TIP3    H149927   6.721   2.201   5.295  1.3621 -1.3697 -0.3389
 9504TIP3    H249928   6.803   2.275   5.191  1.1307  0.6243  0.8781
 9505TIP3   OH249929   1.308   5.260   1.073 -0.2836  0.2645 -0.4666
 9505TIP3    H149930   1.397   5.234   1.097  0.0688 -0.5011 -2.5205
 9505TIP3    H249931   1.287   5.330   1.134  1.8376  0.6215 -0.0929
 9506TIP3   OH249932   4.741   1.575  16.663  0.0667 -0.5112 -0.0290
 9506TIP3    H149933   4.688   1.624  16.599 -0.6594 -2.5817 -1.0533
 9506TIP3    H249934   4.678   1.543  16.727  0.2485 -1.8662 -0.5199
 9507TIP3   OH249935   5.605   3.529   0.764  0.2144  0.1118  0.3695
 9507TIP3    H149936   5.688   3.573   0.781 -0.1175  1.4056 -1.2251
 9507TIP3    H249937   5.618   3.439   0.794  1.3166  0.9491  2.5559
 9508TIP3   OH249938   5.638   4.408  11.692  0.3596 -0.2179 -0.0632
 9508TIP3    H149939   5.632   4.443  11.604  0.8167 -2.5285 -1.0533
 9508TIP3    H249940   5.551   4.370  11.709  1.0190 -2.0089 -0.5377
 9509TIP3   OH249941   5.789   2.970  14.883  0.0143  0.1933 -0.2236
 9509TIP3    H149942   5.859   2.955  14.946 -0.5262 -1.5579 -0.0045
 9509TIP3    H249943   5.827   2.944  14.798 -0.6378 -1.6710  0.0279
 9510TIP3   OH249944   0.186   0.758  14.476  0.0091 -0.1857 -0.2157
 9510TIP3    H149945   0.149   0.821  14.415  0.0831 -0.8193 -0.9208
 9510TIP3    H249946   0.167   0.673  14.437  1.4871 -0.5474 -0.1745
 9511TIP3   OH249947   5.513   6.491  15.065  0.0547  0.0740 -0.7239
 9511TIP3    H149948   5.484   6.459  15.151 -1.1628 -2.0821 -1.8859
 9511TIP3    H249949   5.600   6.454  15.053  1.7250  3.2050  1.0030
 9512TIP3   OH249950   2.456   3.959  14.510  0.0686 -0.4525 -0.4038
 9512TIP3    H149951   2.412   3.878  14.483 -0.0909 -0.6559  0.4599
 9512TIP3    H249952   2.393   4.002  14.568  0.2135  0.2252 -0.7498
 9513TIP3   OH249953   4.502   5.536   3.435 -0.5319  0.1024 -0.3312
 9513TIP3    H149954   4.465   5.462   3.482 -2.4079  1.4737  0.4002
 9513TIP3    H249955   4.466   5.528   3.346 -2.5255  1.3542  0.3398
 9514TIP3   OH249956   1.837   1.646   0.365  0.3198  0.1973  0.5756
 9514TIP3    H149957   1.860   1.648   0.458  0.6630 -0.7147  0.5090
 9514TIP3    H249958   1.920   1.640   0.319  0.0538 -1.6948  0.2927
 9515TIP3   OH249959   1.277   5.481   5.362 -0.0624 -0.7252  0.1883
 9515TIP3    H149960   1.280   5.522   5.449  0.8329 -2.4099  0.9923
 9515TIP3    H249961   1.294   5.388   5.380  2.0839 -0.7933 -1.9893
 9516TIP3   OH249962   5.136   3.812  16.787  0.1609 -0.4047  0.2273
 9516TIP3    H149963   5.125   3.744  16.854  0.1933  0.4840  1.1377
 9516TIP3    H249964   5.230   3.823  16.779  0.1618 -0.6357 -0.0980
 9517TIP3   OH249965   6.691   5.456   4.152 -0.0797  0.0459  0.3901
 9517TIP3    H149966   6.674   5.538   4.106  1.2237 -0.4173 -0.9341
 9517TIP3    H249967   6.705   5.483   4.243 -1.7857  1.0518  0.3779
 9518TIP3   OH249968   0.579   5.989   0.860  0.2562  0.3569  0.7919
 9518TIP3    H149969   0.618   6.027   0.938 -1.3691  1.3038  1.1581
 9518TIP3    H249970   0.575   5.895   0.878  1.1293  0.4094  1.2792
 9519TIP3   OH249971   0.234   2.312  12.982 -0.1782  0.3197  0.3434
 9519TIP3    H149972   0.266   2.352  13.063  2.3781 -0.6744 -0.1382
 9519TIP3    H249973   0.247   2.218  12.995  0.7208  0.1861 -1.3908
 9520TIP3   OH249974   0.510   4.654  15.623  0.3620 -0.2556  0.2290
 9520TIP3    H149975   0.532   4.621  15.536  0.1124 -0.5065  0.2629
 9520TIP3    H249976   0.586   4.631  15.677  0.0696 -1.0231  0.3177
 9521TIP3   OH249977   4.658   3.039  16.026  0.5664  0.1783 -0.4650
 9521TIP3    H149978   4.612   3.034  15.943  0.9783  2.5433 -0.8603
 9521TIP3    H249979   4.589   3.029  16.092  0.4422 -3.3937 -1.0258
 9522TIP3   OH249980   5.880   0.492  11.495 -0.4492  0.5043 -0.6688
 9522TIP3    H149981   5.963   0.526  11.463  0.7429 -0.4576  1.3504
 9522TIP3    H249982   5.877   0.518  11.587 -0.1172 -3.6291  0.5989
 9523TIP3   OH249983   1.835   3.095   6.810  0.3494  0.9684  0.0668
 9523TIP3    H149984   1.807   3.028   6.748  0.3497  1.8951 -0.9469
 9523TIP3    H249985   1.753   3.138   6.836  0.0935 -0.8467  2.4111
 9524TIP3   OH249986   3.546   5.328  16.017 -0.4212 -0.7046 -0.0807
 9524TIP3    H149987   3.639   5.332  16.040 -0.5300  2.4370  0.0834
 9524TIP3    H249988   3.509   5.261  16.074  1.4581 -0.8950  0.9329
 9525TIP3   OH249989   2.038   2.124   1.427  0.2064 -0.0856  0.2784
 9525TIP3    H149990   2.103   2.117   1.357 -0.9526  2.4324 -1.1302
 9525TIP3    H249991   2.083   2.169   1.498  0.3111  0.7227 -0.3002
 9526TIP3   OH249992   0.095   6.327  11.423 -0.0783 -0.0696 -0.2061
 9526TIP3    H149993   0.002   6.344  11.406 -0.5726 -1.2436  1.2397
 9526TIP3    H249994   0.104   6.337  11.518  0.7064 -2.5775  0.0135
 9527TIP3   OH249995   5.169   1.133   2.463 -0.2154  0.7804 -0.3550
 9527TIP3    H149996   5.140   1.194   2.396 -2.4171 -1.3934 -1.4474
 9527TIP3    H249997   5.128   1.163   2.544 -1.2277  0.7878 -0.8739
 9528TIP3   OH249998   1.449   1.008  15.934 -0.4098  0.4951  0.5022
 9528TIP3    H149999   1.500   0.937  15.972 -0.4214  0.3737  0.2883
 9528TIP3    H250000   1.505   1.086  15.945  1.2435 -0.1892 -2.7076
 9529TIP3   OH250001   0.364   0.383   1.154  0.6788 -0.0099 -0.1115
 9529TIP3    H150002   0.381   0.313   1.218 -1.4002 -0.1340  0.3495
 9529TIP3    H250003   0.438   0.443   1.164  1.1363 -0.7925  1.3843
 9530TIP3   OH250004   6.509   0.047   3.023  0.0975  0.1469  0.0144
 9530TIP3    H150005   6.603   0.056   3.007 -0.0163  0.3036 -0.5861
 9530TIP3    H250006   6.473   0.133   3.002 -0.1967  0.0465  0.1067
 9531TIP3   OH250007   2.772   0.936   3.979 -0.0544  0.2211  0.0612
 9531TIP3    H150008   2.765   0.948   3.885  2.0130 -1.2061 -0.3096
 9531TIP3    H250009   2.699   0.879   4.003  0.2672 -0.5902 -0.9033
 9532TIP3   OH250010   6.273   2.400   3.950  0.1304 -0.2379  0.1120
 9532TIP3    H150011   6.263   2.495   3.944 -0.0219 -0.2631 -0.0465
 9532TIP3    H250012   6.208   2.365   3.889  1.1890 -0.4126 -0.9339
 9533TIP3   OH250013   0.638   6.300  16.524  0.9242  0.0098  0.1540
 9533TIP3    H150014   0.698   6.236  16.561 -0.8586 -1.5872  0.3199
 9533TIP3    H250015   0.568   6.308  16.589  0.0501  0.5242 -0.8283
 9534TIP3   OH250016   2.858   0.156   5.269  0.1131  0.7500  0.3731
 9534TIP3    H150017   2.909   0.232   5.296 -1.2071  1.4037  1.0873
 9534TIP3    H250018   2.859   0.098   5.344  2.0103 -0.4269 -0.5477
 9535TIP3   OH250019   5.438   1.559   2.576 -0.4741 -0.2111  0.2032
 9535TIP3    H150020   5.377   1.498   2.617 -2.9979  0.8388 -1.8775
 9535TIP3    H250021   5.416   1.645   2.613 -0.0088  0.1265 -0.2737
 9536TIP3   OH250022   1.627   1.556   1.579  0.0615 -0.5711  0.4199
 9536TIP3    H150023   1.578   1.622   1.627  2.9647  1.7304  0.3124
 9536TIP3    H250024   1.662   1.602   1.503  1.3278 -2.4468 -0.1692
 9537TIP3   OH250025   0.660   6.488   5.330 -0.0158 -0.0761 -0.2995
 9537TIP3    H150026   0.606   6.566   5.337  0.8473  0.4397  0.7692
 9537TIP3    H250027   0.682   6.466   5.420  2.0397  0.0853 -0.7410
 9538TIP3   OH250028   4.545   0.193   2.751  0.3627 -0.2750 -0.3977
 9538TIP3    H150029   4.576   0.268   2.701  0.9653  0.0427  0.4284
 9538TIP3    H250030   4.473   0.228   2.804  0.6248 -0.2800 -0.0339
 9539TIP3   OH250031   6.529   0.439   4.875  0.1441 -0.5539  0.1256
 9539TIP3    H150032   6.478   0.507   4.832  0.1134 -1.0166 -0.5869
 9539TIP3    H250033   6.514   0.452   4.968 -1.4909 -0.8338 -0.0869
 9540TIP3   OH250034   5.116   1.694  14.107 -0.0402  0.1063 -0.6386
 9540TIP3    H150035   5.112   1.789  14.116 -0.5063  0.1703 -1.4574
 9540TIP3    H250036   5.130   1.662  14.196 -0.1587  0.9286 -0.3217
 9541TIP3   OH250037   4.233   2.056  15.204 -0.7300  0.6202 -0.1475
 9541TIP3    H150038   4.186   2.058  15.121 -0.0379 -0.0020 -0.5573
 9541TIP3    H250039   4.275   1.971  15.206 -1.8236  0.0879  1.4500
 9542TIP3   OH250040   4.105   3.756   3.418  0.4452 -0.8098 -0.3548
 9542TIP3    H150041   4.185   3.799   3.387  0.4925 -0.1636  0.6706
 9542TIP3    H250042   4.069   3.815   3.483 -1.1740 -0.8442 -1.2034
 9543TIP3   OH250043   3.171   0.996   1.782 -0.6636 -0.6530  0.3735
 9543TIP3    H150044   3.083   0.960   1.789 -0.0388 -2.6729 -1.6995
 9543TIP3    H250045   3.223   0.926   1.744  1.9291  0.4153  1.7883
 9544TIP3   OH250046   2.250   0.572   6.320 -0.2857  0.5541  0.0707
 9544TIP3    H150047   2.167   0.552   6.363 -0.7405  2.9013  0.3486
 9544TIP3    H250048   2.275   0.658   6.354  2.3350 -0.1581  0.0785
 9545TIP3   OH250049   4.511   2.589  12.615  0.3749 -0.3605  0.2007
 9545TIP3    H150050   4.421   2.611  12.639  0.5254 -0.3974  0.7882
 9545TIP3    H250051   4.502   2.510  12.561  0.0160 -0.0841 -0.1507
 9546TIP3   OH250052   5.373   4.014  15.202 -0.0572  0.1417  0.0271
 9546TIP3    H150053   5.295   3.960  15.191 -1.3684  1.7770  1.1103
 9546TIP3    H250054   5.375   4.070  15.124  0.9491 -0.9787 -0.7821
 9547TIP3   OH250055   6.574   4.323  15.921  0.4358 -0.9343  0.2458
 9547TIP3    H150056   6.611   4.332  16.008  0.4244  0.3898  0.1284
 9547TIP3    H250057   6.487   4.364  15.927  0.4454 -0.8048 -0.3811
 9548TIP3   OH250058   1.256   0.910  12.516  0.2974  0.3237  0.1414
 9548TIP3    H150059   1.177   0.903  12.569  0.5027 -0.0973  0.3900
 9548TIP3    H250060   1.278   1.003  12.517 -1.1713  0.7205 -1.3408
 9549TIP3   OH250061   3.742   3.300   4.718  0.3040 -1.0800 -0.2702
 9549TIP3    H150062   3.748   3.387   4.679  0.3252 -1.5574 -1.3422
 9549TIP3    H250063   3.649   3.276   4.713  0.3552 -1.2751 -0.3175
 9550TIP3   OH250064   1.656   4.390   4.331 -0.0770 -0.4163 -0.1262
 9550TIP3    H150065   1.603   4.329   4.383 -1.4178  0.2552 -0.6828
 9550TIP3    H250066   1.708   4.438   4.396 -0.5319 -0.7325  0.4734
 9551TIP3   OH250067   6.471   6.073  13.136 -0.0481 -0.8236 -0.3775
 9551TIP3    H150068   6.467   5.985  13.097 -0.9020 -0.5685 -0.8822
 9551TIP3    H250069   6.379   6.100  13.142  0.0994 -0.5982  1.2344
 9552TIP3   OH250070   4.521   1.502  16.801  0.4023 -0.2792 -0.3203
 9552TIP3    H150071   4.495   1.595  16.798 -0.2196 -0.4692 -0.9524
 9552TIP3    H250072   4.463   1.459  16.738  0.9644 -1.0360 -0.3238
 9553TIP3   OH250073   5.215   1.472   0.425 -0.3324 -0.1198 -0.2014
 9553TIP3    H150074   5.294   1.496   0.376  0.9985 -0.7605  1.6005
 9553TIP3    H250075   5.230   1.506   0.513 -2.0346 -0.3456  0.1942
 9554TIP3   OH250076   4.239   2.266   0.359 -0.1275  0.6432  0.0121
 9554TIP3    H150077   4.186   2.280   0.438  0.1813  0.8156  0.1927
 9554TIP3    H250078   4.326   2.243   0.393  0.4423  2.3543 -0.2648
 9555TIP3   OH250079   0.695   2.368  11.285 -0.2767 -0.2199 -0.5469
 9555TIP3    H150080   0.777   2.361  11.333  0.1477  0.2719 -1.2014
 9555TIP3    H250081   0.703   2.305  11.214 -0.5095 -0.2509 -0.5467
 9556TIP3   OH250082   3.342   1.685   2.580  0.3040 -0.3576  0.6043
 9556TIP3    H150083   3.372   1.690   2.671  0.1600 -0.6746  0.6671
 9556TIP3    H250084   3.343   1.776   2.550 -0.0083 -0.2112  1.0372
 9557TIP3   OH250085   5.582   2.082  14.863 -0.4718  0.0033  0.0238
 9557TIP3    H150086   5.643   2.127  14.922 -0.7820  1.8057 -0.9756
 9557TIP3    H250087   5.625   2.086  14.778 -1.0693 -0.5248 -0.3012
 9558TIP3   OH250088   0.408   4.962   5.564  0.4841  0.3031 -0.0846
 9558TIP3    H150089   0.420   5.056   5.551  3.6044 -0.4378 -3.4270
 9558TIP3    H250090   0.391   4.928   5.476 -0.4156 -2.3054  1.0617
 9559TIP3   OH250091   2.093   2.082  13.553 -0.0381  0.8681 -0.4331
 9559TIP3    H150092   2.048   2.057  13.633  0.5056 -1.0331 -0.6936
 9559TIP3    H250093   2.024   2.088  13.487 -0.5225  2.7105  0.2175
 9560TIP3   OH250094   1.220   3.141  14.141 -0.3450  0.3484 -0.2798
 9560TIP3    H150095   1.169   3.073  14.098 -0.1302  0.0549 -0.0694
 9560TIP3    H250096   1.223   3.114  14.233 -0.3697  0.7063 -0.1737
 9561TIP3   OH250097   2.749   1.082   0.138  0.4585  0.6186  0.0307
 9561TIP3    H150098   2.766   1.174   0.115 -2.9543  0.9101 -1.5339
 9561TIP3    H250099   2.753   1.036   0.055 -0.4994 -0.2330  0.4566
 9562TIP3   OH250100   3.747   3.326   5.286  0.0841  0.1403 -0.6690
 9562TIP3    H150101   3.751   3.371   5.201 -0.9016  0.3138 -0.6255
 9562TIP3    H250102   3.661   3.349   5.321  0.2561 -0.4114  0.1155
 9563TIP3   OH250103   2.712   2.010   2.745  0.0915  0.3916 -0.1901
 9563TIP3    H150104   2.737   2.047   2.830  0.3225  1.4012 -0.6895
 9563TIP3    H250105   2.791   2.018   2.692  0.0031 -0.4132 -0.4477
 9564TIP3   OH250106   1.033   0.243   2.437  0.0760  0.1390 -0.6081
 9564TIP3    H150107   0.993   0.209   2.356 -2.6591  0.5530  0.5180
 9564TIP3    H250108   1.097   0.177   2.461 -2.0704 -2.1257 -0.8410
 9565TIP3   OH250109   6.118   3.230   1.101  0.1635 -0.6710 -0.5784
 9565TIP3    H150110   6.158   3.297   1.157 -0.9644  1.0739 -1.7980
 9565TIP3    H250111   6.174   3.226   1.024 -1.0434  0.5985 -1.5561
 9566TIP3   OH250112   5.111   3.563  11.517  0.7795  0.2848 -0.3829
 9566TIP3    H150113   5.069   3.494  11.569  0.8572  0.4655 -0.0732
 9566TIP3    H250114   5.039   3.620  11.489  0.6242 -0.3740 -1.3279
 9567TIP3   OH250115   2.529   5.182   2.403  0.1264  0.8724 -0.2625
 9567TIP3    H150116   2.437   5.176   2.430 -0.0773  1.4953 -0.8111
 9567TIP3    H250117   2.538   5.116   2.334 -0.2454  1.7230 -1.1297
 9568TIP3   OH250118   4.539   4.490   0.453 -0.3171 -0.5104 -0.1791
 9568TIP3    H150119   4.449   4.496   0.420 -1.1534  4.0359  2.5920
 9568TIP3    H250120   4.532   4.440   0.534 -0.0175 -1.6529 -0.8384
 9569TIP3   OH250121   0.705   2.681  11.569 -0.2529  0.3753  0.6281
 9569TIP3    H150122   0.626   2.651  11.614 -1.4804  1.3322 -0.8182
 9569TIP3    H250123   0.674   2.713  11.484  1.6920  0.7857  0.0306
 9570TIP3   OH250124   0.519   3.715  11.605  0.4067  0.2072  0.0416
 9570TIP3    H150125   0.471   3.641  11.642  0.9948 -0.4221 -0.4315
 9570TIP3    H250126   0.574   3.676  11.537  0.4420  1.1370 -0.4730
 9571TIP3   OH250127   5.732   4.533  15.773  0.0094  0.2051  0.4545
 9571TIP3    H150128   5.667   4.559  15.707  0.9435  3.5935  0.7494
 9571TIP3    H250129   5.680   4.511  15.850 -0.9856 -1.5728 -0.6972
 9572TIP3   OH250130   1.697   1.541  15.720 -0.5983  0.4516  0.2913
 9572TIP3    H150131   1.655   1.621  15.690  1.0270  0.6234 -1.5934
 9572TIP3    H250132   1.767   1.525  15.657  0.8693 -0.9392  2.2122
 9573TIP3   OH250133   4.522   4.609   0.156 -0.4179 -0.4415  0.1008
 9573TIP3    H150134   4.522   4.646   0.244  1.9007 -3.9745  1.6864
 9573TIP3    H250135   4.614   4.602   0.132 -1.0172  0.9093 -2.8808
 9574TIP3   OH250136   0.765   0.682  16.191 -0.0199  0.3797  0.5182
 9574TIP3    H150137   0.846   0.631  16.190  0.2919  0.8751 -0.0359
 9574TIP3    H250138   0.784   0.754  16.251 -0.4497 -0.1426  1.2791
 9575TIP3   OH250139   1.828   3.840  12.181  0.1544  0.3542  0.2440
 9575TIP3    H150140   1.768   3.915  12.179  0.4545  0.6613  1.7642
 9575TIP3    H250141   1.914   3.879  12.166  0.3505  0.3670  1.3700
 9576TIP3   OH250142   5.389   3.568   0.958  0.6608 -0.4339  0.5550
 9576TIP3    H150143   5.470   3.542   0.916 -0.3471 -0.4385 -1.4465
 9576TIP3    H250144   5.416   3.621   1.033  2.4910 -0.0933 -0.3319
 9577TIP3   OH250145   2.865   5.432  11.756  0.2023  0.1189 -0.0253
 9577TIP3    H150146   2.859   5.512  11.809  0.0992  0.2487 -0.2318
 9577TIP3    H250147   2.803   5.447  11.684  3.1579  1.5706 -2.3702
 9578TIP3   OH250148   0.841   5.574   1.112  0.8246 -0.2836 -0.2370
 9578TIP3    H150149   0.925   5.618   1.120  1.1624 -0.8324 -0.7435
 9578TIP3    H250150   0.802   5.612   1.032 -0.0587  1.0407  0.7948
 9579TIP3   OH250151   1.369   5.007   4.333 -0.3012  0.1832  0.9385
 9579TIP3    H150152   1.344   5.098   4.347  0.4089  0.3878  0.9020
 9579TIP3    H250153   1.370   4.997   4.238 -0.0579  0.2339  0.9342
 9580TIP3   OH250154   6.248   0.001  14.842  0.2257 -0.0616 -0.1233
 9580TIP3    H150155   6.221   0.026  14.754  0.3491  0.4554 -0.0173
 9580TIP3    H250156   6.343   0.009  14.841  0.2943 -0.8668 -0.1867
 9581TIP3   OH250157   3.033   0.268   2.303 -0.0272 -0.4405 -0.0236
 9581TIP3    H150158   2.983   0.313   2.235  0.6752 -0.7129 -0.7199
 9581TIP3    H250159   3.123   0.298   2.291  0.2092 -0.9710  0.3870
 9582TIP3   OH250160   3.405   1.399  16.353 -0.2970  0.4333 -0.1097
 9582TIP3    H150161   3.343   1.439  16.415 -0.5518 -1.4629  0.8739
 9582TIP3    H250162   3.386   1.306  16.358  0.6030  0.1425 -2.0703
 9583TIP3   OH250163   5.267   2.944   3.739  0.1427  0.0435 -0.2141
 9583TIP3    H150164   5.229   3.010   3.797 -0.8781 -1.4617  0.8508
 9583TIP3    H250165   5.307   2.880   3.799  2.0708  0.2555 -1.2590
 9584TIP3   OH250166   0.562   4.972   4.665 -0.2472  0.3477 -0.1879
 9584TIP3    H150167   0.579   4.923   4.745 -3.6080 -0.0328  0.3765
 9584TIP3    H250168   0.601   5.058   4.681  1.5707 -0.6099  0.6946
 9585TIP3   OH250169   4.588   5.646   2.928  0.2433 -0.2991  0.5981
 9585TIP3    H150170   4.622   5.575   2.874 -0.0323  1.0414 -1.4035
 9585TIP3    H250171   4.666   5.691   2.960  0.4534  0.9791 -1.5673
 9586TIP3   OH250172   3.157   1.705  14.173  0.5315 -0.2697  0.4514
 9586TIP3    H150173   3.064   1.727  14.165  1.1867  2.8187  0.7901
 9586TIP3    H250174   3.191   1.713  14.084  0.3882 -1.9030  0.2412
 9587TIP3   OH250175   2.706   3.439  16.439  0.0044 -0.1009 -0.2355
 9587TIP3    H150176   2.732   3.349  16.454  0.0853  0.0636  0.6307
 9587TIP3    H250177   2.634   3.455  16.500  0.4438  0.6257  0.1075
 9588TIP3   OH250178   1.042   3.149  12.305 -0.2618 -0.7470  0.2006
 9588TIP3    H150179   1.135   3.153  12.326  0.0048 -0.2983 -1.0283
 9588TIP3    H250180   1.026   3.057  12.285  0.1201 -0.6715 -0.4694
 9589TIP3   OH250181   2.033   3.807   4.585 -0.6467  0.0203  0.3365
 9589TIP3    H150182   1.955   3.759   4.559  0.2881 -0.8102 -1.0156
 9589TIP3    H250183   2.039   3.880   4.523 -0.2997  0.0273  0.3743
 9590TIP3   OH250184   4.726   1.950  14.624 -0.0036 -0.4416 -0.0202
 9590TIP3    H150185   4.720   1.943  14.528 -0.3278  0.7470 -0.1006
 9590TIP3    H250186   4.707   2.042  14.642  0.4897 -0.5634  1.1610
 9591TIP3   OH250187   1.524   2.043   2.743  0.1986 -0.1980  0.1495
 9591TIP3    H150188   1.449   2.002   2.700  1.5752 -3.2905  0.5538
 9591TIP3    H250189   1.594   2.040   2.677  0.1506  2.2198 -0.0642
 9592TIP3   OH250190   3.233   1.928   2.443 -0.1421 -0.6697  0.0656
 9592TIP3    H150191   3.160   1.915   2.382 -1.2622 -4.0824  1.9791
 9592TIP3    H250192   3.208   2.005   2.494 -0.6984  0.3009 -1.6100
 9593TIP3   OH250193   1.730   3.326  16.709 -0.5923 -0.6524 -0.3809
 9593TIP3    H150194   1.663   3.393  16.703 -0.2359 -0.5100 -3.4019
 9593TIP3    H250195   1.689   3.255  16.758 -1.4800  1.1084  1.5015
 9594TIP3   OH250196   4.506   6.461  13.823  0.2101 -0.6259 -0.0512
 9594TIP3    H150197   4.532   6.536  13.769  1.2216  0.1546  1.4711
 9594TIP3    H250198   4.453   6.500  13.893 -0.7308 -1.5623 -0.2441
 9595TIP3   OH250199   2.942   4.353  14.716  0.6297  0.2626 -0.1202
 9595TIP3    H150200   2.984   4.391  14.639  1.0288 -0.8935 -0.4823
 9595TIP3    H250201   2.967   4.260  14.714 -1.9150 -0.4388 -0.3161
 9596TIP3   OH250202   1.405   2.475   1.600 -0.3941 -0.5760  0.6423
 9596TIP3    H150203   1.458   2.427   1.537 -1.9000 -0.2527 -0.8828
 9596TIP3    H250204   1.381   2.410   1.666  1.8758 -0.7254  1.3793
 9597TIP3   OH250205   5.518   1.796   3.588  0.4176  0.3968  0.5359
 9597TIP3    H150206   5.608   1.783   3.618  0.4414  1.8819  1.1447
 9597TIP3    H250207   5.466   1.794   3.668 -0.4153 -2.7900 -0.0031
 9598TIP3   OH250208   0.719   1.257   0.284  0.0458 -0.1298 -0.3964
 9598TIP3    H150209   0.750   1.200   0.354 -0.4964  0.9368  0.7208
 9598TIP3    H250210   0.797   1.303   0.254 -0.1479  1.3634  1.3152
 9599TIP3   OH250211   6.342   3.713  15.048 -0.0765 -0.5067 -0.1280
 9599TIP3    H150212   6.376   3.801  15.067  0.3979 -0.9224  1.0117
 9599TIP3    H250213   6.420   3.659  15.037 -0.3613 -0.5973 -1.8317
 9600TIP3   OH250214   1.159   3.239  11.610 -0.2006 -0.3694 -0.8357
 9600TIP3    H150215   1.222   3.232  11.538  0.6983 -0.3916 -0.0613
 9600TIP3    H250216   1.201   3.297  11.673 -0.3847 -1.3942  0.2693
 9601TIP3   OH250217   0.453   5.303  15.046  0.2304 -0.2392 -0.5547
 9601TIP3    H150218   0.520   5.259  14.994  0.9290 -0.0940  0.2200
 9601TIP3    H250219   0.417   5.370  14.987  0.3811 -0.6796 -1.1527
 9602TIP3   OH250220   3.350   5.257   3.834 -0.1954 -0.4693  0.0767
 9602TIP3    H150221   3.383   5.181   3.880 -0.3544  0.0375  1.0448
 9602TIP3    H250222   3.411   5.271   3.762  0.6939 -0.5948  0.8093
 9603TIP3   OH250223   6.294   6.128   4.313  0.1917 -0.1332 -0.1270
 9603TIP3    H150224   6.326   6.218   4.308 -1.8750  0.5079 -2.5160
 9603TIP3    H250225   6.356   6.077   4.260 -0.1082  0.3361 -0.9394
 9604TIP3   OH250226   5.913   0.877  16.975  0.3187  0.1218 -0.4309
 9604TIP3    H150227   6.000   0.864  17.011  0.8002  0.1960 -1.5363
 9604TIP3    H250228   5.920   0.956  16.922 -0.7786  0.9074  0.5812
 9605TIP3   OH250229   4.707   3.956   0.606  0.2300  0.2559 -0.1039
 9605TIP3    H150230   4.717   3.863   0.623 -0.8881  0.0550 -0.5041
 9605TIP3    H250231   4.651   3.988   0.678 -1.7531  0.0501 -1.5180
 9606TIP3   OH250232   0.491   3.978   4.541 -0.0981 -0.0079 -0.6125
 9606TIP3    H150233   0.571   3.969   4.592 -2.3641 -0.3050  3.0911
 9606TIP3    H250234   0.489   3.900   4.485  2.2637  0.0870 -0.8497
 9607TIP3   OH250235   5.397   5.880   1.824  0.9195 -0.1429  0.5632
 9607TIP3    H150236   5.448   5.934   1.764 -0.4923  0.6794  0.0652
 9607TIP3    H250237   5.328   5.939   1.856 -0.0345 -1.3635  0.7960
 9608TIP3   OH250238   3.063   5.119  12.477  0.0470 -0.3972  0.9224
 9608TIP3    H150239   3.068   5.193  12.538  0.5423  0.2329  0.1228
 9608TIP3    H250240   3.044   5.044  12.533 -0.5879  0.3526  1.7272
 9609TIP3   OH250241   6.401   0.117   3.494 -0.4403  0.2008 -0.4208
 9609TIP3    H150242   6.440   0.044   3.446  0.0153 -0.2234  0.5795
 9609TIP3    H250243   6.462   0.133   3.566 -2.3588 -0.7890  1.4717
 9610TIP3   OH250244   0.819   0.487  16.749 -0.4952 -0.0328  0.6211
 9610TIP3    H150245   0.815   0.399  16.713 -0.7375  1.3456 -2.9574
 9610TIP3    H250246   0.737   0.497  16.797 -1.5326 -0.9889 -0.9005
 9611TIP3   OH250247   2.158   3.366  16.793 -0.0314 -0.2617 -0.1357
 9611TIP3    H150248   2.106   3.285  16.790 -0.3768 -0.0921  1.1510
 9611TIP3    H250249   2.208   3.359  16.874 -0.8298  1.2861  0.5051
 9612TIP3   OH250250   5.462   0.622   5.062  0.2551 -0.2944 -0.4979
 9612TIP3    H150251   5.550   0.586   5.071  0.2813 -1.6941 -5.0965
 9612TIP3    H250252   5.470   0.685   4.990 -2.3293  0.3010 -0.2920
 9613TIP3   OH250253   0.067   6.436   5.713  0.1879  0.3035 -0.0169
 9613TIP3    H150254   0.009   6.425   5.788  1.2926  0.9256  0.9376
 9613TIP3    H250255   0.144   6.384   5.734  0.1593 -0.1955 -1.0970
 9614TIP3   OH250256   1.338   1.916   2.246 -0.4101  0.9757 -0.0847
 9614TIP3    H150257   1.343   1.953   2.158 -0.0271  2.0775  0.3919
 9614TIP3    H250258   1.297   1.831   2.234 -0.9755  1.4027 -1.2470
 9615TIP3   OH250259   4.526   3.279  11.095  0.1369 -0.5887  0.1775
 9615TIP3    H150260   4.546   3.242  11.009 -2.3040 -0.8423 -0.2897
 9615TIP3    H250261   4.556   3.370  11.089  2.5613 -1.3423  0.0412
 9616TIP3   OH250262   5.751   6.656   3.980 -0.1380 -0.3319  0.3526
 9616TIP3    H150263   5.708   6.731   4.022  0.3777 -0.4915  1.1764
 9616TIP3    H250264   5.692   6.583   3.994 -1.7789  0.3624 -2.4727
 9617TIP3   OH250265   3.026   4.361  12.807  0.0808  0.4157  0.1755
 9617TIP3    H150266   3.113   4.391  12.780  0.1370  0.8858  0.8707
 9617TIP3    H250267   2.966   4.422  12.765  0.0565 -0.1524 -0.6379
 9618TIP3   OH250268   3.589   3.909   1.694 -0.1847  0.3138  0.0453
 9618TIP3    H150269   3.567   3.849   1.766 -0.9187 -0.0023 -0.4273
 9618TIP3    H250270   3.669   3.873   1.656 -2.1287 -2.0022 -1.9987
 9619TIP3   OH250271   4.663   1.552  14.684  0.7597 -0.2673  0.5395
 9619TIP3    H150272   4.739   1.531  14.739 -0.2135  0.0244  2.0009
 9619TIP3    H250273   4.628   1.632  14.721  0.8780  0.6760 -1.3430
 9620TIP3   OH250274   1.329   1.384  14.780  0.3541 -0.7282 -0.5122
 9620TIP3    H150275   1.256   1.330  14.751 -0.6223  0.4095 -0.1881
 9620TIP3    H250276   1.318   1.467  14.734  0.6650 -0.0808  0.5597
 9621TIP3   OH250277   5.788   2.348   3.292 -0.0351  0.0421  0.0956
 9621TIP3    H150278   5.810   2.263   3.253  1.3390  0.9629 -1.2120
 9621TIP3    H250279   5.694   2.357   3.278  0.3222  0.1024 -2.6180
 9622TIP3   OH250280   0.349   0.701   5.173 -0.4158  0.5358  0.5566
 9622TIP3    H150281   0.346   0.606   5.160  3.2040  0.5706 -1.1912
 9622TIP3    H250282   0.273   0.720   5.229 -1.4131 -3.3019  0.6660
 9623TIP3   OH250283   4.194   4.540   2.924 -0.1714  0.3231 -0.7021
 9623TIP3    H150284   4.184   4.445   2.933  0.8642  0.0956 -1.6704
 9623TIP3    H250285   4.269   4.561   2.979 -0.2211  0.5277 -0.7142
 9624TIP3   OH250286   6.115   4.878  16.387  0.6129  0.0468 -0.0654
 9624TIP3    H150287   6.204   4.843  16.382  1.2184  1.1937  1.8806
 9624TIP3    H250288   6.116   4.954  16.329  0.3054 -1.0904 -1.5805
 9625TIP3   OH250289   5.211   4.835  15.940 -0.5565 -0.2345 -0.2339
 9625TIP3    H150290   5.305   4.818  15.930 -0.8830 -1.3609 -1.6267
 9625TIP3    H250291   5.206   4.927  15.967  1.0369 -0.7942  2.1756
 9626TIP3   OH250292   6.370   4.479  15.461  0.0681  0.5122  0.0409
 9626TIP3    H150293   6.339   4.498  15.372 -0.8945  1.2436  0.5241
 9626TIP3    H250294   6.417   4.558  15.487  1.1914 -0.0766 -0.1776
 9627TIP3   OH250295   6.574   6.535  11.657  1.1915  0.5057 -0.0108
 9627TIP3    H150296   6.552   6.571  11.570  0.0351  0.3369  0.2129
 9627TIP3    H250297   6.642   6.595  11.690  1.3423  0.8167 -0.8485
 9628TIP3   OH250298   3.595   0.364   2.004 -0.9488 -0.1561  0.2621
 9628TIP3    H150299   3.511   0.409   1.992 -0.6922  0.3804  0.4367
 9628TIP3    H250300   3.586   0.316   2.086 -0.5883  1.0679  1.0400
 9629TIP3   OH250301   2.062   5.290  17.024  0.1155  0.5277 -0.5552
 9629TIP3    H150302   2.108   5.305  16.942  1.0544  0.7448 -0.0021
 9629TIP3    H250303   2.060   5.376  17.067  1.4764  0.0247  0.5732
 9630TIP3   OH250304   1.008   0.341   3.143 -0.1184  0.6100 -0.0578
 9630TIP3    H150305   0.963   0.355   3.060  0.0469 -0.0839 -0.2691
 9630TIP3    H250306   1.024   0.429   3.177 -0.9748  0.8768 -0.3332
 9631TIP3   OH250307   2.048   5.344  14.827  0.3496 -0.3942 -0.4276
 9631TIP3    H150308   2.060   5.255  14.860  1.3667 -1.0293 -2.4201
 9631TIP3    H250309   1.956   5.347  14.801  0.3738 -0.9470 -0.5933
 9632TIP3   OH250310   0.483   6.754   2.270  0.1803 -0.6294  0.0151
 9632TIP3    H150311   0.483   6.659   2.259 -1.8601 -0.7440  0.7094
 9632TIP3    H250312   0.460   6.788   2.184  2.1455 -0.6984 -0.5463
 9633TIP3   OH250313   4.543   4.810   2.777  0.0725  0.2719 -0.2256
 9633TIP3    H150314   4.625   4.820   2.729  0.1695  0.4722 -0.0198
 9633TIP3    H250315   4.486   4.879   2.743 -0.0413  0.0731 -0.4348
 9634TIP3   OH250316   1.893   1.532  12.441  0.0678 -0.1276 -0.5218
 9634TIP3    H150317   1.910   1.607  12.498  0.9117  0.8916 -2.0837
 9634TIP3    H250318   1.910   1.565  12.353  1.0934 -2.3521 -1.1685
 9635TIP3   OH250319   0.013   2.337  11.243  0.0478 -0.3951 -0.2870
 9635TIP3    H150320  -0.060   2.280  11.263  0.3859 -1.3365 -1.6434
 9635TIP3    H250321   0.080   2.279  11.207  1.2807  0.5162  0.5019
 9636TIP3   OH250322   2.671   1.393   5.623  0.2749 -0.2564  0.3808
 9636TIP3    H150323   2.705   1.354   5.543  1.4263 -0.0892  0.7812
 9636TIP3    H250324   2.703   1.336   5.694 -1.1971 -0.7234  0.6970
 9637TIP3   OH250325   6.443   4.942  13.170 -0.3599 -0.3797 -0.1651
 9637TIP3    H150326   6.389   4.865  13.187  0.5916 -1.0684 -0.1644
 9637TIP3    H250327   6.383   5.007  13.134 -1.1380 -1.2039 -0.3675
 9638TIP3   OH250328   1.538   0.042  14.441 -0.0178  0.0690 -0.3587
 9638TIP3    H150329   1.627   0.076  14.453  0.0433 -0.5998  1.2396
 9638TIP3    H250330   1.485   0.091  14.503 -0.6897  0.1206 -0.9619
 9639TIP3   OH250331   2.669   1.125  14.284 -0.0479  0.7354  0.3991
 9639TIP3    H150332   2.630   1.045  14.247  2.3809  0.0626 -0.8617
 9639TIP3    H250333   2.674   1.185  14.210 -0.4978  1.5170  1.0046
 9640TIP3   OH250334   1.710   3.482   4.803 -0.1383  0.3876  0.1878
 9640TIP3    H150335   1.656   3.412   4.839 -0.5852  0.9328  0.5842
 9640TIP3    H250336   1.671   3.563   4.836  0.4025  0.8273 -0.2231
 9641TIP3   OH250337   5.693   6.765   3.749 -0.2638  0.0011  0.3523
 9641TIP3    H150338   5.753   6.837   3.730 -0.1349  0.0108  0.7860
 9641TIP3    H250339   5.718   6.735   3.836 -0.3349 -0.5578  0.1797
 9642TIP3   OH250340   6.125   5.124  13.318  0.1378 -0.5737 -0.3577
 9642TIP3    H150341   6.059   5.066  13.281  0.7214 -0.5143 -1.5240
 9642TIP3    H250342   6.181   5.146  13.244  1.8562 -1.1577  0.7363
 9643TIP3   OH250343   3.379   0.706   2.338  0.1882 -0.9294 -0.2004
 9643TIP3    H150344   3.414   0.790   2.309 -0.3765 -1.4897 -2.6051
 9643TIP3    H250345   3.455   0.648   2.341 -0.0006 -1.3415 -2.4237
 9644TIP3   OH250346   1.047   2.807  16.949 -0.2743  0.0565  0.1293
 9644TIP3    H150347   1.072   2.860  17.024  1.2685 -2.0729  1.1832
 9644TIP3    H250348   0.955   2.785  16.964 -0.3644  0.7963  0.6658
 9645TIP3   OH250349   3.539   6.115   5.398  0.5764 -0.1414  0.0538
 9645TIP3    H150350   3.497   6.201   5.394  0.0742 -0.3507  0.6776
 9645TIP3    H250351   3.625   6.129   5.359  0.1291  0.4175 -0.7572
 9646TIP3   OH250352   3.574   2.294  16.323  0.1448  0.6816  0.1213
 9646TIP3    H150353   3.566   2.380  16.283 -0.4281 -0.0507 -1.3994
 9646TIP3    H250354   3.483   2.263  16.332  0.3488  0.1775  0.4877
 9647TIP3   OH250355   2.924   6.218   3.849  0.0434 -0.1049 -0.5532
 9647TIP3    H150356   2.841   6.238   3.805 -0.3731 -0.6042 -0.0089
 9647TIP3    H250357   2.898   6.168   3.927  0.7151  1.2236  0.5521
 9648TIP3   OH250358   3.652   1.453   5.322  0.7784  0.0311 -0.8990
 9648TIP3    H150359   3.619   1.363   5.320 -0.5650  0.4847 -0.0012
 9648TIP3    H250360   3.655   1.476   5.415 -0.6448  1.5353 -1.2017
 9649TIP3   OH250361   1.762   2.206   1.353 -0.0539 -0.5749  0.0786
 9649TIP3    H150362   1.857   2.195   1.364  0.0616  0.6318  0.3913
 9649TIP3    H250363   1.731   2.120   1.323  1.3324 -0.6077 -1.3404
 9650TIP3   OH250364   6.047   1.243  11.960  0.3762 -0.4738  0.0031
 9650TIP3    H150365   6.128   1.259  12.008  0.6053 -2.1066  0.1971
 9650TIP3    H250366   5.997   1.183  12.015  0.0180 -1.2398 -1.1388
 9651TIP3   OH250367   5.929   3.632  13.254 -0.5708  0.7944 -0.4596
 9651TIP3    H150368   5.845   3.589  13.274  0.0324 -0.6293 -0.9335
 9651TIP3    H250369   5.985   3.561  13.224  0.6462  1.8387 -0.6655
 9652TIP3   OH250370   2.713   3.531  12.531  0.0982 -0.2754 -0.2090
 9652TIP3    H150371   2.696   3.445  12.570 -3.5285  0.3113 -0.3590
 9652TIP3    H250372   2.724   3.590  12.605  1.3781 -0.6066 -0.1167
 9653TIP3   OH250373   1.693   5.335   2.408  0.0606  0.4851  0.1761
 9653TIP3    H150374   1.782   5.310   2.432 -0.1031 -0.9420 -0.6827
 9653TIP3    H250375   1.677   5.416   2.458  1.9950  1.0282 -0.0435
 9654TIP3   OH250376   5.530   4.154   0.981  0.3085 -0.0946  0.1851
 9654TIP3    H150377   5.618   4.191   0.989 -1.1695  4.2562 -1.6192
 9654TIP3    H250378   5.485   4.183   1.060 -0.3931  0.5729 -0.4450
 9655TIP3   OH250379   4.172   0.191  12.999 -0.0571 -0.7798  0.3661
 9655TIP3    H150380   4.256   0.157  12.968 -0.4172 -1.7156  0.3938
 9655TIP3    H250381   4.113   0.182  12.925  0.6394  2.9120 -0.7403
 9656TIP3   OH250382   5.676   6.035   1.070  0.3438 -0.4095  0.2854
 9656TIP3    H150383   5.729   5.966   1.031 -1.3584 -1.3383 -0.4740
 9656TIP3    H250384   5.586   6.007   1.055 -0.3666  0.4699  2.6956
 9657TIP3   OH250385   5.325   2.979   1.130 -0.0718  0.3469 -0.0504
 9657TIP3    H150386   5.269   2.922   1.182  0.6103  0.5662  0.9452
 9657TIP3    H250387   5.284   2.981   1.044 -0.9840 -0.3597  0.3575
 9658TIP3   OH250388   4.351   3.301   3.278  0.6323 -0.0829 -0.3094
 9658TIP3    H150389   4.285   3.289   3.346 -0.1484  1.4230 -0.7701
 9658TIP3    H250390   4.434   3.301   3.325  0.1497  0.2184  0.5564
 9659TIP3   OH250391   1.239   6.092   2.205 -0.2680 -0.1981 -0.2198
 9659TIP3    H150392   1.229   6.000   2.232 -0.6618  0.3153  1.4300
 9659TIP3    H250393   1.223   6.091   2.111 -0.3697 -1.8111 -0.2010
 9660TIP3   OH250394   6.327   6.405   5.803 -0.2263  0.2412  0.1292
 9660TIP3    H150395   6.246   6.443   5.771  0.6569  0.9431 -1.3503
 9660TIP3    H250396   6.385   6.405   5.727  0.8024 -1.2607  0.8772
 9661TIP3   OH250397   0.308   1.687  11.127 -0.3378 -0.7779 -0.6691
 9661TIP3    H150398   0.334   1.715  11.040  1.1697  1.9541  0.6149
 9661TIP3    H250399   0.371   1.619  11.151  0.6535  0.0900 -0.8107
 9662TIP3   OH250400   3.221   2.852  16.313 -0.3751  0.7905  0.6973
 9662TIP3    H150401   3.188   2.766  16.342  0.3936  0.1836 -0.1820
 9662TIP3    H250402   3.305   2.832  16.272 -0.4231  1.9132  0.0471
 9663TIP3   OH250403   4.542   6.421   2.154  0.5483 -0.1248 -0.2157
 9663TIP3    H150404   4.500   6.393   2.072 -0.0561  0.2921 -0.0481
 9663TIP3    H250405   4.539   6.343   2.209  0.5151 -0.2657 -0.4137
 9664TIP3   OH250406   5.443   4.456   4.244  0.6696 -0.7608 -0.4119
 9664TIP3    H150407   5.418   4.435   4.334 -1.1554  1.2219 -0.4191
 9664TIP3    H250408   5.490   4.539   4.251  2.2701 -1.5932 -1.0818
 9665TIP3   OH250409   3.342   1.294   2.993 -0.0113 -0.4621 -0.1092
 9665TIP3    H150410   3.297   1.337   3.066 -0.2021 -1.5331  0.4075
 9665TIP3    H250411   3.434   1.298   3.017 -0.0934 -1.0475  0.3281
 9666TIP3   OH250412   4.104   6.649  17.182 -0.2679  0.4870  0.5205
 9666TIP3    H150413   4.118   6.728  17.234 -1.6684  0.1032  1.5233
 9666TIP3    H250414   4.133   6.672  17.094  0.2247  1.8032  1.0162
 9667TIP3   OH250415   3.811   4.672   3.984 -0.3279  0.2443 -0.2593
 9667TIP3    H150416   3.795   4.588   4.026 -0.8139  0.6090  0.2830
 9667TIP3    H250417   3.898   4.698   4.016  0.2299 -0.4695 -1.1378
 9668TIP3   OH250418   3.818   4.620   3.296 -0.5254 -0.1503  0.2860
 9668TIP3    H150419   3.771   4.675   3.359  0.3358 -0.8201  1.5317
 9668TIP3    H250420   3.887   4.677   3.261  0.2280 -0.3585  1.4137
 9669TIP3   OH250421   0.006   4.246  15.822 -0.1823 -0.4132  0.4435
 9669TIP3    H150422  -0.082   4.266  15.853 -0.6102 -1.1581 -0.2632
 9669TIP3    H250423   0.015   4.151  15.836 -0.4312 -0.7978 -1.7586
 9670TIP3   OH250424   0.569   3.404  15.477  0.0926 -0.4867  0.0413
 9670TIP3    H150425   0.503   3.473  15.477  1.6368  1.0372 -1.0025
 9670TIP3    H250426   0.535   3.338  15.537 -2.8616 -0.2361 -1.2977
 9671TIP3   OH250427   1.378   1.539   5.668  0.3956 -0.1357 -0.3323
 9671TIP3    H150428   1.399   1.626   5.703 -0.6599 -0.5755  1.4007
 9671TIP3    H250429   1.346   1.557   5.579 -0.3958  1.3040  0.2216
 9672TIP3   OH250430   4.227   3.163  10.561 -0.2925  0.3629  0.2645
 9672TIP3    H150431   4.283   3.086  10.568 -0.3121  0.3534  0.3142
 9672TIP3    H250432   4.139   3.128  10.550 -0.3773  0.3782  0.8701
 9673TIP3   OH250433   1.831   4.909   4.931 -0.2474 -0.0595  0.2364
 9673TIP3    H150434   1.887   4.986   4.940 -0.3305  0.1040 -0.5804
 9673TIP3    H250435   1.774   4.912   5.008 -0.5778  0.9631 -0.0454
 9674TIP3   OH250436   0.683   6.707   1.239 -0.4555  0.3170  0.1122
 9674TIP3    H150437   0.707   6.654   1.162 -3.3637  0.1297 -0.7283
 9674TIP3    H250438   0.659   6.643   1.305  1.1125  0.5099  0.8987
 9675TIP3   OH250439   0.342   0.528  15.688  0.1885 -0.0037 -0.5947
 9675TIP3    H150440   0.396   0.576  15.750 -0.3156  0.9912 -0.9047
 9675TIP3    H250441   0.320   0.446  15.733  2.2484 -0.5985 -0.6164
 9676TIP3   OH250442   0.423   1.004   0.009 -0.1522  0.6289  0.8865
 9676TIP3    H150443   0.441   0.930  -0.049  1.8230  1.6158  0.1826
 9676TIP3    H250444   0.328   1.003   0.020 -0.1330 -2.1299  1.0918
 9677TIP3   OH250445   0.709   3.351   1.116 -0.0643 -0.6765  0.0010
 9677TIP3    H150446   0.696   3.340   1.210 -1.3608  1.1476  0.0769
 9677TIP3    H250447   0.628   3.320   1.077 -0.2810  0.3076 -0.3591
 9678TIP3   OH250448   0.117   5.855   6.467  0.2881  0.0699  0.4443
 9678TIP3    H150449   0.151   5.766   6.463  2.6015  0.7537  2.9345
 9678TIP3    H250450   0.042   5.850   6.526  0.3108 -0.2970  0.4414
 9679TIP3   OH250451   0.665   0.168   2.261 -0.3151  0.1988  0.0966
 9679TIP3    H150452   0.705   0.174   2.348 -1.8711  1.1056  0.7734
 9679TIP3    H250453   0.602   0.096   2.268  0.0493 -0.1744 -0.4832
 9680TIP3   OH250454   4.032   4.497   0.003 -0.5405 -0.2082 -0.2700
 9680TIP3    H150455   3.980   4.477   0.080 -0.7720  0.7884 -0.1571
 9680TIP3    H250456   4.034   4.593  -0.001  0.6393 -0.2347 -0.7044
 9681TIP3   OH250457   3.827   4.931   1.506  0.3078  0.0164 -0.5535
 9681TIP3    H150458   3.736   4.902   1.509  0.4575 -0.4637 -0.5910
 9681TIP3    H250459   3.875   4.855   1.475  0.6758  0.3823 -0.8952
 9682TIP3   OH250460   4.525   6.670  12.446 -0.0036 -0.0176  0.3901
 9682TIP3    H150461   4.580   6.591  12.441  0.3800  0.1980  1.0270
 9682TIP3    H250462   4.516   6.700  12.356  0.0183 -0.6802  0.1676
 9683TIP3   OH250463   1.130   3.948  12.399  0.2205  0.8041 -0.2538
 9683TIP3    H150464   1.087   3.864  12.383  0.8625  0.3195  0.5440
 9683TIP3    H250465   1.181   3.964  12.320  2.0788 -0.7831  0.5940
 9684TIP3   OH250466   2.243   3.111  13.053  0.3179  0.4714  0.0836
 9684TIP3    H150467   2.224   3.187  12.999 -0.3975 -0.9071 -1.6573
 9684TIP3    H250468   2.165   3.101  13.108 -1.0062 -0.8678 -1.9523
 9685TIP3   OH250469   3.510   6.040   6.409 -0.4021 -0.2220 -0.4253
 9685TIP3    H150470   3.490   5.963   6.355 -1.0540 -0.2998 -0.0784
 9685TIP3    H250471   3.604   6.033   6.427 -0.0663  0.0938 -1.9925
 9686TIP3   OH250472   4.294   5.999  12.486  0.1061  0.4768  0.0427
 9686TIP3    H150473   4.279   6.069  12.550 -0.9783  0.4245 -0.1425
 9686TIP3    H250474   4.331   5.927  12.538 -1.6037  0.1082  0.8145
 9687TIP3   OH250475   1.618   2.773   5.212 -0.0778 -0.3515 -0.2358
 9687TIP3    H150476   1.674   2.792   5.137 -1.4209 -1.9832 -1.7253
 9687TIP3    H250477   1.666   2.707   5.262 -0.0286 -0.7038 -0.7432
 9688TIP3   OH250478   6.415   0.073  10.303 -0.1751 -0.1190  0.4494
 9688TIP3    H150479   6.360   0.016  10.357 -1.3772  0.7898  0.2289
 9688TIP3    H250480   6.405   0.160  10.342  0.6730  0.1531  0.0673
 9689TIP3   OH250481   0.548   3.154  13.990 -0.5951  0.4088 -0.7960
 9689TIP3    H150482   0.590   3.218  14.049 -1.3681 -0.3615  0.6129
 9689TIP3    H250483   0.622   3.110  13.947  0.0419 -0.0106  0.6772
 9690TIP3   OH250484   0.036   5.679   3.648 -0.1582  0.0402 -0.2634
 9690TIP3    H150485   0.036   5.617   3.720  0.8930  0.4409  0.0988
 9690TIP3    H250486   0.057   5.763   3.689  3.7278 -0.2548 -1.4087
 9691TIP3   OH250487   4.547   6.566   1.313 -0.0464  0.2383  0.0764
 9691TIP3    H150488   4.452   6.574   1.306 -0.2232 -0.9686  0.9956
 9691TIP3    H250489   4.566   6.588   1.404  0.4697 -0.4102  0.1246
 9692TIP3   OH250490   2.961   4.248  11.880  0.2454  0.2091 -0.0852
 9692TIP3    H150491   3.030   4.183  11.895  1.0857  0.4159 -2.8533
 9692TIP3    H250492   2.984   4.321  11.938  0.9086 -0.7560  0.8916
 9693TIP3   OH250493   2.600   0.317  12.043 -0.0806  0.1652  0.0211
 9693TIP3    H150494   2.644   0.362  12.115 -0.5305 -1.4677  1.3419
 9693TIP3    H250495   2.596   0.225  12.071 -1.3858 -0.2686 -1.5273
 9694TIP3   OH250496   3.208   2.280  10.811  0.2923 -0.1949 -0.3500
 9694TIP3    H150497   3.204   2.363  10.763  0.6426 -0.9639 -1.7460
 9694TIP3    H250498   3.189   2.304  10.902 -0.7652  1.2430 -0.9206
 9695TIP3   OH250499   2.566   2.767   2.145 -0.5285  0.1310 -0.0155
 9695TIP3    H150500   2.509   2.710   2.094 -1.7906  1.1656  0.2186
 9695TIP3    H250501   2.567   2.729   2.233  0.5966 -0.9047 -0.4616
 9696TIP3   OH250502   1.777   2.967   2.879  0.0103 -0.1463 -0.3040
 9696TIP3    H150503   1.739   3.007   2.801 -1.3098  1.9085  1.3437
 9696TIP3    H250504   1.802   3.041   2.935  2.0611 -1.5550  0.7243
 9697TIP3   OH250505   0.448   5.648  16.420 -0.0483  0.1736  0.6511
 9697TIP3    H150506   0.532   5.625  16.379  1.4817  2.3921  2.3904
 9697TIP3    H250507   0.429   5.574  16.477  0.9254 -0.2199  0.4860
 9698TIP3   OH250508   2.805   6.008   2.790 -0.3806 -0.6176  0.0470
 9698TIP3    H150509   2.863   6.081   2.813  0.8580 -1.5105 -0.1632
 9698TIP3    H250510   2.719   6.034   2.823  0.3013  0.3996  1.0634
 9699TIP3   OH250511   6.466   3.529  15.403  0.3028 -0.1074 -0.5030
 9699TIP3    H150512   6.476   3.613  15.448  0.1752 -0.0329 -0.6127
 9699TIP3    H250513   6.528   3.532  15.330  0.8629 -0.4298 -0.0378
 9700TIP3   OH250514   4.207   4.807   4.526  0.5655  0.0058 -0.2191
 9700TIP3    H150515   4.264   4.814   4.449 -0.9064 -0.1416 -1.3540
 9700TIP3    H250516   4.145   4.737   4.504 -0.5240  0.6701  0.6488
 9701TIP3   OH250517   5.691   5.611  16.556  0.0301  0.5631 -0.3020
 9701TIP3    H150518   5.629   5.653  16.615 -1.4084  0.3445 -1.6136
 9701TIP3    H250519   5.767   5.592  16.610 -1.6827 -0.6504  1.7340
 9702TIP3   OH250520   5.395   5.952  14.141  0.7150  0.2396 -0.4227
 9702TIP3    H150521   5.366   5.878  14.088 -1.1284  0.4742  0.2218
 9702TIP3    H250522   5.489   5.958  14.124  0.4775 -0.7988 -2.2665
 9703TIP3   OH250523   6.143   6.661   5.140 -0.0614 -0.2618 -0.2781
 9703TIP3    H150524   6.217   6.670   5.079  0.4448  0.8128  0.4803
 9703TIP3    H250525   6.082   6.730   5.114  0.0766  0.0855  0.3080
 9704TIP3   OH250526   1.471   2.448   4.811  0.7190 -0.7209  0.1747
 9704TIP3    H150527   1.475   2.543   4.811 -0.1549 -0.6762  1.1635
 9704TIP3    H250528   1.556   2.420   4.846  1.0018 -0.3070 -0.1859
 9705TIP3   OH250529   1.323   1.646  13.535 -0.4818  0.6178 -0.0512
 9705TIP3    H150530   1.270   1.679  13.462 -0.3678  2.6234  0.7284
 9705TIP3    H250531   1.267   1.656  13.612  0.3022  0.8980  0.4904
 9706TIP3   OH250532   1.872   4.355   0.469 -0.1983 -0.4276 -0.5144
 9706TIP3    H150533   1.930   4.316   0.403 -0.3775 -0.4207 -0.6783
 9706TIP3    H250534   1.818   4.416   0.420  1.7427  1.8843  0.1372
 9707TIP3   OH250535   1.618   3.046  12.413 -0.5599  0.3915  0.0016
 9707TIP3    H150536   1.685   3.023  12.478 -1.0693 -0.1838  0.3315
 9707TIP3    H250537   1.540   3.000  12.443 -0.7847  0.0906 -1.0523
 9708TIP3   OH250538   6.279   4.963   5.071  0.0722  0.0345 -0.1162
 9708TIP3    H150539   6.191   4.950   5.037  0.4770  0.0563 -1.2014
 9708TIP3    H250540   6.277   5.050   5.111 -0.2994  0.1824 -0.4601
 9709TIP3   OH250541   0.762   5.297   6.435  0.7644 -0.6095  0.2895
 9709TIP3    H150542   0.797   5.210   6.452  0.4642 -0.7167  0.3655
 9709TIP3    H250543   0.677   5.297   6.479  0.6521 -0.3660  0.0698
 9710TIP3   OH250544   5.682   3.031   3.262 -0.2412  0.3454  0.0947
 9710TIP3    H150545   5.639   3.099   3.313 -1.2491 -0.5940  0.4896
 9710TIP3    H250546   5.717   2.970   3.326  0.5638  0.4240 -0.2623
 9711TIP3   OH250547   1.226   5.013   4.103 -0.4861  0.0832  0.0238
 9711TIP3    H150548   1.143   4.970   4.128 -0.5649  0.2433  0.0389
 9711TIP3    H250549   1.205   5.106   4.104  0.0198  0.1956  1.2411
 9712TIP3   OH250550   0.194   5.397  15.347 -0.5221 -0.2532 -0.3621
 9712TIP3    H150551   0.176   5.419  15.256 -1.1853 -1.8532 -0.6332
 9712TIP3    H250552   0.109   5.371  15.383 -0.1998  0.0070  0.6197
 9713TIP3   OH250553   1.496   2.179  14.469 -0.0749 -0.6391 -0.5682
 9713TIP3    H150554   1.483   2.254  14.526  1.2156  0.3145 -1.4906
 9713TIP3    H250555   1.408   2.154  14.440 -0.4357  1.2286 -1.1548
 9714TIP3   OH250556   6.500   4.920  14.433  0.1978 -0.3680 -0.0380
 9714TIP3    H150557   6.455   5.001  14.458 -1.2665 -1.6118  1.4203
 9714TIP3    H250558   6.592   4.936  14.457 -0.6327 -0.3549  3.3299
 9715TIP3   OH250559   0.478   0.644   4.506 -0.5417 -0.1532 -0.3158
 9715TIP3    H150560   0.510   0.556   4.488 -0.4648  0.0376 -1.1343
 9715TIP3    H250561   0.399   0.631   4.559 -0.9635 -0.7425 -1.0801
 9716TIP3   OH250562   4.274   5.604  14.738 -0.9784  0.3500  0.3571
 9716TIP3    H150563   4.321   5.590  14.655 -0.1670  0.2126  0.8379
 9716TIP3    H250564   4.252   5.516  14.768 -1.5261  0.4135  0.1416
 9717TIP3   OH250565   2.007   1.378   1.872 -0.0715  0.3119  0.2647
 9717TIP3    H150566   1.916   1.386   1.843  0.0506  1.5147  0.1969
 9717TIP3    H250567   2.020   1.452   1.931  0.4926 -0.5699  1.2682
 9718TIP3   OH250568   4.324   6.646   6.061  0.1760 -0.3497  0.0224
 9718TIP3    H150569   4.351   6.630   6.151  0.1436  0.6364  0.2102
 9718TIP3    H250570   4.324   6.741   6.052  1.7374 -0.4764 -1.5084
 9719TIP3   OH250571   2.570   2.344   2.552  0.5736 -0.0376 -0.3966
 9719TIP3    H150572   2.636   2.278   2.576  1.0925  0.2652 -0.9714
 9719TIP3    H250573   2.616   2.402   2.491  0.2490  1.1049  0.4226
 9720TIP3   OH250574   0.332   0.853   2.313  0.5631 -0.2987  0.4936
 9720TIP3    H150575   0.330   0.779   2.374 -2.1612 -1.9660 -1.4910
 9720TIP3    H250576   0.250   0.900   2.330 -0.0034 -0.5239 -1.5881
 9721TIP3   OH250577   3.970   5.394   6.671  0.0617 -0.4427 -0.5941
 9721TIP3    H150578   3.907   5.328   6.641  1.7200 -1.7989 -1.1629
 9721TIP3    H250579   4.055   5.361   6.642  0.8471  2.4425 -1.7602
 9722TIP3   OH250580   6.600   4.736  16.137  0.2924 -0.6196 -0.1447
 9722TIP3    H150581   6.608   4.831  16.146 -1.0756 -0.5161  0.1502
 9722TIP3    H250582   6.651   4.700  16.209  0.2681 -0.0861  0.1452
 9723TIP3   OH250583   3.379   2.255  15.937 -0.3090 -0.1562  0.0756
 9723TIP3    H150584   3.443   2.188  15.961 -0.4783 -0.2905  0.1571
 9723TIP3    H250585   3.298   2.226  15.980 -0.3704  0.1254  0.1476
 9724TIP3   OH250586   4.537   1.179  10.894 -0.5329 -0.4698  0.2105
 9724TIP3    H150587   4.617   1.206  10.849 -1.8049  1.0511 -1.2073
 9724TIP3    H250588   4.566   1.113  10.957  2.4112  2.5782  2.2338
 9725TIP3   OH250589   5.369   4.728   3.520 -0.0116 -0.0286 -0.0023
 9725TIP3    H150590   5.304   4.657   3.523  1.0046 -0.9833 -0.2599
 9725TIP3    H250591   5.330   4.798   3.573  0.2927 -1.9132  2.8366
 9726TIP3   OH250592   3.638   3.121   4.977 -0.0118 -0.2773  0.0790
 9726TIP3    H150593   3.721   3.170   4.972 -0.1566  0.1601  1.5918
 9726TIP3    H250594   3.626   3.085   4.889  0.9122  1.0940 -0.6353
 9727TIP3   OH250595   1.364   5.961  12.904 -0.0100 -0.6615  0.0385
 9727TIP3    H150596   1.439   5.910  12.935  0.0641 -0.2790  0.4900
 9727TIP3    H250597   1.308   5.971  12.982 -0.0447 -0.0926 -0.0559
 9728TIP3   OH250598   1.593   2.728  12.087 -0.3773  0.1611  0.4884
 9728TIP3    H150599   1.526   2.660  12.074  1.0609 -1.3719  0.9636
 9728TIP3    H250600   1.555   2.806  12.046 -0.7265 -1.6961 -2.9565
 9729TIP3   OH250601   0.787   2.265   2.351  0.0386  0.7155 -0.5967
 9729TIP3    H150602   0.726   2.338   2.340 -1.9938 -1.1313 -1.9762
 9729TIP3    H250603   0.757   2.199   2.288  2.9045 -0.6199 -0.6419
 9730TIP3   OH250604   0.109   1.097   1.663  0.5846  0.8595 -0.4102
 9730TIP3    H150605   0.193   1.143   1.669  0.1722  1.7127 -0.9834
 9730TIP3    H250606   0.046   1.165   1.639 -0.4322  0.3929  0.8833
 9731TIP3   OH250607   0.447   0.185  14.833  0.1108  0.4412  0.3164
 9731TIP3    H150608   0.450   0.279  14.855  0.3737  0.7732 -1.0632
 9731TIP3    H250609   0.416   0.183  14.743  0.3802 -0.7886  0.2461
 9732TIP3   OH250610   4.833   1.127  12.184 -0.4458  0.1133 -0.0252
 9732TIP3    H150611   4.751   1.118  12.233 -0.9512  1.5869 -0.5797
 9732TIP3    H250612   4.809   1.176  12.106  1.2718  2.1133  0.6522
 9733TIP3   OH250613   4.701   4.434  13.667 -0.6640 -0.9046  0.0340
 9733TIP3    H150614   4.668   4.468  13.750  1.4929  1.5326 -0.0227
 9733TIP3    H250615   4.705   4.340  13.679 -3.6394 -0.8957  1.4394
 9734TIP3   OH250616   3.022   2.642   1.349  0.4407  0.4752 -0.1214
 9734TIP3    H150617   3.095   2.659   1.408  1.1116 -1.0195 -0.4853
 9734TIP3    H250618   3.018   2.718   1.291  3.3517 -0.5370 -1.7588
 9735TIP3   OH250619   1.984   3.223  15.346  0.0385  0.1355  0.1119
 9735TIP3    H150620   1.931   3.211  15.267  0.4501  1.1290 -0.3283
 9735TIP3    H250621   1.924   3.202  15.418 -0.9880  1.3458 -0.3691
 9736TIP3   OH250622   6.066   2.390   0.323  0.1623  0.1814  0.4334
 9736TIP3    H150623   6.060   2.477   0.283  1.9453  0.4743  0.7945
 9736TIP3    H250624   5.981   2.350   0.304 -1.2610  2.5480  1.5674
 9737TIP3   OH250625   3.999   0.495   3.338 -0.2407  0.9010  0.0185
 9737TIP3    H150626   4.091   0.482   3.316 -0.4780  2.5553 -2.0824
 9737TIP3    H250627   3.953   0.480   3.256 -1.9468 -0.6349  1.2120
 9738TIP3   OH250628   5.282   2.749  14.369 -0.4316  0.0993 -0.4283
 9738TIP3    H150629   5.349   2.685  14.347  0.6479  0.7383  0.8682
 9738TIP3    H250630   5.299   2.770  14.461 -2.6070  0.0556 -0.0035
 9739TIP3   OH250631   0.049   4.731  10.357 -0.2324  0.0422  0.0078
 9739TIP3    H150632   0.117   4.795  10.376 -1.7996  1.4302  1.0399
 9739TIP3    H250633  -0.027   4.760  10.407 -1.0910 -2.4267  0.2311
 9740TIP3   OH250634   5.469   2.294   0.871  0.1722  0.4006  0.0757
 9740TIP3    H150635   5.512   2.209   0.862 -2.4323 -0.7971 -1.6850
 9740TIP3    H250636   5.521   2.353   0.817 -0.6367 -1.1325 -2.4374
 9741TIP3   OH250637   0.657   1.345  11.533  0.6202  0.0392 -0.2229
 9741TIP3    H150638   0.600   1.371  11.461  0.9327  1.2428 -0.0523
 9741TIP3    H250639   0.700   1.426  11.560  2.2307 -0.8024 -0.1890
 9742TIP3   OH250640   5.710   2.995   0.899 -0.0427  0.8965  0.1647
 9742TIP3    H150641   5.728   3.086   0.924 -0.7236  0.7562  1.1736
 9742TIP3    H250642   5.641   3.002   0.833  0.1195  1.1242  0.0164
 9743TIP3   OH250643   4.683   0.481  15.547  0.0729 -0.2539 -0.3076
 9743TIP3    H150644   4.716   0.560  15.589  0.7328 -0.9025  0.4033
 9743TIP3    H250645   4.730   0.476  15.464  1.4663 -0.9370  0.5074
 9744TIP3   OH250646   6.355   2.633   5.725 -0.2867  0.2946  0.5892
 9744TIP3    H150647   6.390   2.694   5.660  0.3217  0.1071  0.7409
 9744TIP3    H250648   6.431   2.602   5.774 -0.4831 -1.2101 -0.0149
 9745TIP3   OH250649   6.135   2.184   1.218 -0.1137 -0.1911 -0.7068
 9745TIP3    H150650   6.113   2.094   1.193 -0.2917 -0.6943  1.1688
 9745TIP3    H250651   6.074   2.205   1.288  1.9802  0.2216  1.0496
 9746TIP3   OH250652   3.675   2.561  12.722  0.0274  0.1160  0.1979
 9746TIP3    H150653   3.733   2.633  12.696  0.0630 -0.6753 -2.0476
 9746TIP3    H250654   3.734   2.491  12.747  0.0923 -0.5806 -1.7848
 9747TIP3   OH250655   4.051   0.980  17.201  0.7820 -0.1717 -0.3795
 9747TIP3    H150656   4.085   1.017  17.283  0.2900 -0.1316 -0.1906
 9747TIP3    H250657   4.129   0.947  17.156  1.0293 -0.4213  0.2218
 9748TIP3   OH250658   4.312   1.288   5.519  0.0648  0.1193 -0.2878
 9748TIP3    H150659   4.339   1.380   5.514  0.4986  0.0003 -0.0504
 9748TIP3    H250660   4.231   1.285   5.466 -1.2253  1.1110  1.5600
 9749TIP3   OH250661   5.503   0.894  15.642  0.5417  0.0505 -0.0140
 9749TIP3    H150662   5.524   0.955  15.571  0.4465 -0.0320 -0.1128
 9749TIP3    H250663   5.588   0.877  15.684  0.5189  0.5110  0.2264
 9750TIP3   OH250664   3.861   6.266   4.863 -0.7090  0.4055 -0.2415
 9750TIP3    H150665   3.895   6.235   4.779 -2.5882  0.9282 -1.2366
 9750TIP3    H250666   3.787   6.322   4.839 -0.4122  1.6791  1.7271
 9751TIP3   OH250667   6.535   5.451  13.187  0.3480 -0.2508  0.0441
 9751TIP3    H150668   6.481   5.404  13.250  1.5112 -0.3910  0.9447
 9751TIP3    H250669   6.505   5.420  13.101 -0.6349 -0.7080  0.5491
 9752TIP3   OH250670   6.001   6.079   2.176  0.0892  0.1442  0.2188
 9752TIP3    H150671   6.031   6.145   2.238 -0.2876 -0.4354  1.0268
 9752TIP3    H250672   6.044   5.998   2.203 -1.5094 -0.5151  0.8839
 9753TIP3   OH250673   2.281   2.169  11.852 -0.7054 -0.1979  0.4290
 9753TIP3    H150674   2.282   2.089  11.799 -0.7807 -0.2768  0.5476
 9753TIP3    H250675   2.198   2.165  11.899 -0.5281 -0.2450  0.7347
 9754TIP3   OH250676   4.072   6.646   4.514  0.5283 -0.0248  0.2353
 9754TIP3    H150677   4.097   6.606   4.431  0.2913 -0.1371  0.2193
 9754TIP3    H250678   4.094   6.738   4.504 -0.4847  0.1547 -0.3318
 9755TIP3   OH250679   0.123   3.639  15.906  0.0822 -0.1059 -0.0552
 9755TIP3    H150680   0.094   3.636  15.997 -0.3850  0.3615 -0.1854
 9755TIP3    H250681   0.045   3.667  15.857  1.2532  3.1294 -0.1999
 9756TIP3   OH250682   4.945   2.241   4.919  0.1462 -0.1230  0.5855
 9756TIP3    H150683   4.982   2.263   5.004 -1.4111  0.4313  1.1260
 9756TIP3    H250684   4.937   2.326   4.874  1.6761 -0.4824 -0.4384
 9757TIP3   OH250685   0.023   2.433  12.818 -0.2205  0.2741 -0.3839
 9757TIP3    H150686   0.083   2.367  12.851 -0.7843 -0.4321 -0.7657
 9757TIP3    H250687   0.050   2.514  12.862  0.9678 -0.0449 -0.5211
 9758TIP3   OH250688   6.549   1.330  16.781 -0.1120 -0.5157  0.2365
 9758TIP3    H150689   6.491   1.281  16.839  0.4704 -2.3233 -0.6576
 9758TIP3    H250690   6.501   1.339  16.699  0.6956 -1.7158 -0.3919
 9759TIP3   OH250691   5.548   4.384   1.989  0.0478  0.3070 -0.6392
 9759TIP3    H150692   5.617   4.331   2.029 -0.4306 -1.0753 -1.5910
 9759TIP3    H250693   5.546   4.355   1.898 -2.0343  0.0730 -0.5294
 9760TIP3   OH250694   4.162   2.208  16.817 -0.8328  0.6779 -0.2049
 9760TIP3    H150695   4.181   2.293  16.777 -0.7794  1.1078  0.7055
 9760TIP3    H250696   4.076   2.219  16.857 -1.0569  0.1346 -0.5325
 9761TIP3   OH250697   5.053   4.690   6.413  0.0135 -0.0259  0.5968
 9761TIP3    H150698   4.960   4.665   6.406  0.0618  0.1421 -0.8147
 9761TIP3    H250699   5.054   4.784   6.395  0.3291  0.2082  1.7945
 9762TIP3   OH250700   1.174   5.724  14.548 -0.4906 -0.4918 -0.1745
 9762TIP3    H150701   1.184   5.629  14.551  1.5207 -0.4004 -2.4682
 9762TIP3    H250702   1.253   5.758  14.589 -1.4788  0.2385  1.1935
 9763TIP3   OH250703   6.403   2.324   2.082  0.1532  0.2418  0.0989
 9763TIP3    H150704   6.474   2.300   2.023 -0.3721 -0.7122 -0.1546
 9763TIP3    H250705   6.323   2.304   2.033 -0.2836 -0.5009  1.0943
 9764TIP3   OH250706   3.766   1.886   0.809  0.1042  0.1783  0.3954
 9764TIP3    H150707   3.776   1.790   0.814 -0.3811  0.0406 -1.1085
 9764TIP3    H250708   3.781   1.916   0.899 -3.2117 -1.6309  1.6440
 9765TIP3   OH250709   4.062   0.613  15.689  0.6386 -0.0663 -0.7259
 9765TIP3    H150710   4.097   0.648  15.606 -0.5667 -1.5850 -1.8932
 9765TIP3    H250711   4.022   0.689  15.731  1.5956  0.8045 -1.3439
 9766TIP3   OH250712   3.867   3.427  14.537 -0.8206 -0.1686  0.4739
 9766TIP3    H150713   3.826   3.489  14.598 -2.7536 -1.9590  1.0496
 9766TIP3    H250714   3.806   3.424  14.463  0.3700  0.2385 -0.5429
 9767TIP3   OH250715   5.853   2.714  16.205  0.3139  0.3349  0.3210
 9767TIP3    H150716   5.901   2.674  16.133  0.3878  1.2078 -0.1095
 9767TIP3    H250717   5.858   2.649  16.276  0.0698 -0.6092 -0.5193
 9768TIP3   OH250718   4.400   4.574  13.957  0.4250 -0.3470  0.0397
 9768TIP3    H150719   4.314   4.605  13.986 -0.0699  0.0884 -1.8380
 9768TIP3    H250720   4.410   4.489  14.000 -1.4832 -0.9575 -0.6733
 9769TIP3   OH250721   4.957   0.623   5.306 -0.1329 -0.8579  0.2200
 9769TIP3    H150722   4.974   0.572   5.385 -0.6221 -0.6424  0.4603
 9769TIP3    H250723   4.903   0.565   5.252 -0.2251 -0.8073  0.2587
 9770TIP3   OH250724   0.655   3.446  11.555 -0.5298  0.4555 -0.1718
 9770TIP3    H150725   0.581   3.386  11.566 -0.2033  0.3760  1.7210
 9770TIP3    H250726   0.731   3.389  11.547 -0.7203  0.5173 -2.7727
 9771TIP3   OH250727   1.094   2.867  13.033 -0.5362 -0.3376  0.1825
 9771TIP3    H150728   1.019   2.925  13.038 -0.3397  0.0654 -1.4983
 9771TIP3    H250729   1.094   2.820  13.117 -0.6603  2.1082  1.5820
 9772TIP3   OH250730   2.194   2.441   4.553 -0.2263  0.0671 -0.3184
 9772TIP3    H150731   2.252   2.497   4.605  0.5549 -0.1347 -0.9472
 9772TIP3    H250732   2.149   2.387   4.617  0.8971 -0.3386  0.1499
 9773TIP3   OH250733   4.828   1.460   2.894  0.2710 -0.4859  0.7732
 9773TIP3    H150734   4.795   1.461   2.804 -0.7655  0.1285  1.1399
 9773TIP3    H250735   4.921   1.441   2.886  0.0006 -1.3470 -0.3697
 9774TIP3   OH250736   6.168   2.277   3.699  0.0265 -0.5472 -0.0410
 9774TIP3    H150737   6.118   2.251   3.621 -2.8855 -3.3213  2.5842
 9774TIP3    H250738   6.234   2.208   3.708  1.2764  0.5378 -0.8218
 9775TIP3   OH250739   2.371   4.979  12.783  0.0502  0.3709  0.6499
 9775TIP3    H150740   2.326   5.031  12.850  0.0280 -0.2805  1.1550
 9775TIP3    H250741   2.375   5.036  12.706 -1.5143  0.4921  0.6429
 9776TIP3   OH250742   1.638   4.313   3.268  0.0385  0.4832 -0.1495
 9776TIP3    H150743   1.554   4.269   3.255  0.6731 -0.8383  0.1897
 9776TIP3    H250744   1.649   4.366   3.189 -1.1945  0.8085 -0.1217
 9777TIP3   OH250745   4.940   2.441   3.652 -0.1439 -0.4485  0.3997
 9777TIP3    H150746   4.911   2.523   3.611 -0.4296 -0.6314  0.2263
 9777TIP3    H250747   5.034   2.450   3.662 -0.5954  1.3235  3.5597
 9778TIP3   OH250748   6.059   6.481  16.797  0.7314 -0.6899  0.3572
 9778TIP3    H150749   6.017   6.495  16.882  0.2394  2.5101 -0.3402
 9778TIP3    H250750   6.153   6.489  16.815  0.6154  0.2690  0.5557
 9779TIP3   OH250751   5.188   2.138   4.572  0.1169  0.2040 -0.0592
 9779TIP3    H150752   5.281   2.121   4.589  0.5942 -0.6574 -3.1824
 9779TIP3    H250753   5.142   2.078   4.630  1.5678 -1.1221 -0.2327
 9780TIP3   OH250754   0.762   6.236   2.416  0.0395  0.0917  0.1054
 9780TIP3    H150755   0.813   6.317   2.406 -1.9276  1.2798 -0.5347
 9780TIP3    H250756   0.713   6.248   2.497 -0.9853 -0.0610 -0.4894
 9781TIP3   OH250757   3.920   0.874   5.689  0.8710 -0.1686 -0.6087
 9781TIP3    H150758   3.937   0.875   5.784  2.3497 -1.0356 -0.8462
 9781TIP3    H250759   3.994   0.920   5.651  2.2354 -3.0605 -1.5890
 9782TIP3   OH250760   2.243   1.377   3.015  0.3724 -0.0168  0.4000
 9782TIP3    H150761   2.214   1.414   3.098  1.5620  0.7131  0.4909
 9782TIP3    H250762   2.338   1.381   3.018  0.4140  2.4280 -2.0655
 9783TIP3   OH250763   0.009   3.115  13.514 -0.0977  0.6343 -0.3289
 9783TIP3    H150764   0.004   3.095  13.421  0.7740  2.1954 -0.7342
 9783TIP3    H250765  -0.076   3.089  13.550 -0.0475 -0.9854 -1.3476
 9784TIP3   OH250766   2.485   0.883  16.220 -0.0791  0.0855  0.1331
 9784TIP3    H150767   2.515   0.956  16.166 -0.6299 -0.2112 -0.5869
 9784TIP3    H250768   2.449   0.820  16.157  0.0978 -0.6645  0.7714
 9785TIP3   OH250769   5.755   2.568  13.179 -0.5681 -0.1765 -0.1727
 9785TIP3    H150770   5.775   2.477  13.202  2.3072 -0.0055 -1.7801
 9785TIP3    H250771   5.765   2.616  13.261  0.8290 -0.8702  0.0665
 9786TIP3   OH250772   4.043   5.543  15.051 -0.5227  0.3098  0.4799
 9786TIP3    H150773   4.056   5.489  14.973 -0.3851  1.8356 -0.5740
 9786TIP3    H250774   3.955   5.579  15.040 -0.7344  0.0635  1.3297
 9787TIP3   OH250775   0.962   4.449   1.153  0.1650 -0.2989 -0.1555
 9787TIP3    H150776   0.970   4.543   1.137 -0.3126  0.0487  1.6148
 9787TIP3    H250777   1.027   4.410   1.094  0.2624  1.1102 -1.0232
 9788TIP3   OH250778   0.682   6.139   1.062  0.1203 -0.2088  0.0179
 9788TIP3    H150779   0.703   6.228   1.033  0.6111 -0.4351 -0.3263
 9788TIP3    H250780   0.762   6.110   1.107 -0.2698 -0.2354  0.6977
 9789TIP3   OH250781   2.970   3.647  13.189  0.2787 -0.1864  0.1609
 9789TIP3    H150782   2.962   3.742  13.198  0.4994 -0.2520  1.1310
 9789TIP3    H250783   2.882   3.616  13.167  0.2675  0.2730 -0.4345
 9790TIP3   OH250784   2.424   2.593   6.310 -0.1181  0.4745  0.4780
 9790TIP3    H150785   2.406   2.646   6.388  1.7259  0.3586  1.0115
 9790TIP3    H250786   2.519   2.597   6.300 -0.0747 -1.7667 -0.1873
 9791TIP3   OH250787   2.913   1.116  15.281 -0.2365 -0.1915  0.3315
 9791TIP3    H150788   2.966   1.076  15.350  0.2342 -1.4086 -0.7062
 9791TIP3    H250789   2.928   1.210  15.290  2.1855 -0.4981  0.0269
 9792TIP3   OH250790   1.752   6.288  11.647 -0.2622 -0.0513  0.2847
 9792TIP3    H150791   1.826   6.295  11.586 -0.7476  1.1838 -0.1827
 9792TIP3    H250792   1.675   6.276  11.590 -0.5459 -0.2946  0.7166
 9793TIP3   OH250793   3.736   2.324   0.774 -0.6183 -0.0236 -0.4171
 9793TIP3    H150794   3.814   2.343   0.826 -0.1157 -1.0198 -0.8109
 9793TIP3    H250795   3.719   2.405   0.726  0.9430 -0.2320 -1.3339
 9794TIP3   OH250796   6.495   2.167  16.835  0.1887  0.4905  0.2260
 9794TIP3    H150797   6.540   2.116  16.902 -0.3218 -0.2521  0.0083
 9794TIP3    H250798   6.420   2.113  16.810 -1.3579  2.0808  1.2217
 9795TIP3   OH250799   0.026   4.343  13.932 -0.0692 -0.1151 -0.1807
 9795TIP3    H150800   0.019   4.367  13.840 -0.1513 -0.6385 -0.3130
 9795TIP3    H250801   0.070   4.258  13.932 -0.1356 -0.1530  0.2561
 9796TIP3   OH250802   6.030   2.894  14.599  0.1639  0.3208 -0.1633
 9796TIP3    H150803   6.109   2.891  14.654  0.4488  3.3035 -0.3575
 9796TIP3    H250804   6.062   2.874  14.511  0.2320 -1.1544  0.1698
 9797TIP3   OH250805   4.145   1.054   5.097 -0.4157 -0.6141  0.2585
 9797TIP3    H150806   4.215   1.062   5.162  0.3534 -0.2602 -0.6000
 9797TIP3    H250807   4.149   1.136   5.048 -2.6946  0.2341  1.4150
 9798TIP3   OH250808   0.614   5.093  14.875 -0.2315 -0.4166 -0.6519
 9798TIP3    H150809   0.540   5.054  14.923 -0.4085 -1.8218 -2.0333
 9798TIP3    H250810   0.599   5.069  14.784  1.2859  0.3492 -1.1254
 9799TIP3   OH250811   4.509   1.911   3.962 -0.0584  0.1311  1.1039
 9799TIP3    H150812   4.464   1.831   3.934  3.7476 -1.0312 -2.0936
 9799TIP3    H250813   4.515   1.903   4.057 -3.2320 -1.3942  1.2564
 9800TIP3   OH250814   1.033   5.382  15.462  0.1693  1.0620 -0.4024
 9800TIP3    H150815   0.965   5.364  15.397  0.6327  0.6010 -0.7651
 9800TIP3    H250816   1.063   5.295  15.489  1.0206  1.2646 -0.6757
 9801TIP3   OH250817   1.119   3.791   0.546  0.5780  0.1032  0.1181
 9801TIP3    H150818   1.118   3.866   0.606  1.8676  0.7647 -0.6697
 9801TIP3    H250819   1.206   3.793   0.507  0.3712 -1.4074 -0.4294
 9802TIP3   OH250820   3.282   1.115  14.717  0.2304 -0.6158 -0.1215
 9802TIP3    H150821   3.373   1.142  14.723 -0.4798  1.8286  0.1396
 9802TIP3    H250822   3.258   1.127  14.626  0.0222 -0.7642 -0.0875
 9803TIP3   OH250823   6.399   6.126  12.361 -0.2937 -0.6806 -0.3136
 9803TIP3    H150824   6.401   6.062  12.290 -4.3107 -0.5023 -0.6943
 9803TIP3    H250825   6.333   6.093  12.422 -1.0418  2.0563  0.4569
 9804TIP3   OH250826   4.181   3.313   5.765  0.4413  0.3406  0.3192
 9804TIP3    H150827   4.204   3.280   5.852 -1.7313  1.4004  1.3360
 9804TIP3    H250828   4.087   3.294   5.756  0.0916  2.4426 -0.7622
 9805TIP3   OH250829   6.085   4.837   5.302 -0.1088 -0.4444  0.2456
 9805TIP3    H150830   6.169   4.792   5.312 -0.8934 -1.8381  0.7655
 9805TIP3    H250831   6.034   4.779   5.245 -0.8918  0.1444  0.3426
 9806TIP3   OH250832   6.159   2.729  13.891 -0.0390 -0.1366  0.3586
 9806TIP3    H150833   6.092   2.795  13.910 -0.1425 -0.2704  0.4602
 9806TIP3    H250834   6.233   2.756  13.945 -0.9214 -1.4842  2.3056
 9807TIP3   OH250835   3.157   5.388  13.009 -0.0951  1.0046 -0.0530
 9807TIP3    H150836   3.230   5.330  12.989 -2.1827 -1.8598  0.2387
 9807TIP3    H250837   3.171   5.465  12.955  2.3912 -0.0948 -1.0090
 9808TIP3   OH250838   0.627   3.448  14.685 -0.0528 -0.4376  0.6517
 9808TIP3    H150839   0.661   3.517  14.741 -4.3182  1.8212  0.6345
 9808TIP3    H250840   0.606   3.376  14.744  0.0101  0.0864  1.3098
 9809TIP3   OH250841   6.012   2.712   2.713  0.4610 -0.2323  0.2317
 9809TIP3    H150842   5.978   2.732   2.800 -1.2357 -0.2020 -0.4125
 9809TIP3    H250843   5.963   2.634   2.686  0.9489 -0.2204 -0.7163
 9810TIP3   OH250844   4.854   2.489   2.975  0.0989  0.6591 -0.1261
 9810TIP3    H150845   4.889   2.439   2.901 -1.4880  0.0201 -0.4696
 9810TIP3    H250846   4.903   2.456   3.051  0.0065 -0.4667 -0.5398
 9811TIP3   OH250847   5.905   6.390  14.855  0.1998 -0.2560  0.1649
 9811TIP3    H150848   5.856   6.364  14.933  1.4937 -1.5288  0.5820
 9811TIP3    H250849   5.920   6.484  14.866 -0.7442 -0.1728  0.8020
 9812TIP3   OH250850   0.620   0.814   1.548  0.0716  0.4152 -0.0433
 9812TIP3    H150851   0.547   0.792   1.605  0.5148 -0.6931  0.1131
 9812TIP3    H250852   0.617   0.909   1.541 -1.3658  0.3880 -0.0206
 9813TIP3   OH250853   4.662   4.044  12.984  0.1449 -0.0621  0.0833
 9813TIP3    H150854   4.603   4.023  13.057  0.3600  0.3246  0.3681
 9813TIP3    H250855   4.664   4.140  12.982 -2.4102  0.0150 -2.4484
 9814TIP3   OH250856   1.519   5.150  12.776 -0.5134 -0.2867 -0.0697
 9814TIP3    H150857   1.461   5.226  12.779 -0.3154 -0.1735  1.8836
 9814TIP3    H250858   1.469   5.084  12.728 -1.7376  0.2350  0.4478
 9815TIP3   OH250859   2.297   0.049   5.784 -0.2197  0.4957  0.2893
 9815TIP3    H150860   2.258  -0.015   5.724  0.6763 -0.3949  0.6443
 9815TIP3    H250861   2.222   0.096   5.822 -0.9545 -1.2376  1.0139
 9816TIP3   OH250862   1.049   1.668  15.256  0.0280  0.2330  0.0999
 9816TIP3    H150863   0.981   1.648  15.320 -0.7676 -1.6440 -1.2946
 9816TIP3    H250864   1.064   1.762  15.266  0.2830 -0.1099  3.3572
 9817TIP3   OH250865   3.564   1.274  11.171 -0.2442 -0.4854 -0.0080
 9817TIP3    H150866   3.595   1.192  11.134 -2.1423 -0.6375 -1.3534
 9817TIP3    H250867   3.576   1.338  11.101 -1.0611 -0.1429  0.1523
 9818TIP3   OH250868   4.815   1.179  13.033  0.1704  0.1431 -0.3889
 9818TIP3    H150869   4.847   1.211  13.118 -1.1123  0.4502 -0.0083
 9818TIP3    H250870   4.814   1.256  12.977  0.5737  0.0336 -0.5478
 9819TIP3   OH250871   3.336   2.679   0.394  0.1860  0.2501  0.1956
 9819TIP3    H150872   3.250   2.645   0.421  0.0500 -0.7041 -1.4281
 9819TIP3    H250873   3.385   2.602   0.367  0.8446  1.0365 -0.8492
 9820TIP3   OH250874   2.459   6.352  15.339  0.0964 -0.6609  0.0886
 9820TIP3    H150875   2.470   6.367  15.245  2.3747  0.4665  0.5043
 9820TIP3    H250876   2.365   6.362  15.354 -0.2146 -0.3028 -1.9679
 9821TIP3   OH250877   6.619   1.637   5.018  0.0646  0.2806  0.0845
 9821TIP3    H150878   6.624   1.687   5.099 -3.5976  0.7072  0.1384
 9821TIP3    H250879   6.582   1.699   4.954 -2.7714 -1.7162 -0.3124
 9822TIP3   OH250880   2.244   5.194  12.888  0.0043  0.1447 -0.4684
 9822TIP3    H150881   2.178   5.263  12.899  2.3683  2.4740 -0.4074
 9822TIP3    H250882   2.326   5.242  12.873  1.7024 -2.6803 -0.4567
 9823TIP3   OH250883   2.216   0.298   1.823 -0.4296 -0.3078 -0.3613
 9823TIP3    H150884   2.289   0.358   1.834 -1.1554  0.5775 -0.3038
 9823TIP3    H250885   2.213   0.248   1.905  0.2351 -0.4970 -0.4502
 9824TIP3   OH250886   0.102   3.704  12.980  0.1405 -0.2443 -0.2023
 9824TIP3    H150887   0.023   3.665  13.019  0.0904 -0.8801 -0.9314
 9824TIP3    H250888   0.160   3.629  12.965  0.5604  0.1258 -0.4115
 9825TIP3   OH250889   2.583   3.493  14.472 -0.6810 -0.2974 -0.1706
 9825TIP3    H150890   2.648   3.423  14.476 -2.2969 -1.9279 -1.2591
 9825TIP3    H250891   2.625   3.568  14.513  1.3304 -1.7345  0.4667
 9826TIP3   OH250892   0.481   5.395   5.396 -0.1992 -0.0293  0.5043
 9826TIP3    H150893   0.452   5.458   5.462 -3.2398 -2.1823  1.3322
 9826TIP3    H250894   0.497   5.315   5.445 -0.3988 -1.0497 -1.0614
 9827TIP3   OH250895   6.541   5.692  13.342 -0.2766  0.0478 -0.0004
 9827TIP3    H150896   6.614   5.745  13.312 -0.0991 -1.2091 -1.9061
 9827TIP3    H250897   6.540   5.617  13.282 -3.1343  0.0604 -0.0283
 9828TIP3   OH250898   6.160   6.419  11.950 -0.2827 -0.5501 -0.5246
 9828TIP3    H150899   6.206   6.429  11.867 -2.0381 -0.9791 -1.5866
 9828TIP3    H250900   6.188   6.334  11.983  1.7607  0.3810  0.2083
 9829TIP3   OH250901   5.735   0.268  14.757  0.2836  0.4174  0.2725
 9829TIP3    H150902   5.736   0.183  14.801  1.3387  0.9738  1.3551
 9829TIP3    H250903   5.727   0.246  14.664 -1.1763 -0.7938  0.6637
 9830TIP3   OH250904   4.297   5.736  17.237  0.3235 -0.0217 -0.0641
 9830TIP3    H150905   4.368   5.673  17.250  1.0461  0.8393  0.1864
 9830TIP3    H250906   4.311   5.803  17.304 -0.0216  0.7791 -0.7785
 9831TIP3   OH250907   3.934   2.636   0.220  0.1353 -0.1092  0.0828
 9831TIP3    H150908   3.909   2.584   0.297  1.7926  0.4647  1.0500
 9831TIP3    H250909   4.030   2.636   0.222  0.2201 -0.8328 -2.5195
 9832TIP3   OH250910   3.813   3.156  14.564  0.5108  0.1809 -0.1377
 9832TIP3    H150911   3.895   3.128  14.525 -0.4297 -0.3807 -1.7673
 9832TIP3    H250912   3.807   3.249  14.542 -1.0282 -0.6003 -3.2650
 9833TIP3   OH250913   5.599   5.400   3.293 -0.4131  0.0982  0.0512
 9833TIP3    H150914   5.531   5.430   3.354  0.4278  0.9480  0.5882
 9833TIP3    H250915   5.650   5.478   3.274  1.1615 -0.7795  0.6225
 9834TIP3   OH250916   4.916   0.999   4.207  0.0699 -0.1757 -0.1313
 9834TIP3    H150917   4.887   1.088   4.187  2.3973  0.8515  0.8587
 9834TIP3    H250918   4.959   0.970   4.126 -1.2024 -0.6252 -0.6493
 9835TIP3   OH250919   3.032   2.898  14.630  0.0244  0.7664  0.0966
 9835TIP3    H150920   3.045   2.835  14.700  0.2524  0.3137 -0.3545
 9835TIP3    H250921   2.951   2.944  14.654  0.3327  0.9202  0.8797
 9836TIP3   OH250922   5.125   2.481   5.490 -0.1195  0.1850 -0.0294
 9836TIP3    H150923   5.105   2.472   5.583  0.9165 -0.3263  0.1565
 9836TIP3    H250924   5.060   2.428   5.446 -0.0099 -0.3779  0.4699
 9837TIP3   OH250925   2.199   6.115  15.301  0.2988 -0.5439  0.2841
 9837TIP3    H150926   2.171   6.187  15.358 -0.0341 -0.8180  0.4716
 9837TIP3    H250927   2.137   6.116  15.228  0.7664 -0.1516 -0.1062
 9838TIP3   OH250928   5.949   2.532   3.620  0.4107  0.2521 -0.3721
 9838TIP3    H150929   6.027   2.503   3.667  1.5677  2.5370 -0.7918
 9838TIP3    H250930   5.925   2.614   3.662  0.2004  1.2406 -2.3331
 9839TIP3   OH250931   2.961   6.653   0.775 -0.1522  0.9112  0.3937
 9839TIP3    H150932   3.037   6.664   0.718 -0.9370  0.2507 -0.8008
 9839TIP3    H250933   2.909   6.585   0.732 -0.4508 -0.0408  2.2336
 9840TIP3   OH250934   4.789   4.821   2.663  0.1643  0.0913  0.2941
 9840TIP3    H150935   4.804   4.727   2.654  0.1667  0.0734  0.4787
 9840TIP3    H250936   4.876   4.860   2.656  0.1700  0.0752  0.2729
 9841TIP3   OH250937   6.246   4.961   3.814 -0.0295  0.0855  0.5359
 9841TIP3    H150938   6.210   5.050   3.816 -1.2751 -0.3754 -0.5390
 9841TIP3    H250939   6.328   4.967   3.863  0.3257  2.0109 -0.2429
 9842TIP3   OH250940   5.425   5.812  12.525  0.7858 -0.4065 -0.2211
 9842TIP3    H150941   5.341   5.859  12.521  0.4750 -0.7810  1.5432
 9842TIP3    H250942   5.482   5.869  12.576  0.7180 -1.4498  1.0514
 9843TIP3   OH250943   0.102   2.602  16.836  0.4537  0.0564 -0.0636
 9843TIP3    H150944   0.188   2.580  16.800  0.3891  0.5086 -0.5100
 9843TIP3    H250945   0.120   2.652  16.915  0.6325 -3.7946  2.4784
 9844TIP3   OH250946   2.974   1.523   1.407 -1.3127 -0.7149 -0.0111
 9844TIP3    H150947   2.898   1.465   1.413 -1.2530 -0.7673  0.2435
 9844TIP3    H250948   2.937   1.611   1.403 -1.3973 -0.7585 -0.1876
 9845TIP3   OH250949   0.151   4.994   0.214 -0.2841 -0.1717  0.3323
 9845TIP3    H150950   0.126   5.079   0.250  1.6970  0.7656 -0.4255
 9845TIP3    H250951   0.112   4.992   0.127 -1.6299 -0.7243  0.9229
 9846TIP3   OH250952   2.349   3.488   3.950  0.3161 -0.0509 -0.7029
 9846TIP3    H150953   2.417   3.424   3.972  1.0597  1.1967  0.7079
 9846TIP3    H250954   2.297   3.496   4.031  1.2689  2.3769 -0.3078
 9847TIP3   OH250955   4.071   1.758  11.654  0.5632 -0.5036  0.1904
 9847TIP3    H150956   4.114   1.751  11.739  0.9977  1.2212  0.1183
 9847TIP3    H250957   4.081   1.850  11.628  1.0749 -1.1559 -2.0592
 9848TIP3   OH250958   3.106   0.822  14.739  0.6468 -0.6548  0.7489
 9848TIP3    H150959   3.132   0.847  14.827  2.1705 -1.0422  0.4179
 9848TIP3    H250960   3.059   0.898  14.705  2.9633  0.7652  0.6808
 9849TIP3   OH250961   1.487   5.536   1.883  0.4295  0.3953  0.1215
 9849TIP3    H150962   1.527   5.619   1.856 -0.3221  0.8507  0.3896
 9849TIP3    H250963   1.532   5.513   1.964 -0.6136  1.4905  1.0391
 9850TIP3   OH250964   0.299   0.369   2.429  0.3812  0.6416  0.3365
 9850TIP3    H150965   0.326   0.284   2.395  0.5175  0.7232  0.2416
 9850TIP3    H250966   0.260   0.349   2.514  0.5758  0.5059  0.3941
 9851TIP3   OH250967   3.113   4.168   5.563 -0.1917  0.1596  0.2381
 9851TIP3    H150968   3.028   4.194   5.597  0.3540  0.7668  1.1703
 9851TIP3    H250969   3.166   4.151   5.641  0.6977  0.3227 -0.3227
 9852TIP3   OH250970   2.244   6.535  13.778  0.4301  0.3986 -0.2971
 9852TIP3    H150971   2.336   6.508  13.771  0.4887 -0.0767  1.8884
 9852TIP3    H250972   2.197   6.455  13.802 -0.4926  0.7479 -0.8962
 9853TIP3   OH250973   3.131   2.037  10.911 -0.0812 -0.7386 -0.1116
 9853TIP3    H150974   3.110   1.991  10.830 -0.3835  0.0197 -0.4717
 9853TIP3    H250975   3.181   2.114  10.883 -0.2729 -0.4174  0.4109
 9854TIP3   OH250976   4.713   4.341  12.943  0.3676 -0.4761 -0.5783
 9854TIP3    H150977   4.769   4.405  12.987  0.7507 -2.4599  1.9255
 9854TIP3    H250978   4.625   4.375  12.954  0.6329  0.0135  0.0710
 9855TIP3   OH250979   6.149   5.366   2.238  0.3557  0.0697  0.9829
 9855TIP3    H150980   6.086   5.390   2.171 -1.7899 -0.9146  2.5963
 9855TIP3    H250981   6.187   5.284   2.206 -0.6699 -0.4088  0.9767
 9856TIP3   OH250982   6.322   3.829  14.729 -0.0410 -0.2410 -0.3374
 9856TIP3    H150983   6.337   3.796  14.818 -1.7322  1.4027  0.5684
 9856TIP3    H250984   6.257   3.769  14.692 -1.3857  0.6768  0.5052
 9857TIP3   OH250985   6.130   2.456   1.052  0.3590 -0.2075  0.0344
 9857TIP3    H150986   6.183   2.379   1.074  2.2964  0.6729 -1.3461
 9857TIP3    H250987   6.092   2.484   1.135 -0.2887 -2.5706  0.5666
 9858TIP3   OH250988   0.908   1.355   3.550 -0.1963  0.5499 -0.1123
 9858TIP3    H150989   0.986   1.303   3.533  0.5941  2.1317 -1.4646
 9858TIP3    H250990   0.864   1.310   3.622  1.7481 -0.5807  0.3937
 9859TIP3   OH250991   4.105   0.724   4.001 -0.1849  0.5749 -0.2089
 9859TIP3    H150992   4.188   0.772   4.000  1.1362 -1.6646 -0.5526
 9859TIP3    H250993   4.111   0.664   3.928 -2.3687  0.7490 -0.5627
 9860TIP3   OH250994   3.878   5.482  16.747  0.0139 -0.0616  0.1943
 9860TIP3    H150995   3.818   5.535  16.695  0.6814 -0.1506 -0.6927
 9860TIP3    H250996   3.839   5.394  16.747 -0.1647  0.0188  0.1251
 9861TIP3   OH250997   6.311   4.436   0.354  0.3069  0.5272  0.2580
 9861TIP3    H150998   6.251   4.361   0.344  2.3847 -1.2140  0.5187
 9861TIP3    H250999   6.270   4.490   0.422 -1.7399  0.1879 -0.6424
 9862TIP3   OH251000   4.379   6.556  14.988  0.0809 -0.1100  0.1916
 9862TIP3    H151001   4.377   6.560  15.084 -0.2195 -0.3267  0.1956
 9862TIP3    H251002   4.358   6.645  14.960  1.6901  0.3166  0.3375
 9863TIP3   OH251003   6.757   3.711  11.659 -0.1225 -0.0508  0.3162
 9863TIP3    H151004   6.823   3.778  11.639  0.9685 -0.5311  2.0982
 9863TIP3    H251005   6.809   3.635  11.687 -1.4270 -0.2324  2.3639
 9864TIP3   OH251006   1.462   3.705  11.905 -0.0380 -0.0867 -0.0715
 9864TIP3    H151007   1.543   3.748  11.879 -1.2303  1.1050 -1.9384
 9864TIP3    H251008   1.464   3.621  11.859 -0.9449  0.9367 -2.0027
 9865TIP3   OH251009   2.981   3.202   1.042  0.6066 -0.6573  0.3088
 9865TIP3    H151010   3.016   3.291   1.035 -0.5395 -0.1423  1.0530
 9865TIP3    H251011   3.045   3.148   0.995  0.2929  0.8143 -1.8922
 9866TIP3   OH251012   2.501   0.796   4.319 -0.0991 -0.4412  0.1237
 9866TIP3    H151013   2.484   0.827   4.408 -1.5301 -0.1948 -0.2213
 9866TIP3    H251014   2.594   0.813   4.305  0.0819 -0.2508  1.4761
 9867TIP3   OH251015   4.574   0.426  11.702 -0.5628 -0.2306 -0.5257
 9867TIP3    H151016   4.669   0.438  11.693 -0.1461 -2.8361  0.1839
 9867TIP3    H251017   4.549   0.373  11.626 -1.2347 -0.6801  0.0030
 9868TIP3   OH251018   2.718   4.021   1.306 -0.4709 -0.1937  0.3760
 9868TIP3    H151019   2.641   3.996   1.255 -1.3824 -0.3375  1.7813
 9868TIP3    H251020   2.766   3.939   1.317 -0.2849 -0.1672 -0.2151
 9869TIP3   OH251021   3.868   1.834   5.456 -0.0115  0.2057 -0.2206
 9869TIP3    H151022   3.863   1.924   5.487  0.2801 -0.1793  0.9843
 9869TIP3    H251023   3.785   1.819   5.411  0.1077  1.1985 -0.7852
 9870TIP3   OH251024   2.152   6.422   4.502 -0.2644 -0.1747 -0.5280
 9870TIP3    H151025   2.121   6.513   4.504  0.5694  0.1251 -0.8495
 9870TIP3    H251026   2.205   6.417   4.422  2.1777 -0.0989  1.0448
 9871TIP3   OH251027   1.439   4.529   0.064  0.0235  0.0025 -0.4427
 9871TIP3    H151028   1.468   4.582  -0.011 -1.6952  3.3786  1.1537
 9871TIP3    H251029   1.360   4.485   0.033 -0.6306  1.3197 -0.6803
 9872TIP3   OH251030   0.339   6.530  10.998  0.3192  0.1403  0.5092
 9872TIP3    H151031   0.309   6.464  10.936  1.2789  0.2350 -0.0557
 9872TIP3    H251032   0.323   6.614  10.953 -0.4140  0.2701  1.0132
 9873TIP3   OH251033   5.868   1.744  14.070  0.4783 -0.7646  0.1365
 9873TIP3    H151034   5.808   1.689  14.121  0.3438 -0.8612 -0.1240
 9873TIP3    H251035   5.875   1.825  14.121  2.2825 -1.7797  1.5606
 9874TIP3   OH251036   1.864   2.455  16.315  0.1529 -0.3642  0.1259
 9874TIP3    H151037   1.881   2.531  16.371 -1.4146 -0.9865  1.4938
 9874TIP3    H251038   1.833   2.493  16.233 -2.4784  0.5017  1.4431
 9875TIP3   OH251039   6.387   2.469   5.401  0.1056 -0.3118  0.2275
 9875TIP3    H151040   6.329   2.393   5.403 -1.5753  0.9294 -0.2294
 9875TIP3    H251041   6.329   2.544   5.415  1.4978  1.0159 -0.8949
 9876TIP3   OH251042   6.186   5.279   4.116  0.4407 -0.6443 -0.2623
 9876TIP3    H151043   6.249   5.348   4.098 -1.4016  1.1724  0.1607
 9876TIP3    H251044   6.124   5.283   4.043 -0.7450 -0.6117  0.7323
 9877TIP3   OH251045   0.906   5.115  12.863  0.0198 -0.0015 -0.6855
 9877TIP3    H151046   0.847   5.176  12.818 -2.1994 -0.6902  1.1639
 9877TIP3    H251047   0.893   5.134  12.956  1.6729 -1.1443 -0.2099
 9878TIP3   OH251048   3.009   3.248  10.216 -0.0661  0.1925 -0.2025
 9878TIP3    H151049   2.993   3.165  10.172 -1.2733 -0.2966  1.1312
 9878TIP3    H251050   2.931   3.301  10.197 -1.0406 -0.3617  2.0726
 9879TIP3   OH251051   1.338   1.294  13.337 -0.0866 -0.3777  0.1034
 9879TIP3    H151052   1.342   1.228  13.268  1.6730  0.8971 -1.0625
 9879TIP3    H251053   1.341   1.378  13.290  1.8790  0.5070  1.7262
 9880TIP3   OH251054   2.343   2.424  11.470  0.1379  0.2869 -0.1429
 9880TIP3    H151055   2.382   2.337  11.457 -0.6646  0.0001 -0.6529
 9880TIP3    H251056   2.413   2.485  11.450 -0.1364 -0.1851 -2.6928
 9881TIP3   OH251057   1.607   5.420   0.204  0.1965  0.0983  0.2209
 9881TIP3    H151058   1.558   5.398   0.125  1.9446  0.2757 -0.9323
 9881TIP3    H251059   1.549   5.393   0.276 -1.7304  0.6229 -1.0861
 9882TIP3   OH251060   6.272   2.699  16.233 -0.3188 -0.0375 -0.5100
 9882TIP3    H151061   6.243   2.790  16.231  1.6741  0.6448  0.0473
 9882TIP3    H251062   6.303   2.681  16.144  0.8303  0.3912 -0.2163
 9883TIP3   OH251063   6.620   5.322   5.349 -0.5836 -0.3311 -0.0294
 9883TIP3    H151064   6.624   5.417   5.366 -1.0172 -0.5055  1.0834
 9883TIP3    H251065   6.591   5.316   5.258  1.5339  0.6185 -0.7931
 9884TIP3   OH251066   0.574   5.220  16.071 -0.3334 -0.1256 -0.6419
 9884TIP3    H151067   0.554   5.163  16.145 -2.3115  2.6716  1.0414
 9884TIP3    H251068   0.508   5.198  16.005  0.4061 -1.4512 -0.9556
 9885TIP3   OH251069   4.058   1.727  15.859  0.7602 -0.8261 -0.0001
 9885TIP3    H151070   4.088   1.805  15.812 -0.9294  0.4532  0.9645
 9885TIP3    H251071   3.996   1.686  15.799 -0.7322  0.3242  0.7246
 9886TIP3   OH251072   0.301   5.444   0.470 -0.0128 -0.2031 -0.1863
 9886TIP3    H151073   0.227   5.503   0.470 -0.1208 -0.3376 -0.0503
 9886TIP3    H251074   0.272   5.369   0.418  0.3061  0.0894 -0.7892
 9887TIP3   OH251075   4.951   4.246  13.316 -0.2463 -0.0960  0.5942
 9887TIP3    H151076   4.921   4.166  13.273 -1.2922  0.1203  0.9122
 9887TIP3    H251077   5.014   4.216  13.381  3.1116 -0.2658 -2.5461
 9888TIP3   OH251078   3.303   3.631  11.702  0.3708  0.1618  0.4061
 9888TIP3    H151079   3.386   3.673  11.724 -0.8672  3.4811 -1.1096
 9888TIP3    H251080   3.251   3.636  11.783  1.1826 -0.9036  1.0121
 9889TIP3   OH251081   0.574   3.161   3.543 -0.2494 -0.1152  0.1212
 9889TIP3    H151082   0.574   3.071   3.575  0.3470  0.1496  0.8650
 9889TIP3    H251083   0.506   3.162   3.476 -0.6895 -0.9679  0.5468
 9890TIP3   OH251084   1.801   5.776  11.058 -0.3714  0.4010  0.2794
 9890TIP3    H151085   1.796   5.847  10.994 -0.6299 -0.7783 -1.0229
 9890TIP3    H251086   1.801   5.696  11.006 -0.0402 -0.5683  1.7305
 9891TIP3   OH251087   1.173   4.913   3.818 -0.6358  0.5208  1.0337
 9891TIP3    H151088   1.078   4.907   3.819 -0.6178 -0.4031 -1.2143
 9891TIP3    H251089   1.194   4.976   3.888 -2.9420  1.7436  0.6562
 9892TIP3   OH251090   4.646   4.328   4.707  1.3144 -0.1703 -0.5726
 9892TIP3    H151091   4.582   4.277   4.757 -0.4593  3.7581  1.4251
 9892TIP3    H251092   4.728   4.319   4.755  0.6087  0.1965  0.7278
 9893TIP3   OH251093   5.870   4.307  11.760  0.2002  0.4797  0.3693
 9893TIP3    H151094   5.797   4.359  11.727 -0.6995 -1.7311 -1.2695
 9893TIP3    H251095   5.948   4.352  11.727 -0.4774  1.8131  0.5574
 9894TIP3   OH251096   1.529   2.718  13.180 -0.0841 -0.2315  0.4563
 9894TIP3    H151097   1.580   2.644  13.212  0.9486  0.5891  0.7400
 9894TIP3    H251098   1.493   2.758  13.259 -1.6462 -1.1188  0.2280
 9895TIP3   OH251099   0.773   5.013   2.957 -0.2052  0.0045 -0.7965
 9895TIP3    H151100   0.728   4.938   2.997 -0.1516  0.2204 -0.3338
 9895TIP3    H251101   0.789   5.073   3.029 -2.7759  1.7559 -1.6217
 9896TIP3   OH251102   0.403   1.700  12.304  0.2542 -0.7934  0.1475
 9896TIP3    H151103   0.470   1.664  12.245 -1.0200 -1.9314 -0.6272
 9896TIP3    H251104   0.358   1.766  12.251 -1.8799 -2.8611 -0.7049
 9897TIP3   OH251105   4.127   3.312  12.010 -0.0736  0.1485  0.2547
 9897TIP3    H151106   4.174   3.386  12.049 -3.3647  1.8054  1.2347
 9897TIP3    H251107   4.185   3.237  12.025  2.6019  2.2168  0.6891
 9898TIP3   OH251108   5.529   5.945  13.695  0.6799 -0.0922  0.2886
 9898TIP3    H151109   5.620   5.967  13.678  1.5523 -2.5250  1.6298
 9898TIP3    H251110   5.530   5.852  13.718 -2.2585 -0.4066 -0.6129
 9899TIP3   OH251111   5.144   1.091  11.844  0.3662  0.0140  0.0113
 9899TIP3    H151112   5.218   1.030  11.848 -0.4519 -1.0244 -0.6479
 9899TIP3    H251113   5.185   1.178  11.842  1.5171 -0.4359  2.3277
 9900TIP3   OH251114   4.662   1.008   1.981 -0.6200 -0.0324 -0.5300
 9900TIP3    H151115   4.577   0.972   2.007 -1.0545  0.9679 -0.5464
 9900TIP3    H251116   4.720   0.987   2.054 -0.4824 -2.0899 -1.1802
 9901TIP3   OH251117   3.201   6.041  16.140 -0.2510 -0.0918 -0.2081
 9901TIP3    H151118   3.196   5.972  16.074  0.7181 -0.5112  0.1420
 9901TIP3    H251119   3.235   5.996  16.218  1.3021  0.9709 -0.2603
 9902TIP3   OH251120   0.092   1.318  11.757  0.0011  0.2534  0.9421
 9902TIP3    H151121   0.137   1.403  11.755  2.0210 -0.8081 -1.2723
 9902TIP3    H251122   0.123   1.276  11.837 -0.9774  1.5518  2.0336
 9903TIP3   OH251123   3.548   6.155  12.909 -0.3792  0.2301 -0.1352
 9903TIP3    H151124   3.491   6.229  12.933 -1.2817 -0.8990  1.2949
 9903TIP3    H251125   3.608   6.146  12.983  0.0783 -0.1190 -0.5483
 9904TIP3   OH251126   5.831   1.796  17.030 -0.1516 -0.2436 -0.1966
 9904TIP3    H151127   5.892   1.764  17.097 -0.7253 -0.3303  0.2830
 9904TIP3    H251128   5.761   1.731  17.028  0.9762 -1.4406 -2.4692
 9905TIP3   OH251129   2.411   0.977   5.939 -0.1192 -0.0091 -0.2033
 9905TIP3    H151130   2.487   0.983   5.997 -0.7457  1.4579  0.4925
 9905TIP3    H251131   2.418   1.054   5.882 -0.9061 -0.0423 -0.3519
 9906TIP3   OH251132   4.163   2.462   3.278 -0.1612  0.2163 -0.6176
 9906TIP3    H151133   4.218   2.446   3.354  0.2271  1.4229 -0.6314
 9906TIP3    H251134   4.218   2.513   3.219 -0.9543  0.5473 -1.0821
 9907TIP3   OH251135   3.595   2.342   4.535  0.2870 -0.0784 -0.0770
 9907TIP3    H151136   3.691   2.336   4.532  0.2340 -1.2905  0.2890
 9907TIP3    H251137   3.575   2.349   4.629  0.0438  0.9328 -0.1939
 9908TIP3   OH251138   4.219   2.234  13.246 -0.1573  0.0471 -0.3776
 9908TIP3    H151139   4.301   2.267  13.282 -0.5099 -0.3404  0.7765
 9908TIP3    H251140   4.211   2.145  13.279 -1.4319  0.3525  0.1984
 9909TIP3   OH251141   5.973   2.936   5.167 -0.4202  0.3643 -0.0566
 9909TIP3    H151142   5.892   2.984   5.150 -0.3749  0.8734  1.0961
 9909TIP3    H251143   6.008   2.975   5.247  1.1334  0.3529 -0.7011
 9910TIP3   OH251144   5.507   1.597  14.749  0.0573 -0.1686 -0.6453
 9910TIP3    H151145   5.501   1.512  14.793  1.9027 -0.6322 -1.2443
 9910TIP3    H251146   5.540   1.657  14.816  0.3554 -0.3011 -0.6717
 9911TIP3   OH251147   4.593   4.607   3.399 -0.6258  0.1335 -0.2251
 9911TIP3    H151148   4.653   4.534   3.411 -1.0901  0.0546  1.9571
 9911TIP3    H251149   4.649   4.681   3.376  0.0037 -0.5566 -0.9130
 9912TIP3   OH251150   0.542   3.079  10.669 -0.4814 -0.3064 -0.1912
 9912TIP3    H151151   0.482   3.060  10.741 -2.6534  0.2234 -1.8136
 9912TIP3    H251152   0.587   3.159  10.696 -4.0589  2.0919 -1.0119
 9913TIP3   OH251153   6.533   4.950   1.829  0.2029  0.1133 -0.2150
 9913TIP3    H151154   6.455   4.932   1.881  0.2071 -1.0820 -0.6001
 9913TIP3    H251155   6.598   4.980   1.893  0.7779 -3.0943  0.8015
 9914TIP3   OH251156   3.678   0.681  11.582  0.2179 -1.0607  0.6125
 9914TIP3    H151157   3.587   0.651  11.586 -1.0009  2.3446 -0.2096
 9914TIP3    H251158   3.707   0.658  11.494 -0.4064 -0.6436  0.2975
 9915TIP3   OH251159   5.384   5.563  11.304 -0.0866  0.0902 -0.5645
 9915TIP3    H151160   5.392   5.496  11.372  3.0232  0.2945 -0.6731
 9915TIP3    H251161   5.398   5.645  11.351 -2.3263  0.5861 -0.7101
 9916TIP3   OH251162   6.487   3.147   3.247  0.4086  0.4139  0.1806
 9916TIP3    H151163   6.404   3.147   3.200  0.5421  0.4405 -0.0587
 9916TIP3    H251164   6.506   3.240   3.262 -0.7839  0.3520  2.3529
 9917TIP3   OH251165   3.089   3.757   0.557 -0.9836 -0.1874  0.3422
 9917TIP3    H151166   3.095   3.664   0.580 -1.7927  0.0933  1.7313
 9917TIP3    H251167   3.152   3.768   0.485 -0.6495 -1.7334  0.3767
 9918TIP3   OH251168   3.095   0.263   5.375 -0.5345 -0.1513  0.2513
 9918TIP3    H151169   3.124   0.287   5.287 -0.3820 -1.1717  0.0134
 9918TIP3    H251170   3.097   0.345   5.424 -1.1852  0.5494 -0.8443
 9919TIP3   OH251171   3.227   4.614  14.733 -0.2373 -0.3157  0.2261
 9919TIP3    H151172   3.227   4.543  14.797 -2.4116  0.5879  1.2667
 9919TIP3    H251173   3.256   4.690  14.783 -3.2598  0.6922  0.5359
 9920TIP3   OH251174   0.336   4.631  15.848 -0.3281 -0.5176 -0.4649
 9920TIP3    H151175   0.264   4.573  15.825  0.3717 -0.8556 -1.8850
 9920TIP3    H251176   0.390   4.634  15.769  0.3511  1.0137  0.0312
 9921TIP3   OH251177   0.218   1.896  16.937  0.2549  0.1938  0.2422
 9921TIP3    H151178   0.216   1.976  16.886 -1.2958 -0.2186 -0.3566
 9921TIP3    H251179   0.137   1.850  16.914 -0.3303 -0.1564  2.7829
 9922TIP3   OH251180   4.773   1.221  14.668 -0.1716  0.0432 -0.2949
 9922TIP3    H151181   4.816   1.292  14.717 -1.6641  1.4828 -0.9961
 9922TIP3    H251182   4.683   1.222  14.699  0.0803 -2.3608  0.5350
 9923TIP3   OH251183   6.044   3.509  12.737  0.3211  0.2179  0.9196
 9923TIP3    H151184   6.138   3.495  12.721  0.6237 -0.0626  2.8026
 9923TIP3    H251185   6.026   3.459  12.816 -1.5638 -0.1643  0.2661
 9924TIP3   OH251186   1.278   4.953  13.144  0.1926  0.3510  0.3302
 9924TIP3    H151187   1.284   5.048  13.147 -1.3270  0.4687 -0.2188
 9924TIP3    H251188   1.185   4.935  13.131  0.5681 -1.1905 -0.2628
 9925TIP3   OH251189   5.915   2.934  16.333  0.1229 -0.5049  0.9446
 9925TIP3    H151190   5.904   2.907  16.424 -0.2167 -0.8995  0.7891
 9925TIP3    H251191   5.915   2.852  16.284  0.3587 -0.2951  0.5967
 9926TIP3   OH251192   6.206   6.442   1.167  0.0179  0.5442  0.2018
 9926TIP3    H151193   6.238   6.356   1.194  0.4113  0.9715  1.1079
 9926TIP3    H251194   6.279   6.501   1.183  0.1180  0.8806 -1.4236
 9927TIP3   OH251195   1.526   3.895   3.357  0.0538 -0.7647 -0.0578
 9927TIP3    H151196   1.576   3.958   3.304 -0.0508  1.6436  2.5949
 9927TIP3    H251197   1.542   3.811   3.314  1.1462  0.8594 -3.0439
 9928TIP3   OH251198   6.297   5.774   5.510  0.1888  0.3062 -0.8960
 9928TIP3    H151199   6.207   5.759   5.481  0.2781 -0.5635 -0.7388
 9928TIP3    H251200   6.315   5.702   5.570  1.4567 -0.2785 -1.9603
 9929TIP3   OH251201   6.624   0.512  11.418 -0.3420 -0.2907 -0.0539
 9929TIP3    H151202   6.649   0.599  11.387 -0.5441 -0.1357  0.2168
 9929TIP3    H251203   6.620   0.521  11.514 -0.3332 -0.6047 -0.0247
 9930TIP3   OH251204   2.480   4.768  14.111  0.0009  0.3712 -0.0632
 9930TIP3    H151205   2.386   4.773  14.125  0.0980  0.6386  0.4972
 9930TIP3    H251206   2.518   4.815  14.185  0.5700  0.3434 -0.3354
 9931TIP3   OH251207   1.675   1.166  16.070  0.1573 -0.3582  0.4602
 9931TIP3    H151208   1.624   1.241  16.039 -0.2989 -0.3344  1.2726
 9931TIP3    H251209   1.745   1.157  16.005 -1.2524 -0.8019 -1.0055
 9932TIP3   OH251210   5.911   5.487  15.178  0.4036  0.3265 -0.3632
 9932TIP3    H151211   5.919   5.537  15.097 -1.9682  0.4519 -0.5609
 9932TIP3    H251212   5.999   5.453  15.194  1.4078  2.1510 -1.7747
 9933TIP3   OH251213   3.208   4.291   4.400  0.5002  0.2871 -0.0631
 9933TIP3    H151214   3.189   4.307   4.493 -0.6837 -0.5864 -0.1515
 9933TIP3    H251215   3.146   4.347   4.353  1.4057  1.0775 -0.3460
 9934TIP3   OH251216   0.740   5.038  12.011  0.4195 -0.6623 -0.0162
 9934TIP3    H151217   0.668   5.074  12.062  0.4199 -0.3237 -0.2574
 9934TIP3    H251218   0.747   5.095  11.934  1.1161 -0.5267  0.1405
 9935TIP3   OH251219   0.317   3.712  11.893  0.4634  0.1557  0.3663
 9935TIP3    H151220   0.350   3.800  11.910  0.6896  0.3591 -1.0918
 9935TIP3    H251221   0.228   3.713  11.928  0.1682  1.2299 -0.3799
 9936TIP3   OH251222   4.183   1.945  16.757 -0.3915 -0.1598 -0.2937
 9936TIP3    H151223   4.162   2.032  16.789  1.1554  0.1369 -0.0224
 9936TIP3    H251224   4.120   1.928  16.687 -0.8385  1.0790 -0.1934
 9937TIP3   OH251225   3.195   6.220   5.179 -0.2641 -0.2695  0.1975
 9937TIP3    H151226   3.280   6.264   5.183 -0.4671  0.2721 -1.0924
 9937TIP3    H251227   3.134   6.289   5.153 -0.7151 -1.1347 -1.1001
 9938TIP3   OH251228   3.961   1.075  16.806  0.2528 -0.1571  0.2654
 9938TIP3    H151229   3.980   1.048  16.716  1.7951  0.1483  0.4816
 9938TIP3    H251230   3.968   1.170  16.805  0.1434 -0.1422  0.6933
 9939TIP3   OH251231   5.291   4.739   5.274 -0.2844 -0.1865  0.1293
 9939TIP3    H151232   5.209   4.756   5.320  0.1402  0.1367  0.7725
 9939TIP3    H251233   5.357   4.787   5.324  0.4942 -1.4342  0.3344
 9940TIP3   OH251234   5.128   6.556  11.493  0.0753 -0.2999 -0.2053
 9940TIP3    H151235   5.210   6.527  11.531 -0.3656 -2.4637 -0.8044
 9940TIP3    H251236   5.100   6.483  11.438 -3.1312 -0.3411  1.3440
 9941TIP3   OH251237   3.012   3.040  16.374 -0.0704 -0.5049  0.6486
 9941TIP3    H151238   3.069   2.963  16.373  0.5100 -0.0859  0.9498
 9941TIP3    H251239   3.032   3.083  16.458  1.0825  1.0521 -0.3798
 9942TIP3   OH251240   5.936   2.298  13.516 -0.4048 -0.9237 -0.0440
 9942TIP3    H151241   5.847   2.265  13.525  0.3199 -3.2298 -0.8682
 9942TIP3    H251242   5.937   2.380  13.565 -2.4230 -1.9140  1.6986
 9943TIP3   OH251243   2.501   2.973   2.318  0.2177  0.1139 -0.4441
 9943TIP3    H151244   2.487   2.979   2.224 -0.5407 -0.1187 -0.3495
 9943TIP3    H251245   2.527   2.882   2.333 -2.0544 -0.5259 -0.1400
 9944TIP3   OH251246   0.161   4.575  14.959 -0.0533  0.2900 -0.0739
 9944TIP3    H151247   0.081   4.537  14.923  0.0651  1.9571 -2.2158
 9944TIP3    H251248   0.143   4.588  15.052 -1.6787 -0.8137 -0.2280
 9945TIP3   OH251249   2.412   4.053   6.549 -0.2333 -0.2049 -0.6192
 9945TIP3    H151250   2.337   4.070   6.605  1.2708 -0.6226  1.5575
 9945TIP3    H251251   2.445   4.140   6.527 -0.9943 -0.0350 -1.1293
 9946TIP3   OH251252   3.360   1.159  13.833 -0.1799 -0.7448 -0.0619
 9946TIP3    H151253   3.390   1.104  13.906 -0.9097 -1.2226 -0.1200
 9946TIP3    H251254   3.432   1.155  13.769 -0.0917 -1.3615  0.0751
 9947TIP3   OH251255   5.638   4.699   6.809 -0.1757  0.1760  0.3085
 9947TIP3    H151256   5.644   4.788   6.774 -1.8571 -0.1227 -0.7796
 9947TIP3    H251257   5.545   4.677   6.804  0.2629 -1.7806  0.2249
 9948TIP3   OH251258   6.331   5.565   5.698 -0.5882 -0.3085 -0.1649
 9948TIP3    H151259   6.381   5.607   5.767  0.0106  1.6380 -1.7504
 9948TIP3    H251260   6.245   5.548   5.738 -0.3159  0.9658  1.0027
 9949TIP3   OH251261   6.440   0.024  12.457  0.4695  0.3887  0.5531
 9949TIP3    H151262   6.438   0.092  12.525 -1.8415  1.8157 -0.8273
 9949TIP3    H251263   6.348   0.002  12.443  1.1106 -2.0220 -0.0390
 9950TIP3   OH251264   2.797   6.342  16.370 -0.1785  0.1122  0.6952
 9950TIP3    H151265   2.856   6.324  16.297  1.2389 -1.1911  2.1251
 9950TIP3    H251266   2.851   6.330  16.449 -2.3630 -1.2014  2.0423
 9951TIP3   OH251267   1.910   4.061   2.446  0.1173 -0.1537 -0.0655
 9951TIP3    H151268   1.828   4.046   2.399 -0.4432  1.7052  0.2733
 9951TIP3    H251269   1.954   3.976   2.445 -1.1407 -0.8196 -1.5279
 9952TIP3   OH251270   2.240   4.022  11.170 -0.1422  0.1427 -1.4278
 9952TIP3    H151271   2.235   3.954  11.237  0.1330 -1.3135 -2.8771
 9952TIP3    H251272   2.334   4.038  11.160 -0.2241  1.2031 -0.6539
 9953TIP3   OH251273   6.380   4.199   6.128 -0.7423 -0.0228 -0.1775
 9953TIP3    H151274   6.372   4.295   6.129  0.0896  0.1693 -4.1872
 9953TIP3    H251275   6.459   4.181   6.177  0.9786  1.6643 -2.2167
 9954TIP3   OH251276   0.768   0.163   0.940 -0.4261 -0.0320 -0.0441
 9954TIP3    H151277   0.801   0.173   0.851 -1.1157 -0.4307 -0.3487
 9954TIP3    H251278   0.830   0.213   0.994 -0.7762  1.3727 -0.8969
 9955TIP3   OH251279   3.734   5.963  15.396 -0.5604 -0.3942  0.0307
 9955TIP3    H151280   3.723   5.998  15.484  1.2833  0.8213 -0.1882
 9955TIP3    H251281   3.741   6.040  15.340  1.0017 -1.1148 -0.8124
 9956TIP3   OH251282   0.836   3.588  12.148  0.1063 -0.0529  0.0588
 9956TIP3    H151283   0.907   3.525  12.132  1.2656  1.1862  0.1865
 9956TIP3    H251284   0.859   3.663  12.093 -1.4390  0.1256 -0.3532
 9957TIP3   OH251285   1.234   6.675   2.626 -0.1446  0.5333 -0.0118
 9957TIP3    H151286   1.140   6.662   2.639 -0.1747  0.8701  0.1091
 9957TIP3    H251287   1.241   6.761   2.585  0.0914  0.3674 -0.3266
 9958TIP3   OH251288   0.250   0.777   0.770 -0.3113 -0.0691 -0.2423
 9958TIP3    H151289   0.334   0.815   0.747  0.3356 -1.7965 -0.8416
 9958TIP3    H251290   0.234   0.806   0.860  1.2332 -0.2604  0.1064
 9959TIP3   OH251291   2.644   0.706  12.360  0.0178  0.1257 -0.2365
 9959TIP3    H151292   2.603   0.792  12.353  0.3167  0.1643 -1.6239
 9959TIP3    H251293   2.571   0.644  12.365 -0.1960  0.4407  0.7017
 9960TIP3   OH251294   0.839   0.268  14.147  0.3774  0.1118  0.0164
 9960TIP3    H151295   0.774   0.235  14.085  1.6667 -0.2300 -1.1616
 9960TIP3    H251296   0.849   0.197  14.211 -0.9269  0.4570  0.6320
 9961TIP3   OH251297   6.111   6.402   5.044 -0.0091  0.0578 -0.2836
 9961TIP3    H151298   6.057   6.433   4.971  1.6533  1.5622 -0.9273
 9961TIP3    H251299   6.091   6.462   5.115 -2.7925 -2.3433  1.0568
 9962TIP3   OH251300   4.600   5.700  11.019  0.2985  0.1958 -0.3047
 9962TIP3    H151301   4.528   5.760  10.996 -0.2656  0.8342  2.8396
 9962TIP3    H251302   4.566   5.613  10.999 -1.2502  0.5220  0.8148
 9963TIP3   OH251303   1.250   0.175  15.707 -0.3832 -0.4657 -0.0078
 9963TIP3    H151304   1.157   0.192  15.692 -0.9871 -1.4349  2.4172
 9963TIP3    H251305   1.268   0.213  15.793  1.7993  0.8698 -1.0129
 9964TIP3   OH251306   1.340   1.781   4.932  0.7075  0.1836 -0.5402
 9964TIP3    H151307   1.408   1.754   4.871  0.9833 -1.4697  0.4616
 9964TIP3    H251308   1.388   1.806   5.011  0.2102 -0.0397 -0.1671
 9965TIP3   OH251309   2.496   6.216  13.351 -0.2637 -0.2209  0.6066
 9965TIP3    H151310   2.538   6.185  13.431 -0.0742 -0.7470  0.3107
 9965TIP3    H251311   2.466   6.136  13.307  0.0010  0.0278 -0.0426
 9966TIP3   OH251312   1.442   5.804  14.134 -0.0458  0.1480 -0.5528
 9966TIP3    H151313   1.409   5.732  14.079 -2.0365  0.9092 -0.3841
 9966TIP3    H251314   1.370   5.822  14.195  1.1995  0.9792  0.6845
 9967TIP3   OH251315   3.999   3.602   3.198  0.0384 -0.4145  0.3900
 9967TIP3    H151316   4.033   3.662   3.264  1.3067 -1.4038  0.6613
 9967TIP3    H251317   4.030   3.638   3.115 -1.3597  0.7010  0.3381
 9968TIP3   OH251318   0.012   4.276  13.632  0.3559  0.5087  0.5134
 9968TIP3    H151319  -0.016   4.198  13.584 -0.2250  1.7534 -1.2334
 9968TIP3    H251320  -0.069   4.322  13.653  0.7772  1.4160  0.1809
 9969TIP3   OH251321   6.170   3.249  12.578  0.0424  0.2878 -0.4879
 9969TIP3    H151322   6.191   3.337  12.546  0.1375  0.7113  0.6945
 9969TIP3    H251323   6.241   3.228  12.639 -2.1982  1.2427  2.6176
 9970TIP3   OH251324   4.047   5.452   5.327  0.0321  0.1183 -0.0981
 9970TIP3    H151325   4.109   5.474   5.258  1.3145 -2.3657  0.2013
 9970TIP3    H251326   3.996   5.379   5.292 -2.7235  2.0397 -0.2949
 9971TIP3   OH251327   5.936   0.493   5.505 -0.4629  0.0808  0.1131
 9971TIP3    H151328   5.922   0.524   5.594 -0.7355  0.0147  0.0922
 9971TIP3    H251329   5.943   0.573   5.452  1.2072  0.1600  0.4200
 9972TIP3   OH251330   5.366   4.804   5.559 -0.5433  0.3121 -0.3213
 9972TIP3    H151331   5.414   4.885   5.578  0.4969 -0.3422 -0.0733
 9972TIP3    H251332   5.434   4.737   5.558 -1.2136 -0.3503 -1.9216
 9973TIP3   OH251333   2.119   0.963   5.565 -0.0762  0.2844 -0.5877
 9973TIP3    H151334   2.100   1.032   5.628 -0.3704 -0.4117  0.0897
 9973TIP3    H251335   2.210   0.938   5.582 -1.4111 -2.8722  2.4820
 9974TIP3   OH251336   5.620   1.603  12.186 -0.2702  0.2013  0.4106
 9974TIP3    H151337   5.559   1.606  12.113 -0.8302  1.1863  0.9144
 9974TIP3    H251338   5.616   1.513  12.217 -0.2929 -0.1327 -0.5396
 9975TIP3   OH251339   0.829   3.033  16.471 -0.3223 -0.1849 -1.2538
 9975TIP3    H151340   0.854   2.995  16.556 -0.6380  2.4150  0.0768
 9975TIP3    H251341   0.904   3.017  16.415  1.1625  0.6955  0.4259
 9976TIP3   OH251342   5.415   3.787  15.637 -0.3236  0.3934 -0.2287
 9976TIP3    H151343   5.343   3.731  15.667  0.3547  0.7528  2.1387
 9976TIP3    H251344   5.494   3.744  15.669  0.3034  1.7567  0.0777
 9977TIP3   OH251345   3.647   1.950   2.670  0.0743 -0.5924 -0.4204
 9977TIP3    H151346   3.721   1.890   2.686  0.7372  0.0530 -1.0201
 9977TIP3    H251347   3.624   1.983   2.757 -0.2685 -1.6750 -0.0836
 9978TIP3   OH251348   5.464   4.573  15.273 -0.2388 -0.5096 -0.0219
 9978TIP3    H151349   5.510   4.618  15.344 -3.7417 -0.2505  2.1788
 9978TIP3    H251350   5.422   4.643  15.224  2.8392 -0.6054 -3.0151
 9979TIP3   OH251351   0.027   0.438  11.057  0.0422  0.0812 -0.5024
 9979TIP3    H151352   0.109   0.423  11.010 -0.1982 -0.7439 -0.6747
 9979TIP3    H251353   0.042   0.401  11.144  0.3360  1.2125 -0.0639
 9980TIP3   OH251354   2.322   2.377   4.888 -0.1465 -0.0388  0.2778
 9980TIP3    H151355   2.401   2.332   4.919 -0.1314 -0.3253 -0.1654
 9980TIP3    H251356   2.252   2.313   4.899 -0.5441  0.6705  1.8758
 9981TIP3   OH251357   6.219   2.906   1.049 -0.0591  0.0004 -0.6896
 9981TIP3    H151358   6.256   2.819   1.032  0.8849  0.1247  0.6401
 9981TIP3    H251359   6.290   2.954   1.092 -0.6573  1.3565 -1.1953
 9982TIP3   OH251360   4.383   0.021  11.182  0.4093  0.0539  0.2610
 9982TIP3    H151361   4.460  -0.029  11.211 -0.0494 -0.6145  0.3392
 9982TIP3    H251362   4.359   0.073  11.258  0.7855  0.2651  0.2367
 9983TIP3   OH251363   3.185   4.773  11.914  0.1970 -0.1868 -0.0180
 9983TIP3    H151364   3.181   4.748  12.006  2.5011  0.4362  0.2674
 9983TIP3    H251365   3.264   4.732  11.880 -1.2415 -1.4011 -2.0608
 9984TIP3   OH251366   0.675   2.442   2.102 -1.0805  0.3599 -0.4434
 9984TIP3    H151367   0.627   2.450   2.019 -0.9361 -1.1445 -0.6716
 9984TIP3    H251368   0.644   2.361   2.140  0.4934 -0.0783 -0.0704
 9985TIP3   OH251369   6.268   0.915   1.447  0.9762  0.4115  0.4889
 9985TIP3    H151370   6.323   0.991   1.468  1.3085  1.2332 -3.0177
 9985TIP3    H251371   6.194   0.952   1.399  1.1831 -1.4639 -1.3446
 9986TIP3   OH251372   1.205   3.525  13.898  0.8926 -0.1491 -0.0577
 9986TIP3    H151373   1.301   3.531  13.893  1.0579 -1.2320  1.5820
 9986TIP3    H251374   1.174   3.601  13.849  2.5824  0.0566 -0.8550
 9987TIP3   OH251375   3.841   6.314  12.715 -0.3450 -0.0519 -0.0818
 9987TIP3    H151376   3.783   6.341  12.644  0.0861  0.8621 -0.0897
 9987TIP3    H251377   3.828   6.220  12.722 -1.6270  0.0918 -0.2797
 9988TIP3   OH251378   4.620   5.464  14.021 -0.2762 -0.0011 -0.5230
 9988TIP3    H151379   4.711   5.437  14.035 -0.3148 -0.0879 -0.4422
 9988TIP3    H251380   4.626   5.558  14.003 -0.3885  0.5662  2.0658
 9989TIP3   OH251381   0.284   3.012  12.914  0.2859  0.0574 -0.1307
 9989TIP3    H151382   0.284   2.973  13.002 -0.8319  0.8081  0.2155
 9989TIP3    H251383   0.337   2.953  12.861  1.3765 -0.1551  1.1623
 9990TIP3   OH251384   5.902   1.016   0.557  0.6147 -0.2384  0.3471
 9990TIP3    H151385   5.977   1.025   0.499  0.5116 -0.1905  0.2186
 9990TIP3    H251386   5.939   0.997   0.643  0.7387 -1.4539  0.0363
 9991TIP3   OH251387   1.426   1.651  14.508 -0.2823 -0.2734 -0.0013
 9991TIP3    H151388   1.482   1.612  14.575 -0.5813  0.9797  1.0156
 9991TIP3    H251389   1.456   1.742  14.502  0.4210 -0.6370 -2.3395
 9992TIP3   OH251390   2.676   5.747   6.712  0.0104 -0.0845  0.0282
 9992TIP3    H151391   2.719   5.801   6.778  0.0066  2.5824 -2.1059
 9992TIP3    H251392   2.668   5.803   6.635 -2.1626 -2.3447 -1.4882
 9993TIP3   OH251393   4.912   3.071   4.126 -0.7171  0.1962  0.5420
 9993TIP3    H151394   4.957   3.028   4.198  0.2402  1.2492  0.5931
 9993TIP3    H251395   4.921   3.011   4.052 -0.6405 -0.3381  0.9887
 9994TIP3   OH251396   2.098   5.645  15.965 -0.4712  0.6239  0.1643
 9994TIP3    H151397   2.112   5.558  16.002 -1.7887 -0.5818 -2.0773
 9994TIP3    H251398   2.008   5.667  15.989 -0.3114  1.1726  0.2766
 9995TIP3   OH251399   1.296   1.666  14.960 -0.2499 -0.2776 -0.2462
 9995TIP3    H151400   1.349   1.594  14.994  1.0105  1.2946  1.1773
 9995TIP3    H251401   1.358   1.723  14.916 -0.9874  0.8415  0.1444
 9996TIP3   OH251402   3.894   4.514   0.988 -0.1021  0.1992 -0.0857
 9996TIP3    H151403   3.939   4.590   1.026  0.0516  0.4078 -0.6779
 9996TIP3    H251404   3.890   4.533   0.894 -0.5018 -0.3010 -0.1718
 9997TIP3   OH251405   1.429   6.253  12.468  0.0103 -0.1104 -0.1633
 9997TIP3    H151406   1.411   6.346  12.475 -0.6426 -0.2120 -0.4903
 9997TIP3    H251407   1.365   6.220  12.406 -0.1782 -0.8977  0.4325
 9998TIP3   OH251408   3.741   3.642  15.046  0.7223  1.0558 -0.3875
 9998TIP3    H151409   3.725   3.581  14.974  0.6079  1.5829 -0.8116
 9998TIP3    H251410   3.830   3.622  15.075 -0.1282 -0.8277  0.9545
 9999TIP3   OH251411   1.550   6.218  11.064  0.1228  0.0354  0.2952
 9999TIP3    H151412   1.481   6.282  11.049  1.3892  1.6432  1.0906
 9999TIP3    H251413   1.583   6.197  10.976 -0.5882  0.1269  0.0019
10000TIP3   OH251414   0.590   0.682  13.049  0.0573  0.4913  0.2647
10000TIP3    H151415   0.503   0.719  13.063 -0.2216  0.3228 -0.9692
10000TIP3    H251416   0.573   0.592  13.020  0.6683  0.1670  0.9078
10001TIP3   OH251417   3.544   4.314   0.789  0.7346  0.4515  0.0109
10001TIP3    H151418   3.491   4.286   0.864 -0.5394  0.4002 -0.9060
10001TIP3    H251419   3.612   4.247   0.782 -1.5727 -1.8182 -1.4045
10002TIP3   OH251420   5.965   3.081  13.104 -0.4751  0.1700 -0.6702
10002TIP3    H151421   5.916   3.149  13.151  0.7011  0.4636  0.1580
10002TIP3    H251422   6.043   3.067  13.158 -0.5493 -1.5994 -1.0143
10003TIP3   OH251423   2.021   5.666  14.494 -0.0660 -0.0414 -0.1974
10003TIP3    H151424   1.957   5.596  14.482 -0.7507  0.4893  0.3263
10003TIP3    H251425   2.055   5.652  14.582 -2.5165  2.1354  1.1698
10004TIP3   OH251426   6.406   1.216  16.265 -0.0119 -0.2412 -0.2936
10004TIP3    H151427   6.415   1.121  16.271 -0.4842 -0.2037  1.1481
10004TIP3    H251428   6.317   1.231  16.234 -0.2068 -0.2588  0.2483
10005TIP3   OH251429   1.529   5.495   5.832  0.0983  0.0843  0.1326
10005TIP3    H151430   1.553   5.547   5.908  1.4629 -0.5570  0.1611
10005TIP3    H251431   1.589   5.523   5.763  1.1611 -1.7473  0.2737
10006TIP3   OH251432   5.718   4.781   4.732 -0.4510  0.2386  0.2987
10006TIP3    H151433   5.641   4.760   4.680  1.0203 -1.8313 -1.1181
10006TIP3    H251434   5.697   4.748   4.820 -1.2979 -0.0408 -0.0065
10007TIP3   OH251435   3.818   1.827  15.083 -0.8696  0.1838  0.7444
10007TIP3    H151436   3.776   1.880  15.016 -2.2007  0.5721  1.8721
10007TIP3    H251437   3.899   1.797  15.042 -0.7107  2.0264 -0.3502
10008TIP3   OH251438   2.409   3.346  12.081 -0.3272 -0.2280  0.3515
10008TIP3    H151439   2.321   3.310  12.068 -1.1629  1.7015  0.4817
10008TIP3    H251440   2.409   3.377  12.172  0.9750 -1.5235  0.7956
10009TIP3   OH251441   6.366   6.639  14.260 -0.3589  0.3627 -0.2609
10009TIP3    H151442   6.394   6.689  14.184  0.3116  0.6825  0.1940
10009TIP3    H251443   6.357   6.704  14.330 -1.8884  0.2148 -0.2975
10010TIP3   OH251444   6.388   3.173  11.597 -0.7296 -0.0796  0.0173
10010TIP3    H151445   6.385   3.224  11.516  0.9692  1.7362  1.0465
10010TIP3    H251446   6.296   3.158  11.620 -1.2216 -0.5770 -2.1922
10011TIP3   OH251447   3.575   6.217   0.006  0.2386 -0.1066  0.2499
10011TIP3    H151448   3.631   6.286   0.042 -0.5005 -0.3739  1.9574
10011TIP3    H251449   3.487   6.241   0.036 -0.1868 -1.1423 -0.1695
10012TIP3   OH251450   4.019   3.341   4.164 -0.1610 -0.1650  0.3119
10012TIP3    H151451   4.027   3.333   4.069  0.1115  1.3662  0.1932
10012TIP3    H251452   4.055   3.259   4.198  1.0684 -0.1275 -0.8576
10013TIP3   OH251453   1.052   3.211  17.051 -0.8363 -0.0997 -0.4116
10013TIP3    H151454   1.046   3.219  16.956 -0.9055  2.2488 -0.2360
10013TIP3    H251455   1.103   3.131  17.065 -0.0533  0.0064 -2.4373
10014TIP3   OH251456   4.661   0.727  16.465  0.5382  0.4020 -0.0619
10014TIP3    H151457   4.585   0.676  16.437  0.8111  1.1843 -2.2820
10014TIP3    H251458   4.631   0.818  16.462  0.4285  0.5286  2.7036
10015TIP3   OH251459   2.287   3.434   2.829  0.1540  0.0335  0.2589
10015TIP3    H151460   2.251   3.470   2.748  1.6396  0.7726 -0.0972
10015TIP3    H251461   2.214   3.436   2.891 -0.1083  2.5932 -0.0979
10016TIP3   OH251462   3.532   2.176  12.553  0.1377 -0.0424  0.1892
10016TIP3    H151463   3.533   2.213  12.465 -0.6276 -1.0011 -0.2340
10016TIP3    H251464   3.591   2.101  12.548 -1.9027 -1.6552 -0.2224
10017TIP3   OH251465   2.954   6.275   4.839  0.5254 -0.1112 -0.0216
10017TIP3    H151466   3.003   6.334   4.896 -1.1135 -0.3519  1.6647
10017TIP3    H251467   2.972   6.187   4.872  1.3226 -0.4229 -1.2516
10018TIP3   OH251468   1.710   5.193  11.117 -0.4409  0.5940 -0.6409
10018TIP3    H151469   1.673   5.232  11.197 -0.5955 -1.2421  0.1995
10018TIP3    H251470   1.650   5.122  11.095  2.1514 -1.9898  0.3386
10019TIP3   OH251471   1.661   0.145  13.791 -0.5152  0.4400 -0.0027
10019TIP3    H151472   1.628   0.155  13.881  1.3404  1.0788  0.6256
10019TIP3    H251473   1.657   0.234  13.755  2.6959  0.9828  0.8723
10020TIP3   OH251474   6.065   3.461  14.760  0.2928 -0.5520 -0.5566
10020TIP3    H151475   6.073   3.383  14.815 -0.5926 -1.3653 -1.5688
10020TIP3    H251476   5.974   3.488  14.769  0.4396 -0.0101 -0.7066
10021TIP3   OH251477   6.003   4.108   1.022 -0.4178 -0.2699 -0.0125
10021TIP3    H151478   6.079   4.068   0.980  0.7573  1.2955  0.6127
10021TIP3    H251479   5.971   4.172   0.958  0.0589  0.5582  0.5710
10022TIP3   OH251480   4.418   1.355   4.007 -0.1091 -0.5155 -0.5141
10022TIP3    H151481   4.430   1.264   4.034  0.4166 -0.5228 -0.7480
10022TIP3    H251482   4.328   1.376   4.029  0.4521 -0.3436  1.7694
10023TIP3   OH251483   2.152   4.553   0.877 -0.0387 -0.0398 -0.4345
10023TIP3    H151484   2.125   4.500   0.802  2.1485  1.6337 -2.5024
10023TIP3    H251485   2.246   4.534   0.886  0.1297  1.2783  0.6344
10024TIP3   OH251486   0.154   5.649  15.767  0.3345 -0.4957 -0.2139
10024TIP3    H151487   0.175   5.728  15.815  1.3381 -0.3172 -0.9185
10024TIP3    H251488   0.226   5.639  15.704 -1.1773 -0.4463 -2.0053
10025TIP3   OH251489   6.552   6.258  11.681  0.0687 -0.0127  0.3755
10025TIP3    H151490   6.622   6.209  11.638 -1.3180  0.0346 -2.0048
10025TIP3    H251491   6.564   6.348  11.650 -0.2840  0.2508  0.9856
10026TIP3   OH251492   4.986   2.442  13.718 -0.2614 -0.3665  0.2339
10026TIP3    H151493   5.005   2.392  13.798 -1.0029  0.9973  1.3067
10026TIP3    H251494   5.072   2.472  13.688  0.1328 -1.7964 -0.1151
10027TIP3   OH251495   3.320   2.401   0.809 -0.5181  0.5628  0.0204
10027TIP3    H151496   3.347   2.489   0.833 -1.3710  1.5171 -2.3481
10027TIP3    H251497   3.383   2.343   0.852 -0.4055  2.2655  2.2298
10028TIP3   OH251498   0.202   3.090   5.662  0.2166  0.3685  0.3618
10028TIP3    H151499   0.273   3.078   5.725 -0.1770  0.5967  0.8484
10028TIP3    H251500   0.235   3.156   5.602  1.6806 -1.7889 -1.2892
10029TIP3   OH251501   6.742   0.702  11.059  0.2653 -0.4610  0.4272
10029TIP3    H151502   6.747   0.608  11.040  0.6747 -0.8418  2.2947
10029TIP3    H251503   6.741   0.744  10.973  0.5446 -2.1469 -0.4256
10030TIP3   OH251504   0.849   2.134  15.172 -0.3466  0.5862 -0.2725
10030TIP3    H151505   0.846   2.043  15.202  2.5320 -0.2347 -2.2401
10030TIP3    H251506   0.889   2.130  15.085  0.9883  3.8454  0.1013
10031TIP3   OH251507   0.411   1.692   0.894 -0.6027 -0.0592  0.1753
10031TIP3    H151508   0.428   1.649   0.978 -0.9841 -0.9789 -0.2180
10031TIP3    H251509   0.466   1.771   0.897 -0.7002 -0.0198  1.3325
10032TIP3   OH251510   2.785   4.153  14.480 -0.5285  0.2811 -0.1141
10032TIP3    H151511   2.849   4.185  14.418 -0.0390 -0.8191 -0.1895
10032TIP3    H251512   2.797   4.058  14.480 -1.4132  0.1615  0.6759
10033TIP3   OH251513   4.734   1.383  16.971  0.2435  0.5134  0.1729
10033TIP3    H151514   4.679   1.436  16.914 -0.5435 -0.8190 -0.3270
10033TIP3    H251515   4.672   1.330  17.021  1.0379 -0.5761  0.0281
10034TIP3   OH251516   5.377   6.333   6.361 -0.2410  0.0538  0.2582
10034TIP3    H151517   5.418   6.280   6.429  0.9291  0.5404 -0.0703
10034TIP3    H251518   5.410   6.296   6.279  1.9616  2.3959  0.0531
10035TIP3   OH251519   4.730   2.719   1.930 -0.3837 -0.0415 -0.5390
10035TIP3    H151520   4.662   2.699   1.867 -1.3331  1.0256  0.1338
10035TIP3    H251521   4.691   2.699   2.015 -0.7955  3.0311  0.0426
10036TIP3   OH251522   4.764   4.432  11.166  0.7291  0.3648 -0.1819
10036TIP3    H151523   4.800   4.507  11.213  0.0623  0.4921  0.1225
10036TIP3    H251524   4.672   4.455  11.151  0.8704  0.2154 -1.3129
10037TIP3   OH251525   4.877   4.236   4.925  0.0717 -0.0181  0.1839
10037TIP3    H151526   4.925   4.182   4.988 -0.2166 -0.5114 -0.0242
10037TIP3    H251527   4.812   4.283   4.978  0.1828 -0.0300  0.3310
10038TIP3   OH251528   3.377   0.256   3.027 -0.1772  0.3686 -0.2529
10038TIP3    H151529   3.455   0.233   2.976 -0.2782 -0.9908  0.1917
10038TIP3    H251530   3.412   0.288   3.110 -0.0824 -0.1022 -0.1093
10039TIP3   OH251531   6.477   2.685  15.225 -0.7246 -0.1226  0.2063
10039TIP3    H151532   6.461   2.738  15.303 -0.3520 -0.0955  0.2659
10039TIP3    H251533   6.416   2.612  15.232 -0.6946 -0.1165  0.5204
10040TIP3   OH251534   1.643   3.803  11.504 -0.2388  0.1979  0.1259
10040TIP3    H151535   1.698   3.869  11.461 -1.6701  1.1521 -0.2882
10040TIP3    H251536   1.668   3.720  11.464 -0.4268  0.8674 -1.4234
10041TIP3   OH251537   2.871   2.844  12.028 -0.1347  0.4683  0.3120
10041TIP3    H151538   2.916   2.869  12.109  0.6888  1.1694 -0.3467
10041TIP3    H251539   2.812   2.773  12.054  0.8170  0.0408  1.3346
10042TIP3   OH251540   0.490   0.518   3.058  0.2862 -0.5936  0.1766
10042TIP3    H151541   0.560   0.571   3.096 -0.1240 -0.3141  0.5515
10042TIP3    H251542   0.486   0.440   3.115  1.8352 -1.7146 -1.1981
10043TIP3   OH251543   0.542   1.244   1.858  0.3371 -0.5437  0.4055
10043TIP3    H151544   0.468   1.281   1.810 -0.5278 -2.8453 -0.0954
10043TIP3    H251545   0.514   1.246   1.949  0.1331 -0.3684  0.3406
10044TIP3   OH251546   6.412   1.765   0.266  0.2016  0.1061  0.0896
10044TIP3    H151547   6.362   1.846   0.258 -0.2587 -0.3100 -1.2980
10044TIP3    H251548   6.502   1.794   0.281 -0.0273  0.8678  0.0399
10045TIP3   OH251549   2.755   6.359  12.393  0.4809  0.2997 -0.1500
10045TIP3    H151550   2.670   6.395  12.371  1.5421  2.5312 -0.7823
10045TIP3    H251551   2.736   6.276  12.438 -1.9899  0.8963 -0.0503
10046TIP3   OH251552   4.833   5.885   5.107  0.9566  0.9761 -0.3486
10046TIP3    H151553   4.838   5.864   5.014  0.9771  1.1440 -0.3841
10046TIP3    H251554   4.743   5.915   5.120 -0.3598 -2.9260  0.4772
10047TIP3   OH251555   6.601   0.918  17.051 -0.0274 -0.0515  0.3433
10047TIP3    H151556   6.645   0.900  17.134 -0.3623 -1.4552  0.2341
10047TIP3    H251557   6.629   1.006  17.028  1.2005 -0.1810  1.2400
10048TIP3   OH251558   0.803   5.684   4.298  0.3059  0.0880  0.2626
10048TIP3    H151559   0.807   5.613   4.234  1.4978  1.1588 -0.8723
10048TIP3    H251560   0.894   5.710   4.311 -0.2444  2.8742 -1.0210
10049TIP3   OH251561   2.387   4.680   4.078  0.0106  0.6031 -0.3723
10049TIP3    H151562   2.292   4.686   4.080 -0.0411  0.1734 -1.5640
10049TIP3    H251563   2.406   4.588   4.097  0.2287  0.9030  0.9031
10050TIP3   OH251564   1.815   3.195   4.444  0.0544  0.3004  0.3547
10050TIP3    H151565   1.887   3.251   4.415 -0.2950  0.7325  0.3031
10050TIP3    H251566   1.841   3.106   4.418  0.7367  0.4037  0.6750
10051TIP3   OH251567   4.929   6.599   3.770 -0.3887  0.0568 -0.2874
10051TIP3    H151568   4.836   6.621   3.767 -0.5555 -0.5064  0.6122
10051TIP3    H251569   4.936   6.519   3.717 -0.7838 -1.1381  1.4415
10052TIP3   OH251570   4.478   4.604   4.466  0.0068  0.0941 -0.3924
10052TIP3    H151571   4.414   4.618   4.395 -1.3971  0.5013  0.9291
10052TIP3    H251572   4.433   4.545   4.526  0.7009  0.7824  0.8041
10053TIP3   OH251573   6.562   1.962   2.420 -0.0799  0.1029  0.4980
10053TIP3    H151574   6.520   1.987   2.338  0.1252 -0.2934  0.2695
10053TIP3    H251575   6.507   1.890   2.452  0.0432  0.0257  0.5329
10054TIP3   OH251576   4.805   6.425  11.272  0.1948  0.0713 -0.2498
10054TIP3    H151577   4.718   6.430  11.313 -0.2221  2.4287 -1.3223
10054TIP3    H251578   4.789   6.378  11.190  0.2529 -0.8891  0.2739
10055TIP3   OH251579   4.870   2.885   2.432 -0.7394 -0.8109  0.1910
10055TIP3    H151580   4.849   2.807   2.381 -1.5048 -1.3090  1.2711
10055TIP3    H251581   4.934   2.855   2.497  0.5364 -0.0917 -0.7145
10056TIP3   OH251582   2.784   4.440   5.010 -0.0226  0.1287 -0.3316
10056TIP3    H151583   2.756   4.531   5.015  1.3291  0.6077 -1.4135
10056TIP3    H251584   2.819   4.421   5.097 -2.3252 -0.0615  0.6097
10057TIP3   OH251585   5.886   0.496   1.709 -0.1050  0.0943 -0.4116
10057TIP3    H151586   5.826   0.570   1.698  1.2332  1.0795 -1.1545
10057TIP3    H251587   5.957   0.530   1.763  0.3252 -0.7621 -0.4226
10058TIP3   OH251588   0.678   6.510   2.293 -0.0763  0.4389 -0.4348
10058TIP3    H151589   0.653   6.498   2.202 -2.9186 -0.8120  0.4443
10058TIP3    H251590   0.597   6.495   2.342  1.3257  1.4087  2.2682
10059TIP3   OH251591   1.941   1.554  11.444 -0.1911  0.1230 -0.1415
10059TIP3    H151592   1.884   1.554  11.521 -2.3539 -0.7410 -1.7118
10059TIP3    H251593   1.971   1.644  11.436 -1.2119  0.5462  0.7759
10060TIP3   OH251594   6.613   0.416   2.021 -0.4730 -0.7907 -0.5003
10060TIP3    H151595   6.599   0.458   2.106  0.9321 -1.9415  0.3350
10060TIP3    H251596   6.665   0.479   1.971 -0.3593 -0.5658 -0.1009
10061TIP3   OH251597   2.343   2.674   4.669  0.0836  0.1679  0.0754
10061TIP3    H151598   2.375   2.711   4.751  3.3481 -0.1298 -0.9685
10061TIP3    H251599   2.344   2.748   4.607  0.0051 -0.1548 -0.3144
10062TIP3   OH251600   1.533   1.847   5.096  0.2162 -0.1428  0.1484
10062TIP3    H151601   1.494   1.932   5.114  0.0050 -0.2160  0.0328
10062TIP3    H251602   1.603   1.865   5.033 -0.6921 -0.2375 -0.8883
10063TIP3   OH251603   4.690   3.317  14.795  0.3902  0.3394  0.5004
10063TIP3    H151604   4.736   3.399  14.809  0.0230  0.4088  1.3253
10063TIP3    H251605   4.598   3.342  14.786  0.4300  0.1423 -0.5114
10064TIP3   OH251606   3.661   2.573   4.208 -0.0461 -0.3349  0.1054
10064TIP3    H151607   3.750   2.566   4.173  0.5902  0.6952  1.4372
10064TIP3    H251608   3.612   2.505   4.163  1.4814 -1.0900 -0.4737
10065TIP3   OH251609   2.015   4.114   1.631  0.1159  0.1549 -0.5147
10065TIP3    H151610   1.924   4.118   1.602  1.0081 -0.0771 -3.5222
10065TIP3    H251611   2.042   4.206   1.638 -1.0350  0.2843  2.8064
10066TIP3   OH251612   0.265   5.601  14.598  0.5531 -0.3909 -0.4256
10066TIP3    H151613   0.357   5.581  14.579  0.7191  0.3758 -0.4205
10066TIP3    H251614   0.216   5.533  14.553  1.1320 -0.9118 -0.2830
10067TIP3   OH251615   1.257   3.275  15.781 -0.3181  0.0769 -0.0953
10067TIP3    H151616   1.317   3.327  15.835 -0.7226  1.7386 -1.2327
10067TIP3    H251617   1.217   3.214  15.844  1.8059 -0.4121  0.8520
10068TIP3   OH251618   2.098   1.588  16.082  0.0807 -0.7943 -0.1998
10068TIP3    H151619   2.076   1.648  16.154 -2.7042 -1.9295 -0.0523
10068TIP3    H251620   2.026   1.598  16.021  1.4623 -1.3032 -1.9546
10069TIP3   OH251621   4.282   6.366  14.814  0.0704  0.3047 -0.0611
10069TIP3    H151622   4.361   6.350  14.761 -0.1197  0.4847 -0.4075
10069TIP3    H251623   4.307   6.438  14.872  0.2195  0.2453 -0.0510
10070TIP3   OH251624   2.796   0.660  15.395 -0.6830  0.2252  0.1850
10070TIP3    H151625   2.877   0.637  15.348 -0.8046  0.1796 -0.0029
10070TIP3    H251626   2.748   0.716  15.334 -0.3865  0.9853  0.6457
10071TIP3   OH251627   0.267   1.746   3.083  0.1987 -0.6986  0.1937
10071TIP3    H151628   0.298   1.673   3.029 -0.6756 -0.1694 -1.0500
10071TIP3    H251629   0.314   1.822   3.050 -1.7716 -0.0310 -1.1687
10072TIP3   OH251630   4.279   6.297  13.315 -0.3795 -0.0863  0.2703
10072TIP3    H151631   4.364   6.316  13.354 -0.1445 -0.0661 -0.2424
10072TIP3    H251632   4.267   6.365  13.248 -1.2589  0.5184  1.0263
10073TIP3   OH251633   0.459   3.081  16.305  0.3574 -0.2379  0.1326
10073TIP3    H151634   0.473   3.142  16.377 -0.7319  0.0223  0.1397
10073TIP3    H251635   0.381   3.032  16.331  0.2336 -0.4635 -0.6542
10074TIP3   OH251636   5.386   4.963  16.984  0.0303  0.7597 -0.4175
10074TIP3    H151637   5.481   4.954  16.975 -0.2338 -1.7932 -0.9905
10074TIP3    H251638   5.373   4.989  17.076  1.3042  1.5488 -0.4564
10075TIP3   OH251639   6.273   5.498  11.367  0.7412  0.0226 -0.3574
10075TIP3    H151640   6.288   5.585  11.332  1.1700  0.3609  0.6519
10075TIP3    H251641   6.287   5.507  11.461  0.4995 -1.0668 -0.2084
10076TIP3   OH251642   4.181   1.261   4.375  0.0011  0.1123 -0.3314
10076TIP3    H151643   4.248   1.325   4.397 -1.3594  1.3236  0.4079
10076TIP3    H251644   4.182   1.198   4.447  0.8054 -0.2473 -0.6620
10077TIP3   OH251645   6.064   6.386   2.032 -0.3198  0.1121  0.2022
10077TIP3    H151646   5.983   6.337   2.049  0.6990 -1.8431 -0.4668
10077TIP3    H251647   6.037   6.460   1.977 -1.6146 -0.6653 -0.2150
10078TIP3   OH251648   0.527   5.315   1.580  0.1010 -0.0377  0.2254
10078TIP3    H151649   0.603   5.347   1.629  1.2448 -0.4159 -1.2814
10078TIP3    H251650   0.539   5.220   1.577 -0.5777 -0.1266  0.2071
10079TIP3   OH251651   3.125   2.993  16.085  0.0668 -0.1263 -0.0792
10079TIP3    H151652   3.127   2.945  16.168 -0.2048 -0.0442 -0.0266
10079TIP3    H251653   3.032   3.001  16.064  0.1431 -0.3178 -0.4946
10080TIP3   OH251654   2.467   2.877   0.802  0.1940  0.0127 -0.0230
10080TIP3    H151655   2.513   2.847   0.881  0.5103 -0.5162 -0.4056
10080TIP3    H251656   2.453   2.798   0.751 -0.7162  0.2470 -0.1420
10081TIP3   OH251657   3.047   0.735  10.694  0.1322  0.3646 -0.6778
10081TIP3    H151658   3.138   0.735  10.664  0.2932 -1.5729 -0.2476
10081TIP3    H251659   3.031   0.645  10.723 -1.5385  0.9890  0.4153
10082TIP3   OH251660   6.187   5.398  16.297 -0.0161 -0.5019  0.2782
10082TIP3    H151661   6.245   5.410  16.372  0.8085 -1.2440 -0.2146
10082TIP3    H251662   6.099   5.403  16.333  0.3664 -0.4105  1.2242
10083TIP3   OH251663   3.281   1.741   1.879 -0.4091 -0.2528  0.3397
10083TIP3    H151664   3.217   1.683   1.837 -2.6535  2.5389 -0.2818
10083TIP3    H251665   3.364   1.718   1.838 -1.2001 -3.0393  0.1725
10084TIP3   OH251666   1.532   1.300  16.853  0.0993 -0.3073 -0.2077
10084TIP3    H151667   1.506   1.277  16.764  2.6142  0.8276 -1.2768
10084TIP3    H251668   1.613   1.251  16.868  0.9353  1.2848  0.6100
10085TIP3   OH251669   6.491   5.973  15.298  0.6116  0.3524 -0.5008
10085TIP3    H151670   6.581   6.004  15.291  1.6546 -2.6626 -1.2696
10085TIP3    H251671   6.462   5.963  15.207 -0.3207  0.7585 -0.2563
10086TIP3   OH251672   2.926   2.862  12.331 -0.3768  0.5592  0.2830
10086TIP3    H151673   2.924   2.925  12.403 -0.0997  2.2312 -1.1162
10086TIP3    H251674   3.020   2.852  12.311 -0.3943 -0.6377  0.7801
10087TIP3   OH251675   1.899   4.453   0.080 -0.0974  0.6134  0.0670
10087TIP3    H151676   1.874   4.518   0.015 -0.3760  0.2769 -0.1653
10087TIP3    H251677   1.876   4.492   0.164 -1.9202  0.1056 -0.1605
10088TIP3   OH251678   5.133   3.492  16.765  0.1894 -0.2571  0.1279
10088TIP3    H151679   5.064   3.521  16.705  1.2442 -0.2066 -1.0849
10088TIP3    H251680   5.158   3.406  16.733  1.0103 -0.0790  0.2748
10089TIP3   OH251681   3.951   3.851  17.143 -0.0648 -0.1567  0.5684
10089TIP3    H151682   3.922   3.924  17.197 -1.1562 -0.5257  0.4988
10089TIP3    H251683   4.009   3.890  17.078 -0.4205  0.6057  0.7088
10090TIP3   OH251684   3.571   0.485   5.963  0.1509 -0.6921 -0.5485
10090TIP3    H151685   3.633   0.437   5.909  0.4583 -2.2965  1.1475
10090TIP3    H251686   3.610   0.483   6.051  0.1606  2.6954 -0.4237
10091TIP3   OH251687   6.267   2.738   5.396 -0.2934  0.0311  0.1138
10091TIP3    H151688   6.227   2.732   5.309 -1.3158  0.3478  0.5616
10091TIP3    H251689   6.339   2.799   5.385 -0.3472 -0.0205 -0.5433
10092TIP3   OH251690   4.903   1.676   4.323  0.5027 -0.1964  0.6660
10092TIP3    H151691   4.872   1.624   4.398  1.0784 -1.8425 -0.2094
10092TIP3    H251692   4.919   1.763   4.360 -0.9730 -0.4870  2.0573
10093TIP3   OH251693   1.546   0.158   5.508 -0.3912 -0.6458  0.8826
10093TIP3    H151694   1.638   0.144   5.488 -0.2033 -0.9863  1.9219
10093TIP3    H251695   1.502   0.157   5.424  0.3252 -2.1892  0.5188
10094TIP3   OH251696   0.647   1.880  15.124 -0.0466 -0.1432  0.0457
10094TIP3    H151697   0.640   1.828  15.044  1.8578  0.3474 -0.4597
10094TIP3    H251698   0.613   1.966  15.099 -0.0076 -0.1568 -0.0542
10095TIP3   OH251699   3.756   6.217  15.580  0.1175  0.0659  0.7310
10095TIP3    H151700   3.783   6.228  15.489 -0.7505 -0.0583  0.4588
10095TIP3    H251701   3.685   6.279  15.592 -1.1799 -1.3837  0.7162
10096TIP3   OH251702   6.562   1.051  11.175  0.0647 -0.0586  0.1542
10096TIP3    H151703   6.624   0.979  11.173  0.8118  0.5923 -0.1564
10096TIP3    H251704   6.499   1.031  11.106 -0.3378 -0.9448  0.7661
10097TIP3   OH251705   2.193   4.653  16.043 -0.2335 -0.6874 -0.4364
10097TIP3    H151706   2.237   4.686  15.965 -1.0402 -0.2340 -0.7085
10097TIP3    H251707   2.159   4.567  16.017  1.1846 -1.4076  0.0322
10098TIP3   OH251708   3.496   2.970  15.658 -0.3771 -0.4384  0.3104
10098TIP3    H151709   3.556   2.926  15.719 -0.4722 -0.3414  0.4755
10098TIP3    H251710   3.417   2.986  15.710 -0.5075 -0.4731  0.1227
10099TIP3   OH251711   1.350   4.183  12.453  0.8331 -0.4328  0.0359
10099TIP3    H151712   1.260   4.177  12.485  0.1030 -0.7903 -1.9931
10099TIP3    H251713   1.395   4.237  12.518 -0.9030 -0.0441  0.9479
10100TIP3   OH251714   3.457   1.772   0.057  0.3045 -0.3846 -0.4698
10100TIP3    H151715   3.413   1.761   0.142 -1.0712  0.8757 -0.9966
10100TIP3    H251716   3.548   1.789   0.080 -0.1895  0.7204  0.8256
10101TIP3   OH251717   1.697   2.743  15.843 -0.1117 -0.0411 -0.1765
10101TIP3    H151718   1.627   2.697  15.796  1.0027 -2.1524  0.1632
10101TIP3    H251719   1.656   2.769  15.926 -0.4444 -1.4938  0.1368
10102TIP3   OH251720   4.544   0.994  16.424  0.2171 -0.2571  0.3879
10102TIP3    H151721   4.562   1.018  16.515 -1.7315  2.2981  0.1374
10102TIP3    H251722   4.453   0.967  16.423 -0.2734  1.3729 -1.1061
10103TIP3   OH251723   4.609   5.315   0.545 -0.4793 -0.5147  0.6364
10103TIP3    H151724   4.684   5.367   0.574 -1.3493  0.9263  0.3678
10103TIP3    H251725   4.604   5.243   0.607  1.3767 -0.8440  0.4072
10104TIP3   OH251726   1.242   0.186   4.258  0.4660  0.1700 -0.1426
10104TIP3    H151727   1.206   0.117   4.313 -0.8305  1.1830  0.3147
10104TIP3    H251728   1.337   0.176   4.265  0.3559  0.5545  2.6642
10105TIP3   OH251729   0.189   2.017  15.329 -0.1735 -0.4686  0.4010
10105TIP3    H151730   0.175   1.970  15.411 -1.1605  0.9329  1.0381
10105TIP3    H251731   0.260   2.078  15.348  0.5693 -1.1395 -0.2002
10106TIP3   OH251732   0.607   3.271  16.148  0.4469 -0.6824 -0.3151
10106TIP3    H151733   0.579   3.187  16.186 -1.8488  0.0573 -0.2899
10106TIP3    H251734   0.606   3.255  16.054  0.5959 -0.8490 -0.2889
10107TIP3   OH251735   6.040   3.218   1.749  0.6545 -0.2348 -0.3160
10107TIP3    H151736   6.021   3.309   1.727 -0.6139 -0.7978 -1.5969
10107TIP3    H251737   5.982   3.197   1.822 -0.6008 -0.6648 -1.4342
10108TIP3   OH251738   2.184   1.853  14.817 -0.1352  0.0283  0.3098
10108TIP3    H151739   2.268   1.820  14.847 -0.0001  0.5693  0.5237
10108TIP3    H251740   2.135   1.775  14.791  0.3832 -0.2940  0.3075
10109TIP3   OH251741   6.211   2.509  14.280  0.0203  0.0286  0.1741
10109TIP3    H151742   6.295   2.524  14.323 -0.7907  1.1260  1.4341
10109TIP3    H251743   6.230   2.514  14.186  1.1400  1.4809  0.4692
10110TIP3   OH251744   4.606   1.177  13.258 -0.4422  0.1792  0.4296
10110TIP3    H151745   4.571   1.155  13.171  0.1799  1.0186 -0.0322
10110TIP3    H251746   4.669   1.107  13.277  0.9062  1.0925 -0.6660
10111TIP3   OH251747   3.693   2.163  11.709 -0.1699 -0.1220 -0.3285
10111TIP3    H151748   3.622   2.128  11.762 -0.3610  0.8154  0.0339
10111TIP3    H251749   3.692   2.110  11.629 -0.0028 -1.4065  0.5085
10112TIP3   OH251750   0.943   2.936   4.953 -0.3785  0.1456  0.0678
10112TIP3    H151751   1.028   2.893   4.959  0.9164  2.5751  0.0723
10112TIP3    H251752   0.898   2.914   5.034  1.9205  2.1337  1.9739
10113TIP3   OH251753   5.559   1.607  11.323 -0.0601 -0.2328  0.0505
10113TIP3    H151754   5.587   1.698  11.335 -1.7818  0.3062  0.1183
10113TIP3    H251755   5.587   1.585  11.234 -3.0330  1.6767 -1.4522
10114TIP3   OH251756   2.465   4.771  11.685 -0.1460 -0.1044 -0.1451
10114TIP3    H151757   2.501   4.855  11.657 -1.6823  0.3255 -0.8615
10114TIP3    H251758   2.380   4.765  11.641  0.7780 -2.9157 -1.6860
10115TIP3   OH251759   4.338   1.081  14.148 -0.2498 -0.1717 -0.0956
10115TIP3    H151760   4.244   1.068  14.133 -0.0695  1.1504 -2.5125
10115TIP3    H251761   4.343   1.131  14.230 -1.6509  0.1192 -0.1817
10116TIP3   OH251762   4.501   0.449  10.763  0.0814  0.0462 -0.5456
10116TIP3    H151763   4.426   0.404  10.723 -1.1534  1.7906 -0.2440
10116TIP3    H251764   4.528   0.514  10.698  0.6718  0.1277 -0.2234
10117TIP3   OH251765   2.487   1.416  17.086  0.0888  0.1237  0.0207
10117TIP3    H151766   2.433   1.493  17.067 -1.7482 -1.3131 -0.7489
10117TIP3    H251767   2.458   1.386  17.171 -0.5669 -0.8365 -0.5314
10118TIP3   OH251768   2.411   0.969   3.578 -0.3612 -0.2641 -0.3368
10118TIP3    H151769   2.457   0.887   3.597  1.2895  0.6003 -0.5564
10118TIP3    H251770   2.332   0.965   3.633 -0.1220 -1.8265 -0.0790
10119TIP3   OH251771   1.484   3.119  14.841 -0.3564 -0.0408  0.4057
10119TIP3    H151772   1.417   3.152  14.902 -0.3615 -0.8232  0.8264
10119TIP3    H251773   1.538   3.061  14.895 -0.2703 -0.6230 -0.3101
10120TIP3   OH251774   5.884   6.676  15.987  0.0892  0.5532  0.1582
10120TIP3    H151775   5.945   6.663  15.914  0.2973  0.0490  0.4254
10120TIP3    H251776   5.803   6.706  15.945  0.5680  1.3939 -0.1849
10121TIP3   OH251777   3.182   0.545   4.093  0.1956 -0.1106  0.1713
10121TIP3    H151778   3.139   0.505   4.168 -0.4260  0.3324  0.0502
10121TIP3    H251779   3.117   0.606   4.057  0.7904  0.3016 -0.2165
10122TIP3   OH251780   6.076   6.577   0.118 -0.3762  0.1379 -0.8928
10122TIP3    H151781   6.112   6.584   0.030 -2.1694  2.4901 -1.4853
10122TIP3    H251782   6.126   6.641   0.170  0.2330 -0.7739 -0.3390
10123TIP3   OH251783   3.177   5.870  15.930 -0.1843 -0.0373 -0.4118
10123TIP3    H151784   3.181   5.794  15.989  0.1245  0.2399 -0.0784
10123TIP3    H251785   3.108   5.847  15.867  0.1770 -0.7650 -0.5471
10124TIP3   OH251786   6.414   6.739   2.642  0.2721  0.5044 -0.3310
10124TIP3    H151787   6.336   6.732   2.586  0.4621  0.9097 -0.6454
10124TIP3    H251788   6.383   6.715   2.729 -0.0129 -0.2122 -0.6214
10125TIP3   OH251789   6.589   6.347   4.595 -0.2834 -0.0090  0.0948
10125TIP3    H151790   6.569   6.275   4.655 -0.9742 -0.1720 -0.3226
10125TIP3    H251791   6.634   6.306   4.522  0.7789  0.2267  0.6085
10126TIP3   OH251792   1.532   6.512  16.483  0.1454 -0.5346  0.3170
10126TIP3    H151793   1.522   6.545  16.394  2.8410 -0.4225  0.0067
10126TIP3    H251794   1.558   6.588  16.534 -1.0863 -0.6634  1.1546
10127TIP3   OH251795   3.437   6.370   5.452 -0.6557 -0.3631  0.0017
10127TIP3    H151796   3.413   6.350   5.543 -0.5983 -0.5238 -0.0178
10127TIP3    H251797   3.447   6.465   5.450  0.4737 -0.4604  0.4378
10128TIP3   OH251798   1.126   6.049   6.607 -0.0127  0.6720 -0.4368
10128TIP3    H151799   1.050   6.016   6.558  0.2625  1.1759 -1.2212
10128TIP3    H251800   1.137   5.988   6.679  0.8545 -1.2748 -2.1819
10129TIP3   OH251801   3.378   5.707   3.960  0.3446  0.0815 -0.1440
10129TIP3    H151802   3.369   5.621   4.000  2.0106 -0.4634 -0.8832
10129TIP3    H251803   3.472   5.723   3.959  0.0480  2.0006  0.1400
10130TIP3   OH251804   0.058   6.664  15.913 -0.0429  0.3304 -0.3229
10130TIP3    H151805  -0.026   6.697  15.883 -1.0319 -2.6042 -0.9347
10130TIP3    H251806   0.091   6.613  15.839  0.8472 -1.0601  1.0146
10131TIP3   OH251807   4.962   3.555  12.836 -0.1425  0.0380  0.0828
10131TIP3    H151808   4.995   3.624  12.893 -0.7442  0.9026 -0.6047
10131TIP3    H251809   5.039   3.528  12.785 -0.1098  0.8546 -0.3096
10132TIP3   OH251810   4.054   3.145   1.130  0.2799 -0.2781  0.6635
10132TIP3    H151811   4.025   3.236   1.139 -0.3152 -0.4320  0.3298
10132TIP3    H251812   4.117   3.133   1.201 -0.9131 -0.1071  1.7801
10133TIP3   OH251813   5.809   3.837  14.507  0.2482 -0.2563  0.3079
10133TIP3    H151814   5.790   3.925  14.540  1.5445 -0.4153  1.5406
10133TIP3    H251815   5.726   3.808  14.468  0.0861  1.8707 -0.9999
10134TIP3   OH251816   1.129   5.809  11.371 -0.2024 -0.7747 -0.0692
10134TIP3    H151817   1.061   5.871  11.344  1.6523  1.0291 -0.7641
10134TIP3    H251818   1.098   5.724  11.340 -0.9756  0.3772 -2.5524
10135TIP3   OH251819   3.639   0.174  14.561  0.1154 -0.7475 -0.9577
10135TIP3    H151820   3.690   0.102  14.597  1.9466  0.9757  0.0277
10135TIP3    H251821   3.675   0.188  14.474  0.1115 -0.7053 -0.9527
10136TIP3   OH251822   3.696   6.155  11.742 -0.6870  0.0444 -0.1323
10136TIP3    H151823   3.723   6.222  11.805 -0.3877 -0.6309  0.4624
10136TIP3    H251824   3.758   6.084  11.754 -2.3080 -1.2677  0.8156
10137TIP3   OH251825   3.791   1.371   3.983 -0.0809 -0.2998 -0.5304
10137TIP3    H151826   3.817   1.279   3.978  0.5911  0.0021 -3.3204
10137TIP3    H251827   3.831   1.412   3.906  0.1037  2.4673  0.9741
10138TIP3   OH251828   1.512   2.662   0.767 -0.2910 -0.4012  0.6100
10138TIP3    H151829   1.508   2.698   0.678 -1.8399 -0.5187  0.6171
10138TIP3    H251830   1.539   2.571   0.755  0.2421 -0.2022  0.3147
10139TIP3   OH251831   5.518   0.127  11.455 -0.0733  0.2466 -0.0704
10139TIP3    H151832   5.538   0.042  11.414  0.1683 -0.4567  1.4605
10139TIP3    H251833   5.591   0.143  11.513  0.8603  2.4981 -1.8014
10140TIP3   OH251834   6.564   4.439  12.692  0.0130  0.2146 -0.1329
10140TIP3    H151835   6.490   4.497  12.676  0.1234 -0.1109 -1.8961
10140TIP3    H251836   6.524   4.353  12.706  0.0494 -0.0282 -1.4216
10141TIP3   OH251837   3.242   0.226   3.474 -0.0168 -0.3630 -0.4893
10141TIP3    H151838   3.230   0.302   3.418  2.9002  2.4884  2.5274
10141TIP3    H251839   3.191   0.245   3.553 -1.2705 -2.7225 -0.6671
10142TIP3   OH251840   1.777   5.225   3.777 -0.0314 -0.3333 -0.0591
10142TIP3    H151841   1.724   5.281   3.834  0.2736  0.4093 -0.5000
10142TIP3    H251842   1.798   5.149   3.832 -1.6714 -0.7237  0.0656
10143TIP3   OH251843   0.975   3.832  14.919  0.3732 -0.2790  0.1256
10143TIP3    H151844   0.955   3.923  14.897 -0.2196 -0.5511 -0.5099
10143TIP3    H251845   1.065   3.819  14.890  0.7203  0.3231  0.9310
10144TIP3   OH251846   3.545   3.854  11.936 -0.2688 -0.0384 -0.0091
10144TIP3    H151847   3.564   3.776  11.884 -0.2834  0.0728 -0.1803
10144TIP3    H251848   3.462   3.834  11.980 -0.5423  0.0914 -0.4658
10145TIP3   OH251849   0.452   3.548   2.438  0.2245  0.2743  0.0901
10145TIP3    H151850   0.498   3.596   2.370  2.0059 -1.5534 -0.0112
10145TIP3    H251851   0.369   3.522   2.397  0.7831  0.1887 -0.9870
10146TIP3   OH251852   5.041   4.741   2.842  0.0082 -0.1216 -0.3138
10146TIP3    H151853   5.053   4.835   2.831 -0.6828  0.0245  0.1123
10146TIP3    H251854   5.046   4.727   2.937 -2.1632 -0.1570 -0.1616
10147TIP3   OH251855   3.580   1.419  10.950 -0.2249 -0.4978 -0.6454
10147TIP3    H151856   3.513   1.438  10.884 -0.3437  1.9025  0.1083
10147TIP3    H251857   3.663   1.437  10.906 -0.3112  1.2620 -0.1241
10148TIP3   OH251858   0.433   6.077   2.016  0.1425 -0.6502  0.4004
10148TIP3    H151859   0.423   5.995   2.065  0.2277  0.6898  2.7106
10148TIP3    H251860   0.442   6.145   2.083 -1.0177  1.4198 -1.4655
10149TIP3   OH251861   0.714   6.715  12.810  0.3239 -0.2859 -0.2594
10149TIP3    H151862   0.784   6.698  12.874  0.9165  2.7008 -0.0482
10149TIP3    H251863   0.744   6.670  12.731  1.1972 -1.2584  0.5961
10150TIP3   OH251864   3.682   2.619  17.158 -0.0729  0.1278  0.3533
10150TIP3    H151865   3.727   2.557  17.215  0.1203  1.1273  1.3182
10150TIP3    H251866   3.740   2.628  17.082  0.8549  0.5949  1.0986
10151TIP3   OH251867   4.781   1.179   2.704  0.3770 -0.0768 -0.1780
10151TIP3    H151868   4.721   1.241   2.662 -0.5684 -2.0716 -1.8753
10151TIP3    H251869   4.763   1.095   2.661  0.7461 -1.8098  2.8956
10152TIP3   OH251870   0.312   0.469   4.205  0.3634 -0.2148 -0.3781
10152TIP3    H151871   0.303   0.534   4.275  1.0160 -0.4185 -0.0970
10152TIP3    H251872   0.380   0.505   4.148  1.2351 -0.9728  0.1614
10153TIP3   OH251873   1.853   0.027  11.619  0.1365  0.2821  0.7377
10153TIP3    H151874   1.921  -0.017  11.568 -1.5994 -1.8505  0.2296
10153TIP3    H251875   1.837   0.109  11.571 -0.8513 -1.2921 -1.7282
10154TIP3   OH251876   0.742   3.830   5.648  0.1667  0.0482 -0.1125
10154TIP3    H151877   0.720   3.917   5.682 -2.6772 -1.6582  2.6216
10154TIP3    H251878   0.816   3.802   5.701 -0.0800  0.0792  0.2539
10155TIP3   OH251879   0.421   1.584  15.146  0.3865  0.1814  0.1228
10155TIP3    H151880   0.368   1.661  15.126 -0.3419 -0.1263  0.8263
10155TIP3    H251881   0.495   1.617  15.195  0.0027  0.4272  0.5439
10156TIP3   OH251882   4.960   6.715  13.895  0.0643 -0.0708  0.4588
10156TIP3    H151883   5.055   6.705  13.908  0.3623  1.1612 -0.6455
10156TIP3    H251884   4.945   6.809  13.906 -1.2108 -0.4174  1.7226
10157TIP3   OH251885   1.892   6.115   2.272  0.4310  0.7136  0.6717
10157TIP3    H151886   1.810   6.102   2.224  0.6973  0.8207  0.1877
10157TIP3    H251887   1.960   6.111   2.206  0.8397  0.4273  1.1041
10158TIP3   OH251888   1.900   4.554  14.884  0.0275  0.2579  0.2644
10158TIP3    H151889   1.807   4.546  14.907  0.5123 -2.2048  1.6095
10158TIP3    H251890   1.921   4.470  14.844  1.4730  1.1219 -0.8022
10159TIP3   OH251891   0.418   5.334  12.291  0.4682  0.2288  0.7523
10159TIP3    H151892   0.341   5.335  12.234  1.2432 -1.0871 -0.3309
10159TIP3    H251893   0.446   5.425  12.296  2.2725 -0.0274 -3.5266
10160TIP3   OH251894   3.328   0.593   6.116  0.2789  0.1647 -0.3729
10160TIP3    H151895   3.418   0.563   6.103  0.2329 -0.2884  0.3853
10160TIP3    H251896   3.326   0.679   6.073  1.4454  0.7908  0.7885
10161TIP3   OH251897   4.075   3.917  13.665 -0.1653  0.5091 -0.0856
10161TIP3    H151898   4.113   3.961  13.741 -1.2851 -0.0383  0.8253
10161TIP3    H251899   4.004   3.974  13.637  0.0394  0.5505 -0.5290
10162TIP3   OH251900   0.095   3.226  16.499 -0.3534  0.0379 -0.3039
10162TIP3    H151901   0.165   3.164  16.519 -0.0347  0.3487 -0.4380
10162TIP3    H251902   0.025   3.172  16.462 -1.1672 -0.6132  2.1113
10163TIP3   OH251903   1.502   4.977  12.275  0.3625  0.1848 -0.7890
10163TIP3    H151904   1.422   4.958  12.324 -0.0689 -1.1940 -1.9984
10163TIP3    H251905   1.558   5.023  12.338 -0.5745 -0.6545  0.6984
10164TIP3   OH251906   0.410   4.102   3.894 -0.3318  0.0949 -0.3220
10164TIP3    H151907   0.484   4.130   3.948 -1.2417 -0.8161  1.4132
10164TIP3    H251908   0.370   4.184   3.865  0.1459  0.5985  0.4172
10165TIP3   OH251909   1.902   3.533   1.658 -0.1435 -0.0734 -0.0071
10165TIP3    H151910   1.899   3.589   1.736  0.4979  0.7696 -0.5830
10165TIP3    H251911   1.812   3.500   1.649 -0.2496 -0.0672  1.0166
10166TIP3   OH251912   4.481   4.172   4.841  0.2433 -0.2602 -0.1084
10166TIP3    H151913   4.467   4.117   4.918  0.7240 -1.5584 -0.9175
10166TIP3    H251914   4.394   4.183   4.802 -0.0160  0.5036  0.6912
10167TIP3   OH251915   2.227   1.062   0.043 -0.1249 -0.1236 -0.3514
10167TIP3    H151916   2.214   1.154   0.066  0.9924  0.0223 -0.2550
10167TIP3    H251917   2.181   1.052  -0.040 -1.3109  0.2005  0.2579
10168TIP3   OH251918   3.601   6.358   3.064  0.0888 -0.1445  0.1519
10168TIP3    H151919   3.580   6.322   3.150 -0.2729  1.4012  0.7195
10168TIP3    H251920   3.517   6.386   3.029  0.2873 -0.4188 -0.5519
10169TIP3   OH251921   6.320   0.006  12.011  0.0904 -0.5364  0.4146
10169TIP3    H151922   6.266   0.038  12.084  0.3327  0.6043  0.1092
10169TIP3    H251923   6.257  -0.021  11.944 -0.1272  1.0741 -0.0628
10170TIP3   OH251924   4.230   2.907  17.031 -0.3240 -0.6022 -0.3663
10170TIP3    H151925   4.294   2.836  17.024 -0.1523 -0.5339  0.4950
10170TIP3    H251926   4.188   2.894  17.116  1.0725  1.4652  0.6678
10171TIP3   OH251927   3.156   5.847  16.526  0.0838  0.1078 -0.0246
10171TIP3    H151928   3.075   5.820  16.568  0.9496  1.2084  2.4505
10171TIP3    H251929   3.174   5.935  16.561  2.9548 -0.5941  0.4381
10172TIP3   OH251930   1.688   2.645  12.627 -0.4454 -0.1239  0.4322
10172TIP3    H151931   1.706   2.683  12.541  1.3199 -1.6301  0.1050
10172TIP3    H251932   1.621   2.702  12.665 -0.1493  1.4288 -1.3184
10173TIP3   OH251933   2.422   2.732  13.668  0.5640 -0.2178  0.0848
10173TIP3    H151934   2.328   2.748  13.679  1.0210  1.8783  1.2476
10173TIP3    H251935   2.454   2.711  13.756  1.1231 -1.3129 -0.3709
10174TIP3   OH251936   1.102   4.458  13.949  0.0083  0.2105 -0.1878
10174TIP3    H151937   1.054   4.473  14.030 -2.4743  0.8258 -1.7331
10174TIP3    H251938   1.115   4.363  13.946 -3.0806 -0.2582 -0.7723
10175TIP3   OH251939   4.322   5.394  14.095 -0.4945  0.5938 -0.2097
10175TIP3    H151940   4.314   5.298  14.095  0.0087  0.5295  1.9316
10175TIP3    H251941   4.383   5.412  14.024 -1.1096 -0.6291 -1.0736
10176TIP3   OH251942   6.379   0.664  16.050  0.1912 -0.0504 -0.5669
10176TIP3    H151943   6.290   0.651  16.084  0.2923 -1.0564 -0.6769
10176TIP3    H251944   6.427   0.587  16.079  1.3816  1.1123  0.6193
10177TIP3   OH251945   6.284   0.129   1.697 -0.7539  0.2154 -0.6812
10177TIP3    H151946   6.345   0.088   1.758 -1.1970  1.5350  0.6709
10177TIP3    H251947   6.338   0.192   1.649 -0.7543  0.3717 -0.4773
10178TIP3   OH251948   5.608   6.192   1.347 -0.4433 -0.3346  0.6816
10178TIP3    H151949   5.669   6.123   1.376 -0.6864 -0.5862  0.5910
10178TIP3    H251950   5.562   6.153   1.273 -0.0902  0.1789  0.1868
10179TIP3   OH251951   1.171   4.312  16.532  0.1200  0.0683  0.1658
10179TIP3    H151952   1.085   4.308  16.490  0.0307 -1.8078  0.4780
10179TIP3    H251953   1.166   4.388  16.590 -1.5835 -0.4162  0.6829
10180TIP3   OH251954   4.236   3.179  16.702 -0.4425  0.1710  0.1622
10180TIP3    H151955   4.219   3.088  16.726  0.7867  0.3039  1.5832
10180TIP3    H251956   4.165   3.228  16.743 -0.5269 -0.0386  0.2689
10181TIP3   OH251957   6.117   6.354   4.326 -0.2341 -0.7464  0.1650
10181TIP3    H151958   6.132   6.273   4.277 -1.5348 -1.5949  1.1502
10181TIP3    H251959   6.174   6.347   4.403 -0.4548 -0.7855  0.3242
10182TIP3   OH251960   3.928   4.909  12.700  0.3813  0.2536  0.2814
10182TIP3    H151961   3.854   4.885  12.756 -1.6148  2.8782 -1.0962
10182TIP3    H251962   3.906   4.871  12.615  0.0245  1.9665 -0.4170
10183TIP3   OH251963   3.868   0.369   0.789  0.4547 -0.7645  0.5904
10183TIP3    H151964   3.892   0.456   0.820 -2.0006  0.0666  0.2092
10183TIP3    H251965   3.894   0.310   0.860  0.5993  0.4440  1.5545
10184TIP3   OH251966   0.178   4.779  16.185 -0.2233 -0.1472  0.7037
10184TIP3    H151967   0.155   4.853  16.242  1.4992  0.6544  0.4011
10184TIP3    H251968   0.268   4.759  16.208 -1.3475 -3.6713  2.3730
10185TIP3   OH251969   1.380   4.247  11.597 -0.4100  0.2076  0.2280
10185TIP3    H151970   1.346   4.174  11.546  0.8590  0.3445 -0.8632
10185TIP3    H251971   1.321   4.320  11.579  0.5024  0.4808 -1.7364
10186TIP3   OH251972   2.614   1.725  13.810 -0.2990 -0.6442  0.0768
10186TIP3    H151973   2.583   1.763  13.892  1.8343 -0.5533  0.8599
10186TIP3    H251974   2.675   1.789  13.774  0.2484 -1.5296 -0.6061
10187TIP3   OH251975   3.307   5.058  15.414  0.3624  0.0651 -0.2259
10187TIP3    H151976   3.239   5.024  15.473 -0.2006 -1.4125 -1.6785
10187TIP3    H251977   3.356   5.121  15.467 -0.5343 -0.7583  1.6261
10188TIP3   OH251978   2.838   5.594  13.272  0.1050  0.2176  0.1298
10188TIP3    H151979   2.801   5.528  13.331  0.6321  0.1854  0.4258
10188TIP3    H251980   2.932   5.575  13.270  0.2167  0.7695 -0.0227
10189TIP3   OH251981   1.916   0.267   4.226 -0.2626  0.0725  0.2741
10189TIP3    H151982   1.856   0.244   4.296  0.7827 -2.4122  0.4299
10189TIP3    H251983   2.003   0.246   4.261  0.2233 -1.8201 -1.9242
10190TIP3   OH251984   5.734   0.479   3.425 -0.8775 -0.1880 -0.7663
10190TIP3    H151985   5.823   0.490   3.458 -0.1083 -2.2790 -1.9942
10190TIP3    H251986   5.722   0.549   3.361 -1.7096  2.7362  2.4721
10191TIP3   OH251987   3.198   2.035  13.440  0.3205 -0.0544  0.1547
10191TIP3    H151988   3.287   2.061  13.463  0.0345  0.7280  0.4038
10191TIP3    H251989   3.209   1.974  13.367  1.0799 -0.3015  0.4675
10192TIP3   OH251990   2.945   4.747   1.849  0.5244  0.0777  0.3880
10192TIP3    H151991   3.022   4.758   1.904  0.0765 -3.3141  1.8265
10192TIP3    H251992   2.977   4.699   1.773 -0.0688 -0.9832  0.8010
10193TIP3   OH251993   4.494   2.672  10.633  0.3245  0.5043 -0.6699
10193TIP3    H151994   4.482   2.646  10.725 -0.5637 -0.4995 -1.0669
10193TIP3    H251995   4.555   2.607  10.598 -0.6447 -0.1086 -1.2352
10194TIP3   OH251996   1.461   0.332   2.820  0.1751 -0.2486 -0.2783
10194TIP3    H151997   1.538   0.387   2.805 -0.6941  0.7926 -1.0090
10194TIP3    H251998   1.472   0.259   2.760  1.5456 -1.1174  0.9925
10195TIP3   OH251999   2.522   3.021  10.803 -0.6294  0.1909 -0.1125
10195TIP3    H152000   2.609   3.037  10.765 -0.2781  0.7430  0.9122
10195TIP3    H252001   2.507   2.928  10.790 -0.7438  0.4504 -2.0728
10196TIP3   OH252002   5.741   3.145  16.494  0.6411  0.2313 -0.1228
10196TIP3    H152003   5.829   3.133  16.456  0.4914  0.7413 -0.6531
10196TIP3    H252004   5.728   3.240  16.492  0.8645  0.3196  1.7698
10197TIP3   OH252005   3.537   0.397  16.252  0.4171  0.0361  0.0350
10197TIP3    H152006   3.496   0.334  16.312  0.4515  0.9055  0.9968
10197TIP3    H252007   3.543   0.351  16.169  0.8210 -1.3841  0.8287
10198TIP3   OH252008   2.556   1.641  16.142  0.0381  0.0313  0.2115
10198TIP3    H152009   2.531   1.594  16.062 -1.1088  0.2293  0.4467
10198TIP3    H252010   2.476   1.684  16.171  0.5334  0.2668  1.2722
10199TIP3   OH252011   6.213   3.494  12.447  0.4804 -0.1287  0.2623
10199TIP3    H152012   6.222   3.585  12.476  1.1757 -0.0321 -0.2453
10199TIP3    H252013   6.165   3.500  12.364 -2.6302 -0.4922  1.9292
10200TIP3   OH252014   2.022   5.934   1.322 -0.0337 -0.0145  0.1358
10200TIP3    H152015   2.076   6.012   1.329 -0.5801  0.2152  1.8365
10200TIP3    H252016   1.944   5.954   1.374 -0.8430 -1.1198 -0.6315
10201TIP3   OH252017   6.502   4.738  15.545 -0.1244  0.0306 -0.0359
10201TIP3    H152018   6.578   4.682  15.529  0.8894  1.8073 -1.6427
10201TIP3    H252019   6.506   4.756  15.639  0.5025 -1.1978  0.1935
10202TIP3   OH252020   4.538   5.920  11.393  0.2361 -0.5515 -0.3338
10202TIP3    H152021   4.474   5.849  11.384  1.5762 -1.5688 -2.4304
10202TIP3    H252022   4.607   5.897  11.330  1.3613  1.9120 -0.0424
10203TIP3   OH252023   0.388   1.405   0.723 -0.0142  0.0295  0.0999
10203TIP3    H152024   0.374   1.499   0.714  0.2536  0.0688  0.0891
10203TIP3    H252025   0.309   1.365   0.685 -0.2106  0.2504  0.2760
10204TIP3   OH252026   6.541   5.358  15.798 -0.2460 -0.7322 -0.4581
10204TIP3    H152027   6.588   5.440  15.816 -1.0913 -0.4668  0.5390
10204TIP3    H252028   6.610   5.292  15.793  0.2227 -0.3720  1.1418
10205TIP3   OH252029   5.315   0.656  14.198 -0.4465  0.3390  0.2325
10205TIP3    H152030   5.392   0.624  14.151  0.0922  3.4992 -1.1332
10205TIP3    H252031   5.241   0.610  14.159  0.1332  1.9193 -2.8052
10206TIP3   OH252032   2.978   3.250   2.027 -0.3910 -0.6061 -0.2003
10206TIP3    H152033   2.889   3.223   2.051  0.3399 -1.6890  1.3841
10206TIP3    H252034   3.022   3.168   2.006  0.5405 -0.1845  0.1099
10207TIP3   OH252035   5.584   2.649   1.845 -0.3212  0.2450  0.0489
10207TIP3    H152036   5.644   2.634   1.771 -0.6402  0.0976 -0.1833
10207TIP3    H252037   5.497   2.641   1.806 -0.4902  0.5425  0.3701
10208TIP3   OH252038   3.008   5.348   5.652  0.2842  0.3294 -0.4085
10208TIP3    H152039   3.084   5.398   5.624 -1.4736  1.9864 -2.4608
10208TIP3    H252040   2.991   5.287   5.581 -1.0272  0.8445 -0.5601
10209TIP3   OH252041   5.588   4.293   3.054  0.8484 -0.1366  0.0850
10209TIP3    H152042   5.671   4.270   3.095  1.4972 -0.3177 -1.3098
10209TIP3    H252043   5.598   4.267   2.962 -0.7250 -0.1137 -0.1119
10210TIP3   OH252044   2.924   0.981  16.434  0.2394  0.0244  0.5852
10210TIP3    H152045   2.907   0.954  16.344  1.9063  0.4327  0.1379
10210TIP3    H252046   2.872   1.060  16.446 -1.0586 -0.7919  0.4370
10211TIP3   OH252047   6.279   0.033   6.182 -0.4758 -0.3544 -0.1446
10211TIP3    H152048   6.219  -0.026   6.137 -1.1148  0.9584 -1.0737
10211TIP3    H252049   6.232   0.117   6.184  1.0957  0.5517 -0.3726
10212TIP3   OH252050   6.148   2.186  14.875 -0.5396  0.3259  0.4941
10212TIP3    H152051   6.108   2.256  14.927 -0.0932 -0.9300  2.5745
10212TIP3    H252052   6.177   2.122  14.940 -0.8806 -1.7623 -1.3762
10213TIP3   OH252053   6.538   3.151   5.404  0.2047 -0.0014 -0.2094
10213TIP3    H152054   6.571   3.114   5.321  1.2152  0.8024 -0.1785
10213TIP3    H252055   6.597   3.115   5.471  1.3896  1.8764 -0.2123
10214TIP3   OH252056   2.905   3.059  12.540 -0.2763  0.0817 -0.0817
10214TIP3    H152057   2.852   3.023  12.611  1.8934 -0.2255  1.4460
10214TIP3    H252058   2.933   3.145  12.572  0.2237  0.1880 -0.7940
10215TIP3   OH252059   2.379   3.611  16.849  1.3947 -0.2011 -0.1049
10215TIP3    H152060   2.407   3.632  16.938  1.8248  1.0766 -0.5375
10215TIP3    H252061   2.454   3.566  16.811  0.4910 -2.5799  0.8022
10216TIP3   OH252062   4.473   6.028   2.703  0.1187 -0.3412 -0.3275
10216TIP3    H152063   4.565   6.038   2.731  0.1203 -1.1038 -0.0478
10216TIP3    H252064   4.478   6.022   2.608  0.2624  0.6398 -0.3891
10217TIP3   OH252065   4.346   0.196  10.724 -0.0308 -0.1916  0.1348
10217TIP3    H152066   4.261   0.238  10.712  0.3536  0.6243  0.2254
10217TIP3    H252067   4.353   0.133  10.652 -0.0692  0.7925 -0.7337
10218TIP3   OH252068   3.411   3.199   1.007 -0.5972  0.2250  0.5377
10218TIP3    H152069   3.330   3.194   0.957 -0.4797  2.4636  0.0473
10218TIP3    H252070   3.438   3.291   1.000  2.0558 -0.4933  0.5647
10219TIP3   OH252071   4.679   3.741  16.544  0.0255  0.2141  0.4583
10219TIP3    H152072   4.585   3.731  16.526  0.3312 -2.2092 -0.0076
10219TIP3    H252073   4.721   3.705  16.466  1.3437  0.1292  1.2066
10220TIP3   OH252074   6.391   1.531   4.865 -0.5211 -0.1708 -0.2281
10220TIP3    H152075   6.344   1.593   4.808 -1.5873 -0.5167  0.2780
10220TIP3    H252076   6.365   1.445   4.833  0.4909 -0.3686 -0.5347
10221TIP3   OH252077   2.810   1.161   1.839 -0.2765 -0.4100  0.4402
10221TIP3    H152078   2.716   1.164   1.858 -0.0647 -0.5916  1.5724
10221TIP3    H252079   2.841   1.082   1.882  0.3200 -0.6075 -0.3342
10222TIP3   OH252080   3.050   3.468  11.829 -0.1960  0.1643  0.3836
10222TIP3    H152081   3.050   3.375  11.810  1.5403  0.5979 -2.0378
10222TIP3    H252082   3.102   3.476  11.909 -1.9195 -1.1062  1.6392
10223TIP3   OH252083   6.592   2.145  15.679 -0.6911 -0.2354 -0.1137
10223TIP3    H152084   6.678   2.136  15.637 -0.9924 -0.3890 -0.6901
10223TIP3    H252085   6.612   2.181  15.766  0.1282 -2.1247  0.5007
10224TIP3   OH252086   3.470   6.309   0.829  0.5345  0.3741 -0.4485
10224TIP3    H152087   3.496   6.279   0.916 -0.0616  1.9108  0.2802
10224TIP3    H252088   3.548   6.351   0.793  0.8373 -0.4303 -0.7434
10225TIP3   OH252089   4.340   2.162   4.028 -0.1431  0.2842 -0.1656
10225TIP3    H152090   4.368   2.253   4.038 -1.2617  0.6642 -0.3425
10225TIP3    H252091   4.417   2.116   3.994  1.1548  0.6796  2.1722
10226TIP3   OH252092   2.148   0.052  16.700  0.5751 -0.0319  0.2289
10226TIP3    H152093   2.207  -0.021  16.718  1.4926  0.6709  0.0846
10226TIP3    H252094   2.115   0.035  16.612  0.1941 -0.6697  0.4869
10227TIP3   OH252095   5.435   0.569   6.218 -0.0335  0.2261 -0.2368
10227TIP3    H152096   5.350   0.542   6.254 -0.0918 -0.8680 -1.1858
10227TIP3    H252097   5.477   0.488   6.191  1.1065  0.8093 -0.2619
10228TIP3   OH252098   2.531   6.504   1.459 -0.7253  0.4073 -0.1136
10228TIP3    H152099   2.474   6.546   1.524 -0.6959  0.7371 -0.3041
10228TIP3    H252100   2.618   6.539   1.476 -0.6618  0.2593 -0.1307
10229TIP3   OH252101   3.462   0.621  13.578 -0.7762  0.0933  0.0530
10229TIP3    H152102   3.438   0.702  13.534  0.5956 -0.2110 -1.2674
10229TIP3    H252103   3.378   0.578  13.596 -1.4452  1.2351 -0.2871
10230TIP3   OH252104   6.353   0.884   5.122 -0.3018  0.4597 -0.2673
10230TIP3    H152105   6.270   0.866   5.168  0.5238  1.4797  1.7126
10230TIP3    H252106   6.369   0.978   5.138  1.5181  0.1411 -0.1129
10231TIP3   OH252107   3.123   0.976  14.070 -0.1173  0.4798 -0.0556
10231TIP3    H152108   3.138   0.966  14.164 -1.7410  0.9163  0.2514
10231TIP3    H252109   3.106   1.069  14.057  0.1282  0.4289 -0.7871
10232TIP3   OH252110   3.965   2.907   0.543  0.1307 -0.4037  0.1218
10232TIP3    H152111   4.045   2.859   0.566 -0.0063 -0.3333  0.7559
10232TIP3    H252112   3.992   2.999   0.541  0.0870 -0.3890  0.2295
10233TIP3   OH252113   1.749   2.817   4.978  0.2258  0.0338 -0.3155
10233TIP3    H152114   1.810   2.767   4.925  0.2692 -0.1532 -0.0893
10233TIP3    H252115   1.680   2.843   4.917 -0.7836 -1.9309 -0.0297
10234TIP3   OH252116   2.975   6.739  16.076 -0.2611  0.1716 -0.0195
10234TIP3    H152117   2.905   6.725  16.140 -1.8313  2.7184 -1.0904
10234TIP3    H252118   2.929   6.753  15.993  1.5466  1.4635 -0.8373
10235TIP3   OH252119   2.422   0.287  14.788  0.3162  0.1822 -0.0730
10235TIP3    H152120   2.333   0.323  14.786  0.3244  0.2013 -0.0900
10235TIP3    H252121   2.411   0.199  14.824  0.2872  0.1743 -0.1012
10236TIP3   OH252122   4.152   0.296   0.042 -0.3800 -0.1796 -0.3171
10236TIP3    H152123   4.222   0.247  -0.002  0.6768 -0.6145  1.7971
10236TIP3    H252124   4.120   0.236   0.110 -0.5845  1.2140  0.8405
10237TIP3   OH252125   2.711   5.898  16.470 -0.3193  0.2291 -0.5560
10237TIP3    H152126   2.633   5.844  16.462  0.3606 -0.4835 -2.9895
10237TIP3    H252127   2.760   5.861  16.543 -1.3532 -0.5057 -0.2404
10238TIP3   OH252128   2.793   1.879  12.252 -0.6004  0.0906  0.1375
10238TIP3    H152129   2.697   1.873  12.246 -0.5926  0.1967 -0.1247
10238TIP3    H252130   2.810   1.971  12.274 -0.4735  0.5950 -1.9631
10239TIP3   OH252131   5.463   4.137   2.566 -0.1880  0.8329 -0.0450
10239TIP3    H152132   5.524   4.111   2.498  0.8403 -1.2117  1.6067
10239TIP3    H252133   5.426   4.220   2.535  2.7445  1.6553 -1.5071
10240TIP3   OH252134   4.235   1.357  16.290  0.3616 -0.1756  0.3828
10240TIP3    H152135   4.176   1.282  16.294  1.6688 -1.1499  2.2314
10240TIP3    H252136   4.224   1.392  16.201 -0.5938 -2.2808 -0.3564
10241TIP3   OH252137   3.406   4.762   4.159  0.3203  0.1731 -0.3819
10241TIP3    H152138   3.373   4.822   4.225  1.0142  0.3423 -0.1898
10241TIP3    H252139   3.390   4.675   4.195 -0.8454  0.2322 -0.7383
10242TIP3   OH252140   2.232   3.479   2.209  0.4108  0.2722  0.5226
10242TIP3    H152141   2.163   3.498   2.273 -1.5018 -1.1212 -1.0793
10242TIP3    H252142   2.230   3.555   2.150  0.0375  0.0951  0.3042
10243TIP3   OH252143   2.231   5.889  11.912  0.9181 -0.3436 -0.0857
10243TIP3    H152144   2.194   5.945  11.980  1.0778 -0.6165  0.2293
10243TIP3    H252145   2.238   5.945  11.835  1.5014  0.1936  0.3511
10244TIP3   OH252146   0.366   1.353  13.847  0.3627  0.5246  0.1324
10244TIP3    H152147   0.335   1.344  13.938  0.9829 -0.5223  0.2486
10244TIP3    H252148   0.382   1.446  13.837 -0.2475  0.7278  0.9239
10245TIP3   OH252149   0.291   5.905  17.235 -0.2100 -0.2093 -0.1406
10245TIP3    H152150   0.203   5.874  17.255  0.3032 -0.5202  1.7447
10245TIP3    H252151   0.347   5.829  17.250  0.6369  0.6167  0.9588
10246TIP3   OH252152   1.732   6.782  16.445  0.5567 -0.0193  0.1302
10246TIP3    H152153   1.825   6.804  16.443  0.7413 -0.8821 -2.0315
10246TIP3    H252154   1.695   6.828  16.369 -0.3673 -1.3817 -0.2621
10247TIP3   OH252155   1.092   0.135   3.709  0.3566 -0.1230 -0.1172
10247TIP3    H152156   1.132   0.143   3.796  1.9953  0.0324 -0.8663
10247TIP3    H252157   1.165   0.111   3.652 -0.2449  2.1412 -1.8727
10248TIP3   OH252158   0.677   3.133   0.196 -0.0014 -0.4450 -0.1236
10248TIP3    H152159   0.629   3.165   0.273 -0.8571 -2.2101  0.0822
10248TIP3    H252160   0.760   3.101   0.231  1.1405  2.0306 -0.4060
10249TIP3   OH252161   5.050   5.868  11.172  0.5189  0.1202 -0.3489
10249TIP3    H152162   5.113   5.799  11.151  2.0953  1.1931  0.7897
10249TIP3    H252163   5.024   5.903  11.086  0.2736 -1.3722 -0.8978
10250TIP3   OH252164   0.013   4.675  12.033 -0.2942  0.2766 -0.3925
10250TIP3    H152165   0.065   4.717  12.102  0.6011 -0.8728 -0.3497
10250TIP3    H252166   0.032   4.581  12.043 -0.8044  0.0305 -1.6760
10251TIP3   OH252167   0.836   5.691  11.510 -0.4060 -0.5132 -0.0742
10251TIP3    H152168   0.822   5.678  11.417  1.0307 -1.3889 -0.1904
10251TIP3    H252169   0.846   5.786  11.521  1.2436 -0.5599 -1.0884
10252TIP3   OH252170   6.062   3.398   0.643 -0.6420 -0.0739  0.1231
10252TIP3    H152171   6.021   3.481   0.618  2.1989  1.2367 -0.3528
10252TIP3    H252172   6.156   3.415   0.640 -0.0112 -2.9224  1.4022
10253TIP3   OH252173   3.122   2.863  11.468  0.1988 -1.0536  0.2484
10253TIP3    H152174   3.123   2.829  11.379  0.3147 -0.6481  0.0920
10253TIP3    H252175   3.031   2.856  11.496 -0.0683 -0.0339 -0.3528
10254TIP3   OH252176   4.111   5.781   5.749  0.3058 -0.1118  0.6232
10254TIP3    H152177   4.085   5.868   5.717  1.9724  0.2073  0.0657
10254TIP3    H252178   4.121   5.729   5.669  1.1634 -0.2720  0.8337
10255TIP3   OH252179   4.825   5.534  13.688 -0.1806 -0.0817  0.3759
10255TIP3    H152180   4.757   5.515  13.624  0.1864  1.1789 -0.4044
10255TIP3    H252181   4.799   5.617  13.727  0.1635 -0.3091  1.0913
10256TIP3   OH252182   6.013   2.765   6.385 -0.4859  0.1739 -0.1366
10256TIP3    H152183   5.920   2.744   6.372 -0.0455 -1.1511 -1.1677
10256TIP3    H252184   6.059   2.683   6.369  1.0044  1.1961 -1.2270
10257TIP3   OH252185   3.657   1.791   5.296  0.1724 -0.0366  0.4711
10257TIP3    H152186   3.579   1.846   5.308  0.0645  0.0585 -0.6269
10257TIP3    H252187   3.624   1.701   5.303 -0.1024 -0.0029 -0.3551
10258TIP3   OH252188   1.194   3.063  14.451 -0.0616  0.2508  0.6112
10258TIP3    H152189   1.253   2.993  14.480 -0.3688  0.0569  0.7719
10258TIP3    H252190   1.214   3.136  14.509 -0.4437 -0.0319  1.1146
10259TIP3   OH252191   6.565   2.788   5.634  0.3308  0.3032  0.0797
10259TIP3    H152192   6.647   2.740   5.623 -0.2696 -0.1432 -2.8722
10259TIP3    H252193   6.590   2.880   5.621  0.3897  0.1686 -0.8106
10260TIP3   OH252194   2.402   3.140  11.013 -0.1674  0.4513 -0.6774
10260TIP3    H152195   2.443   3.225  10.999  1.2136  0.2252  1.8379
10260TIP3    H252196   2.448   3.081  10.952  0.9550  0.8852 -0.2593
10261TIP3   OH252197   1.539   3.044  13.910  0.0489  0.1924 -0.2075
10261TIP3    H152198   1.496   3.127  13.932 -1.5501 -0.8327  0.6159
10261TIP3    H252199   1.539   3.041  13.815 -1.5633  0.2851 -0.2203
10262TIP3   OH252200   4.104   5.946  12.271 -0.4261 -0.1752 -0.3541
10262TIP3    H152201   4.153   5.945  12.189  0.7697 -0.5451  0.3542
10262TIP3    H252202   4.171   5.948  12.339 -1.4044 -0.2488  0.6295
10263TIP3   OH252203   2.658   1.651  14.679  0.3058  0.4586 -0.0124
10263TIP3    H152204   2.702   1.584  14.730 -0.9274  0.2782  0.8557
10263TIP3    H252205   2.709   1.731  14.695 -0.6093  0.6305  2.3375
10264TIP3   OH252206   1.062   6.202   0.401  0.0629 -0.1371 -0.5975
10264TIP3    H152207   1.062   6.181   0.495 -0.1275  1.1090 -0.3109
10264TIP3    H252208   1.154   6.222   0.382  0.1004 -0.3837 -0.6740
10265TIP3   OH252209   6.605   1.692  11.491 -0.3597  0.3026 -0.0760
10265TIP3    H152210   6.610   1.601  11.464  1.4423  1.1230 -2.7895
10265TIP3    H252211   6.671   1.700  11.561  1.2372  0.0045 -1.4975
10266TIP3   OH252212   0.808   0.338   5.914  0.6026 -0.8734  0.0893
10266TIP3    H152213   0.728   0.290   5.895  1.5265 -1.8954 -1.2526
10266TIP3    H252214   0.822   0.393   5.837  0.5465  0.2049  0.8353
10267TIP3   OH252215   1.493   3.826  15.665  0.4854 -0.2889 -0.6692
10267TIP3    H152216   1.425   3.886  15.634 -0.0241 -0.4414  0.1259
10267TIP3    H252217   1.565   3.882  15.691  0.1233 -0.0339 -0.2083
10268TIP3   OH252218   1.348   6.353  13.393  0.1364  0.1743  0.1046
10268TIP3    H152219   1.415   6.382  13.331 -0.1528 -0.6098 -0.5896
10268TIP3    H252220   1.372   6.263  13.415 -0.4353  0.0425  0.1965
10269TIP3   OH252221   4.475   2.466  16.444 -0.3797  0.1184  0.4689
10269TIP3    H152222   4.465   2.537  16.508 -0.0546 -0.4027  1.0988
10269TIP3    H252223   4.533   2.404  16.486  0.2099 -0.0093 -0.5295
10270TIP3   OH252224   5.297   5.381   4.308  0.4091 -0.7934 -0.2360
10270TIP3    H152225   5.356   5.334   4.248  2.0032  0.1539  0.5396
10270TIP3    H252226   5.352   5.401   4.384 -1.0684 -0.2936  0.7212
10271TIP3   OH252227   6.770   5.178   4.926 -0.0103  0.4371 -0.0453
10271TIP3    H152228   6.733   5.094   4.899 -1.8404  0.6391  1.7690
10271TIP3    H252229   6.839   5.154   4.989 -1.7650  0.3445  1.8782
10272TIP3   OH252230   5.514   4.451   3.772  1.0119 -0.0584 -0.2140
10272TIP3    H152231   5.575   4.394   3.819 -0.4912 -1.1647  0.4304
10272TIP3    H252232   5.429   4.408   3.780 -0.0409  1.9084 -0.3011
10273TIP3   OH252233   2.481   6.535   6.195  0.3509 -0.2113  0.2208
10273TIP3    H152234   2.535   6.583   6.133  1.7045 -1.8001  0.1442
10273TIP3    H252235   2.531   6.536   6.277 -1.3331  1.7155  1.2851
10274TIP3   OH252236   3.123   2.778   5.407 -1.0655  0.1715  0.1292
10274TIP3    H152237   3.159   2.696   5.374 -0.5015  0.4114  0.1464
10274TIP3    H252238   3.028   2.769   5.396 -0.8347  0.7570 -2.7269
10275TIP3   OH252239   3.202   3.686  16.524  0.3173  0.8624  0.1108
10275TIP3    H152240   3.157   3.758  16.569  0.5721  0.4607  1.0134
10275TIP3    H252241   3.270   3.658  16.585  0.1744 -0.1907 -0.1982
10276TIP3   OH252242   5.589   6.420   3.992 -0.1468 -0.8940  0.7311
10276TIP3    H152243   5.669   6.402   4.042  1.6168 -0.7196 -1.9188
10276TIP3    H252244   5.518   6.394   4.051  1.9183 -3.5335  2.2076
10277TIP3   OH252245   3.509   4.218   5.201  0.1728  0.0823  0.0224
10277TIP3    H152246   3.463   4.161   5.262 -2.6758  0.8810 -1.2904
10277TIP3    H252247   3.576   4.163   5.162 -1.7617 -2.0674 -0.3772
10278TIP3   OH252248   4.214   1.285  17.056  0.4216 -0.3855 -0.6675
10278TIP3    H152249   4.146   1.246  17.113 -0.4390  2.0869  0.0384
10278TIP3    H252250   4.268   1.210  17.031 -1.4350 -2.1401  0.3067
10279TIP3   OH252251   2.242   1.609  13.264 -0.2988  0.3214  0.4583
10279TIP3    H152252   2.218   1.579  13.352 -1.2597 -0.4252 -0.0486
10279TIP3    H252253   2.316   1.553  13.240  0.6770  1.2761  1.2306
10280TIP3   OH252254   5.457   4.263  12.663  0.2982 -0.2300 -0.1087
10280TIP3    H152255   5.418   4.313  12.591 -0.1926 -1.1725 -0.5181
10280TIP3    H252256   5.547   4.293  12.667 -0.1033  0.9816 -0.0665
10281TIP3   OH252257   2.092   4.862  13.497  0.1613  0.2263  0.6826
10281TIP3    H152258   2.118   4.815  13.576 -0.2287  1.7807  1.7581
10281TIP3    H252259   2.170   4.912  13.471  0.0257  0.3945  0.5920
10282TIP3   OH252260   0.077   0.013   0.777  0.0720 -0.3969 -0.1568
10282TIP3    H152261   0.098   0.096   0.820 -0.8487  1.1005 -2.5035
10282TIP3    H252262  -0.003  -0.017   0.820  0.9229 -0.5585  1.3347
10283TIP3   OH252263   4.682   4.645  12.998  0.1941  0.0387  0.3278
10283TIP3    H152264   4.595   4.606  12.999  0.6490 -0.9818  0.3219
10283TIP3    H252265   4.728   4.604  13.071 -0.5931  3.5094  2.8890
10284TIP3   OH252266   5.346   4.868   0.390  0.0208 -0.1294 -0.0112
10284TIP3    H152267   5.306   4.824   0.314  0.7426  2.2424 -1.8159
10284TIP3    H252268   5.273   4.912   0.433 -0.7994 -3.3474  2.0922
10285TIP3   OH252269   4.150   1.153  13.383 -0.1576 -0.0839 -0.2018
10285TIP3    H152270   4.103   1.086  13.332  1.4381 -1.5159  0.1656
10285TIP3    H252271   4.187   1.104  13.457  0.3963  1.3667  0.4880
10286TIP3   OH252272   2.134   4.314  13.223 -0.4184 -0.1011 -0.3361
10286TIP3    H152273   2.206   4.349  13.275  0.1012 -1.4526 -0.1282
10286TIP3    H252274   2.102   4.389  13.173  1.2675  0.4589 -0.6092
10287TIP3   OH252275   6.021   4.846   4.341  0.4684  0.3477 -0.1840
10287TIP3    H152276   6.021   4.907   4.267 -0.4669  0.4769 -0.0820
10287TIP3    H252277   6.031   4.902   4.418 -0.3948  0.3751 -0.0898
10288TIP3   OH252278   5.628   4.027  12.193 -0.3630  0.1101 -0.4439
10288TIP3    H152279   5.538   4.041  12.165 -0.2750 -0.0688 -0.8120
10288TIP3    H252280   5.620   4.005  12.286 -1.0508 -3.6354 -1.2781
10289TIP3   OH252281   4.147   6.333  16.863  0.7471 -0.3052 -0.2708
10289TIP3    H152282   4.161   6.257  16.806  1.0925 -0.1761 -0.3620
10289TIP3    H252283   4.196   6.314  16.942  0.4367 -0.3923 -0.1004
10290TIP3   OH252284   5.236   1.482   3.942  0.2138  0.1970 -0.1483
10290TIP3    H152285   5.236   1.392   3.977  0.2917 -0.1121 -0.9328
10290TIP3    H252286   5.149   1.516   3.965  0.1951 -0.0688  0.1868
10291TIP3   OH252287   2.687   0.327  11.785  0.3069 -0.3021  0.3326
10291TIP3    H152288   2.647   0.331  11.872  2.6724 -2.9479  1.6510
10291TIP3    H252289   2.755   0.395  11.787  0.4597 -0.4593  0.6329
10292TIP3   OH252290   4.363   0.763  14.409 -0.1813 -0.5065  0.5192
10292TIP3    H152291   4.317   0.715  14.478  1.7882 -1.9414  0.8765
10292TIP3    H252292   4.349   0.855  14.431 -1.1987 -0.9329  1.7304
10293TIP3   OH252293   6.326   6.276   2.117  0.0021 -0.0598  0.0291
10293TIP3    H152294   6.260   6.341   2.092 -1.6730 -2.4948 -2.1485
10293TIP3    H252295   6.283   6.224   2.186 -0.1477 -1.1800 -0.8767
10294TIP3   OH252296   4.975   4.894   4.298  0.4162  0.1682 -0.2769
10294TIP3    H152297   4.934   4.979   4.311 -1.0479 -0.8189  1.8943
10294TIP3    H252298   4.908   4.830   4.325  1.5964 -1.6612 -1.5405
10295TIP3   OH252299   4.304   5.464   4.348 -0.5298  0.3954  0.0963
10295TIP3    H152300   4.344   5.428   4.269  2.0369  0.5438  1.2817
10295TIP3    H252301   4.370   5.523   4.384 -1.5676  0.1960  2.4521
10296TIP3   OH252302   5.690   4.075   1.457 -0.2732  0.2605  0.0711
10296TIP3    H152303   5.716   4.109   1.371 -1.1398  0.6055 -0.0660
10296TIP3    H252304   5.594   4.075   1.454 -0.3141  0.8437  1.2527
10297TIP3   OH252305   5.174   0.628   1.694  0.3668 -0.1477  0.1023
10297TIP3    H152306   5.198   0.648   1.785 -1.8881 -2.3926  1.2452
10297TIP3    H252307   5.112   0.697   1.670  2.3765  1.5183 -0.3994
10298TIP3   OH252308   2.334   5.523   2.990  0.2486  0.2649  0.6048
10298TIP3    H152309   2.355   5.538   2.898 -0.5673  0.5753  0.4591
10298TIP3    H252310   2.389   5.449   3.016 -0.6627 -0.8621 -0.5926
10299TIP3   OH252311   3.263   2.903   4.190 -0.2574 -0.1815 -0.0053
10299TIP3    H152312   3.303   2.830   4.141  0.4549 -1.0060  1.7658
10299TIP3    H252313   3.209   2.860   4.256 -1.1831  0.9242 -0.0341
10300TIP3   OH252314   0.202   4.884  15.911 -0.1129  0.0908 -1.0591
10300TIP3    H152315   0.185   4.867  16.004  0.4451  1.1255 -0.7605
10300TIP3    H252316   0.258   4.811  15.883 -2.0687 -1.4167 -1.1552
10301TIP3   OH252317   2.115   1.874   2.179  0.2553 -0.1002  0.4895
10301TIP3    H152318   2.163   1.895   2.099 -1.3234 -0.2655 -0.5290
10301TIP3    H252319   2.148   1.936   2.244  0.3740  1.1302 -0.7251
10302TIP3   OH252320   3.712   6.517  14.449  0.8245  0.1900 -0.1576
10302TIP3    H152321   3.619   6.503  14.435  0.6481  0.8277  0.3546
10302TIP3    H252322   3.755   6.446  14.400  0.0967  0.2016 -0.8157
10303TIP3   OH252323   5.247   5.612  12.135 -0.1739 -0.5009  0.5293
10303TIP3    H152324   5.329   5.643  12.174 -0.4838  0.1450  0.6660
10303TIP3    H252325   5.267   5.606  12.041 -0.8004  2.3631  0.1830
10304TIP3   OH252326   2.156   0.097   2.057  0.0911  0.8235 -0.1277
10304TIP3    H152327   2.062   0.115   2.062 -0.1061 -0.1031 -0.3581
10304TIP3    H252328   2.187   0.110   2.146 -0.3852  0.4910  0.0934
10305TIP3   OH252329   3.827   4.085  14.867  0.7722  0.1547 -0.3347
10305TIP3    H152330   3.774   4.162  14.848  1.4726  0.8220  0.3564
10305TIP3    H252331   3.784   4.044  14.942  0.6377  0.1250 -0.4322
10306TIP3   OH252332   2.200   4.483   3.105 -0.4137  0.0628  0.1821
10306TIP3    H152333   2.281   4.494   3.154  0.3646  0.5834 -1.2081
10306TIP3    H252334   2.150   4.418   3.155  0.9141 -0.3740  0.9486
10307TIP3   OH252335   2.921   0.092   3.242 -0.0173 -0.1058 -0.0602
10307TIP3    H152336   2.920   0.145   3.162  1.8002  1.9025  1.1873
10307TIP3    H252337   3.005   0.044   3.237 -1.3278 -2.4158 -0.8446
10308TIP3   OH252338   2.347   2.338  15.178 -0.0743  0.2415  0.0858
10308TIP3    H152339   2.287   2.412  15.180  0.0730  0.3680 -0.2443
10308TIP3    H252340   2.315   2.284  15.106 -1.5367 -1.1485  1.7009
10309TIP3   OH252341   4.697   3.160  15.064 -0.1024 -0.1723  0.1505
10309TIP3    H152342   4.711   3.207  14.981  1.8392 -0.5469  0.2331
10309TIP3    H252343   4.631   3.094  15.043 -1.3907  1.2602 -0.4708
10310TIP3   OH252344   5.118   0.103  17.232  0.2242 -0.2938  0.0598
10310TIP3    H152345   5.049   0.126  17.294 -0.0596 -0.0844 -0.3284
10310TIP3    H252346   5.126   0.008  17.239  0.2386 -0.2638  0.4648
10311TIP3   OH252347   2.705   4.099   4.008 -0.1781  0.6551  0.1957
10311TIP3    H152348   2.619   4.112   3.969  0.6525  1.5536 -1.3516
10311TIP3    H252349   2.753   4.047   3.944  0.3704 -0.0166  1.1420
10312TIP3   OH252350   0.571   1.022  11.901 -0.2374  0.9669  0.2906
10312TIP3    H152351   0.496   1.014  11.842 -0.5814 -2.8448  1.0812
10312TIP3    H252352   0.536   0.999  11.987  1.5994  0.1412  0.8315
10313TIP3   OH252353   2.259   3.171  10.575  0.2039  1.2112  0.2525
10313TIP3    H152354   2.234   3.196  10.486 -0.0170 -0.8190 -0.2710
10313TIP3    H252355   2.346   3.210  10.587 -0.5147  2.9920 -0.1900
10314TIP3   OH252356   6.132   6.506  16.528 -0.3382 -0.2122  0.0362
10314TIP3    H152357   6.105   6.471  16.613 -0.2936  0.1141  0.1833
10314TIP3    H252358   6.222   6.536  16.542 -0.1412 -0.6425 -0.2672
10315TIP3   OH252359   2.875   6.010   0.969 -0.2682  0.3732 -0.1903
10315TIP3    H152360   2.851   5.943   0.906 -0.3697 -0.4796  0.7325
10315TIP3    H252361   2.935   6.068   0.922  1.9831 -1.8958 -0.2473
10316TIP3   OH252362   6.429   0.748   1.855  0.2165 -0.6942  0.4233
10316TIP3    H152363   6.487   0.794   1.916 -0.0114 -0.2759  0.3319
10316TIP3    H252364   6.346   0.741   1.902  0.0175 -0.3045  0.1372
10317TIP3   OH252365   3.172   1.458  15.408 -0.3052  0.4997 -0.2403
10317TIP3    H152366   3.245   1.407  15.373 -1.2987 -1.3344  0.2893
10317TIP3    H252367   3.135   1.503  15.331  0.5194  0.3463 -0.7292
10318TIP3   OH252368   0.460   6.701  11.691 -0.8112 -0.1381 -0.0268
10318TIP3    H152369   0.492   6.675  11.604  1.5352  1.9492  0.1557
10318TIP3    H252370   0.478   6.626  11.746  0.5434 -0.3406 -0.7167
10319TIP3   OH252371   4.915   3.188  15.484  0.1946 -0.1882 -0.3349
10319TIP3    H152372   4.961   3.104  15.486  1.2139  0.3851  1.1466
10319TIP3    H252373   4.835   3.173  15.534  0.7172 -0.1032  0.5470
10320TIP3   OH252374   5.216   5.074  14.426  0.1044  0.4331 -0.0715
10320TIP3    H152375   5.262   5.092  14.508  1.1077  1.2870 -0.8000
10320TIP3    H252376   5.255   4.994  14.393  0.4228  0.6456 -0.2169
10321TIP3   OH252377   0.837   1.886   4.192  0.4225  0.6862 -0.1299
10321TIP3    H152378   0.798   1.904   4.278  1.1235 -0.1736  0.3698
10321TIP3    H252379   0.785   1.813   4.158  1.2431 -0.0975  0.2984
10322TIP3   OH252380   6.734   5.976   3.658 -0.1842 -0.1137 -0.3943
10322TIP3    H152381   6.764   6.067   3.655 -0.3270  0.0142  1.4316
10322TIP3    H252382   6.645   5.978   3.622  0.3385  0.2284 -1.6819
10323TIP3   OH252383   5.809   1.180  13.265  0.2719  0.0784  0.6756
10323TIP3    H152384   5.868   1.233  13.319  0.2564  0.0744  0.6956
10323TIP3    H252385   5.849   1.094  13.263  0.0006 -0.0590  1.1079
10324TIP3   OH252386   5.245   3.441  10.666  0.0979 -0.7832 -0.0776
10324TIP3    H152387   5.329   3.398  10.652  0.3942 -0.7443  1.4862
10324TIP3    H252388   5.203   3.390  10.735  0.4539  1.3874  1.8076
10325TIP3   OH252389   4.318   4.074   0.066 -0.3728  0.2703 -0.1532
10325TIP3    H152390   4.236   4.048   0.024 -0.0934 -1.7000  0.5057
10325TIP3    H252391   4.296   4.157   0.110 -1.0787  1.5159 -2.7742
10326TIP3   OH252392   2.027   0.275  11.734 -0.2451  0.0770 -0.2910
10326TIP3    H152393   2.021   0.250  11.827 -3.0988 -1.4024 -0.8399
10326TIP3    H252394   2.074   0.203  11.693 -2.9368 -1.4757 -0.7494
10327TIP3   OH252395   3.520   5.546  14.798  0.6055 -0.3022  0.5104
10327TIP3    H152396   3.451   5.521  14.860 -0.7003 -0.1837 -0.8842
10327TIP3    H252397   3.527   5.471  14.739 -0.6114  0.9981 -1.3261
10328TIP3   OH252398   4.059   3.336   5.139 -0.1572 -0.3336 -0.0734
10328TIP3    H152399   4.032   3.358   5.228  1.6959 -1.0558  0.7111
10328TIP3    H252400   4.100   3.250   5.148  0.2725 -0.2909 -1.5848
10329TIP3   OH252401   1.091   2.508   4.346  0.3719 -0.2854 -0.5492
10329TIP3    H152402   1.016   2.562   4.370  0.5832 -0.0209 -0.4812
10329TIP3    H252403   1.151   2.514   4.421  0.2047 -0.9623 -0.3610
10330TIP3   OH252404   6.398   0.169   6.390 -0.2217 -0.2243 -0.2146
10330TIP3    H152405   6.354   0.147   6.307 -2.5555  1.7084  0.4318
10330TIP3    H252406   6.399   0.265   6.390  2.2664 -0.2200  0.7560
10331TIP3   OH252407   5.950   1.891   1.436 -0.3310  0.5953 -0.0797
10331TIP3    H152408   5.935   1.843   1.518  1.0332 -0.3240 -0.3425
10331TIP3    H252409   5.875   1.950   1.429 -0.6363  0.4651  1.6669
10332TIP3   OH252410   1.215   1.104   2.459  0.3076 -0.4038 -0.4162
10332TIP3    H152411   1.241   1.169   2.395  0.1433  1.1044  1.0222
10332TIP3    H252412   1.285   1.038   2.457  0.9878  0.3381 -1.1445
10333TIP3   OH252413   1.718   4.291   0.861 -0.0604  0.5236  0.0478
10333TIP3    H152414   1.795   4.311   0.915 -0.2131 -0.7637  0.7532
10333TIP3    H252415   1.650   4.349   0.896  0.5270  1.5300 -0.4509
10334TIP3   OH252416   2.598   1.224  14.721  0.1490 -0.2882  0.3975
10334TIP3    H152417   2.547   1.169  14.780 -2.5179 -0.6610 -2.1078
10334TIP3    H252418   2.547   1.305  14.716  0.8112  0.0627 -0.6850
10335TIP3   OH252419   3.053   0.520  14.833 -0.0638 -0.0463 -0.7117
10335TIP3    H152420   3.042   0.552  14.744 -0.1710  2.4842  0.1933
10335TIP3    H252421   2.964   0.516  14.868 -0.2042 -2.7418 -1.2487
10336TIP3   OH252422   2.464   1.515   5.196 -0.5222 -0.1046 -0.4383
10336TIP3    H152423   2.529   1.560   5.143  2.0337 -0.7909  2.0340
10336TIP3    H252424   2.514   1.454   5.250 -3.0784 -0.0119  2.1798
10337TIP3   OH252425   0.652   0.137  11.889  0.1651  0.1815 -0.3547
10337TIP3    H152426   0.645   0.231  11.903  2.2873  0.3320 -0.0435
10337TIP3    H252427   0.740   0.125  11.851  0.5816 -1.8276  1.1622
10338TIP3   OH252428   3.892   0.905  11.401 -0.4947  0.4291  0.6145
10338TIP3    H152429   3.873   0.811  11.407  1.6870 -0.0522  0.4319
10338TIP3    H252430   3.922   0.930  11.488  1.1624  0.4114  0.0712
10339TIP3   OH252431   5.966   1.604   5.250  0.4030 -0.3780  0.2768
10339TIP3    H152432   5.936   1.521   5.287  0.9430 -1.0043 -0.6777
10339TIP3    H252433   5.930   1.604   5.161  0.0206  0.6228  0.4289
10340TIP3   OH252434   3.372   3.464   0.653  0.2798 -0.0739  0.0030
10340TIP3    H152435   3.384   3.371   0.636 -1.9816 -0.4809  0.5204
10340TIP3    H252436   3.277   3.477   0.654  0.5515  2.3198 -0.5355
10341TIP3   OH252437   6.199   5.999  14.009 -0.6771  0.2509  0.0286
10341TIP3    H152438   6.223   6.082  14.049 -0.1543  0.3584 -0.5156
10341TIP3    H252439   6.132   6.021  13.944  0.6240  0.4620 -1.2606
10342TIP3   OH252440   2.321   2.636   3.512  0.2337  0.0355  0.2677
10342TIP3    H152441   2.281   2.697   3.574  0.2764 -0.1803  0.5089
10342TIP3    H252442   2.272   2.649   3.430  0.2855  0.4370  0.3002
10343TIP3   OH252443   0.388   1.192  14.331  0.1229 -0.1292  0.5791
10343TIP3    H152444   0.382   1.131  14.405 -1.6206 -0.3494  0.2738
10343TIP3    H252445   0.387   1.278  14.372  1.8196 -0.2742  0.9635
10344TIP3   OH252446   5.216   1.904  11.340 -0.0322  0.0131 -0.3991
10344TIP3    H152447   5.190   1.973  11.279 -0.5317 -0.0267 -0.2291
10344TIP3    H252448   5.134   1.871  11.376 -0.0839 -3.3413 -3.3560
10345TIP3   OH252449   4.490   4.718  13.522 -0.6330  0.3735  0.5274
10345TIP3    H152450   4.455   4.656  13.586 -0.7510  1.6128  1.6797
10345TIP3    H252451   4.417   4.777  13.504 -0.1081  1.0063  0.4716
10346TIP3   OH252452   4.125   4.935   5.056 -0.0656  0.1315  0.0761
10346TIP3    H152453   4.206   4.978   5.085  0.2681  0.0933 -0.7867
10346TIP3    H252454   4.129   4.938   4.961 -1.1542  0.2526  0.0251
10347TIP3   OH252455   1.898   0.825   0.122  0.2585  0.0605  0.1631
10347TIP3    H152456   1.951   0.795   0.049 -1.0631  3.1945 -2.1720
10347TIP3    H252457   1.949   0.894   0.163  0.0051 -0.1437  0.8460
10348TIP3   OH252458   2.048   3.461   5.790 -0.3879 -0.0763  0.3604
10348TIP3    H152459   2.046   3.428   5.880 -0.3019  0.7750  0.6736
10348TIP3    H252460   2.138   3.491   5.777 -0.3401 -0.4069 -0.0874
10349TIP3   OH252461   2.007   5.004  12.754 -0.3618 -0.3007 -0.0195
10349TIP3    H152462   1.961   5.086  12.767  0.2675  0.0617 -0.0555
10349TIP3    H252463   2.067   5.021  12.681  0.9756 -0.2800  1.0620
10350TIP3   OH252464   5.665   3.297  13.492 -0.2861 -0.3740 -0.0406
10350TIP3    H152465   5.753   3.322  13.518  0.0262 -1.1986 -0.2734
10350TIP3    H252466   5.629   3.374  13.448  0.0510  0.2072  0.6961
10351TIP3   OH252467   5.045   6.772   4.929 -0.0987  0.0829  0.3407
10351TIP3    H152468   5.120   6.736   4.882  0.1155  0.9952 -0.0266
10351TIP3    H252469   5.071   6.862   4.951 -1.4289  0.7086 -0.5848
10352TIP3   OH252470   5.501   5.354   3.904 -0.3163 -0.6775  0.1794
10352TIP3    H152471   5.581   5.354   3.957  0.3053 -0.9905 -0.7403
10352TIP3    H252472   5.532   5.365   3.814 -1.4313  0.9393 -0.0256
10353TIP3   OH252473   3.901   3.114  12.460 -0.0329 -0.1664  0.0259
10353TIP3    H152474   3.884   3.208  12.460  0.8573  0.0003  0.7501
10353TIP3    H252475   3.821   3.075  12.496  0.1206  0.4197  1.0280
10354TIP3   OH252476   4.443   5.319   1.307  0.3315  0.0739 -0.3915
10354TIP3    H152477   4.465   5.234   1.268  2.3105  0.9218 -1.2313
10354TIP3    H252478   4.362   5.303   1.356 -0.5710 -1.7654 -2.3701
10355TIP3   OH252479   2.222   0.697  16.407  0.1133 -0.1094  1.0537
10355TIP3    H152480   2.225   0.701  16.503 -1.5202 -1.2677  1.1770
10355TIP3    H252481   2.197   0.785  16.380 -0.4900 -0.0620  1.7551
10356TIP3   OH252482   5.387   2.776   5.547  0.0188  0.6871 -0.0280
10356TIP3    H152483   5.346   2.738   5.469 -0.0121  0.0618  0.2929
10356TIP3    H252484   5.319   2.831   5.585 -0.1321  0.5969 -0.1646
10357TIP3   OH252485   3.773   3.777  14.093 -0.0754  0.5291 -0.3671
10357TIP3    H152486   3.749   3.869  14.085  0.2607  0.5719 -0.8793
10357TIP3    H252487   3.692   3.730  14.073  0.0990  0.6891 -1.4822
10358TIP3   OH252488   3.203   5.736   2.440 -0.0763  0.1230  0.2615
10358TIP3    H152489   3.299   5.737   2.447  0.0067 -1.0238 -0.5057
10358TIP3    H252490   3.172   5.775   2.522  1.0635  1.7140 -0.0407
10359TIP3   OH252491   4.340   0.148   5.167  0.5114 -0.4615 -0.4429
10359TIP3    H152492   4.249   0.118   5.158  0.3895  0.0935 -1.1079
10359TIP3    H252493   4.357   0.145   5.261 -0.6345  0.7077 -0.1974
10360TIP3   OH252494   3.556   6.191   1.068 -0.0302 -0.1783  0.0583
10360TIP3    H152495   3.483   6.131   1.081  0.0882  0.1083  2.3220
10360TIP3    H252496   3.565   6.237   1.152  0.9825  1.7681 -1.0527
10361TIP3   OH252497   5.396   4.781   4.150 -0.3250 -0.0591 -0.4338
10361TIP3    H152498   5.336   4.728   4.098  0.3120 -3.0086  1.6474
10361TIP3    H252499   5.340   4.834   4.206 -1.0125 -0.6060 -0.5990
10362TIP3   OH252500   3.383   4.258   0.465 -0.5831  0.1117 -0.2249
10362TIP3    H152501   3.318   4.269   0.397 -1.1416  1.5190  0.5212
10362TIP3    H252502   3.436   4.338   0.462  1.8512 -1.4942 -1.5719
10363TIP3   OH252503   1.026   3.734   2.825 -0.1312  0.0502 -0.1978
10363TIP3    H152504   0.996   3.726   2.734 -0.7914 -1.6639  0.1586
10363TIP3    H252505   0.973   3.806   2.861 -2.2865 -1.4880 -0.2229
10364TIP3   OH252506   2.801   5.265   2.433  0.5688 -0.0425 -0.4885
10364TIP3    H152507   2.711   5.238   2.416  0.7172 -1.0766  0.2818
10364TIP3    H252508   2.795   5.357   2.459 -0.6317 -0.9541  2.7261
10365TIP3   OH252509   4.419   4.530  14.348  0.2347 -0.8781 -0.5934
10365TIP3    H152510   4.412   4.452  14.403 -1.0502 -0.1525  0.3005
10365TIP3    H252511   4.356   4.515  14.278 -0.6726 -0.2560  0.0778
10366TIP3   OH252512   1.759   3.796   1.099  0.0290 -0.2298 -0.5551
10366TIP3    H152513   1.819   3.867   1.076  0.0103 -0.3756 -1.0434
10366TIP3    H252514   1.816   3.727   1.135  0.1953 -0.4978 -1.3202
10367TIP3   OH252515   5.303   0.436  12.596  0.1365 -0.2806  0.0167
10367TIP3    H152516   5.374   0.497  12.616  0.2348 -0.8557  1.4461
10367TIP3    H252517   5.334   0.352  12.628 -1.1459 -0.5532  0.5617
10368TIP3   OH252518   1.199   0.868   0.790  0.2106 -0.2166  0.3229
10368TIP3    H152519   1.107   0.888   0.807  0.0138 -1.0056  0.1992
10368TIP3    H252520   1.234   0.948   0.749 -0.6313 -0.2291 -0.4256
10369TIP3   OH252521   3.562   5.633  12.695 -0.1613 -0.2030  0.5653
10369TIP3    H152522   3.646   5.640  12.741  0.1026 -0.1361  0.0717
10369TIP3    H252523   3.512   5.708  12.727 -0.1143 -0.3618  1.0226
10370TIP3   OH252524   6.133   1.162  14.203  0.0843 -0.1939 -0.2446
10370TIP3    H152525   6.183   1.114  14.270  1.6962  0.4937 -0.9116
10370TIP3    H252526   6.042   1.145  14.224  0.6004 -2.6141  0.2304
10371TIP3   OH252527   6.686   0.964  15.325  0.5999 -0.1719 -0.4607
10371TIP3    H152528   6.635   1.045  15.327 -1.2522 -1.3423  1.1737
10371TIP3    H252529   6.757   0.980  15.388 -1.0652 -0.6261  1.5741
10372TIP3   OH252530   6.353   2.247   3.453  0.0698 -0.2454  0.2983
10372TIP3    H152531   6.310   2.332   3.465 -0.3141 -0.3654 -0.2489
10372TIP3    H252532   6.296   2.184   3.498  0.5875 -0.1558  1.0990
10373TIP3   OH252533   5.869   2.086  11.553 -0.2148 -0.6895  0.0782
10373TIP3    H152534   5.838   2.003  11.589 -0.0045 -1.1452 -0.7910
10373TIP3    H252535   5.956   2.067  11.519  1.7230  0.9060  3.7975
10374TIP3   OH252536   6.223   1.350   5.905 -0.1018 -0.1421 -0.2675
10374TIP3    H152537   6.165   1.426   5.900  0.2741  0.0458 -2.2259
10374TIP3    H252538   6.309   1.384   5.879  0.5939 -0.7281  1.2128
10375TIP3   OH252539   0.240   3.664   3.478  0.7933 -0.2565  0.3385
10375TIP3    H152540   0.213   3.716   3.554 -0.1820 -0.8511  0.4096
10375TIP3    H252541   0.167   3.604   3.463  0.3021  0.8433 -1.9791
10376TIP3   OH252542   1.777   3.614  16.707  0.5373  0.9555 -0.2630
10376TIP3    H152543   1.764   3.633  16.800  1.2914  1.1826 -0.2012
10376TIP3    H252544   1.801   3.522  16.704  0.8527  1.0350 -0.1992
10377TIP3   OH252545   4.527   5.096  16.285  0.2948  0.0557 -0.9427
10377TIP3    H152546   4.563   5.155  16.352  0.5852 -0.9168 -0.2148
10377TIP3    H252547   4.542   5.141  16.202  1.1945  0.6733 -0.4584
10378TIP3   OH252548   4.943   3.369  16.548 -0.2105  0.1290  0.0529
10378TIP3    H152549   4.912   3.459  16.535  0.7580  0.1608 -2.3393
10378TIP3    H252550   4.916   3.323  16.468  1.6541 -1.0276  0.0685
10379TIP3   OH252551   0.895   6.589   1.822 -0.3668 -0.4770  0.1450
10379TIP3    H152552   0.947   6.538   1.884  0.3245 -3.5160 -2.7694
10379TIP3    H252553   0.837   6.525   1.781 -1.0562  1.4693 -2.0451
10380TIP3   OH252554   0.105   5.457  12.767 -0.6747  0.3739  0.3450
10380TIP3    H152555   0.161   5.499  12.833  1.3182  1.3697 -1.8907
10380TIP3    H252556   0.103   5.365  12.793  1.7491  0.3831  0.7173
10381TIP3   OH252557   5.654   0.866  11.866 -0.2031  0.0090  0.8104
10381TIP3    H152558   5.560   0.877  11.849 -0.3613 -0.2862  1.4992
10381TIP3    H252559   5.690   0.840  11.781 -0.6242  0.8324  0.3624
10382TIP3   OH252560   4.659   2.320   3.177  0.0652  0.1169  0.3631
10382TIP3    H152561   4.659   2.406   3.135 -0.5716  0.7012  1.5494
10382TIP3    H252562   4.683   2.338   3.268 -4.4648 -0.3734  1.7737
10383TIP3   OH252563   3.158   1.505   1.810  0.0873 -0.2134  0.7022
10383TIP3    H152564   3.218   1.464   1.872  1.6797  1.0798  0.0442
10383TIP3    H252565   3.080   1.449   1.811  1.1043 -1.6279  1.9311
10384TIP3   OH252566   5.152   4.807   1.039  0.3315  0.4942  0.3810
10384TIP3    H152567   5.200   4.754   0.976 -0.2968  0.5474 -0.1484
10384TIP3    H252568   5.203   4.888   1.046  0.1860  0.6471 -0.3582
10385TIP3   OH252569   2.198   0.517  12.239 -0.3161  0.8058 -0.0760
10385TIP3    H152570   2.170   0.593  12.188 -0.0174  0.5171 -0.6676
10385TIP3    H252571   2.291   0.532  12.256 -0.7491  1.6810  1.7448
10386TIP3   OH252572   3.677   5.385  12.796 -0.7518 -0.8446  0.0325
10386TIP3    H152573   3.762   5.410  12.760 -0.0248 -2.3460  0.6659
10386TIP3    H252574   3.691   5.298  12.833 -2.5233 -1.0338  0.3125
10387TIP3   OH252575   5.321   2.057  16.908  0.2982 -0.5590 -0.0460
10387TIP3    H152576   5.402   2.108  16.904  0.5724 -0.9825  0.0780
10387TIP3    H252577   5.338   1.990  16.975 -0.5299  0.0048  0.7375
10388TIP3   OH252578   2.918   6.445   5.689  0.2570  0.3830 -0.5891
10388TIP3    H152579   2.945   6.403   5.608 -0.6551  0.9558 -1.2056
10388TIP3    H252580   2.874   6.526   5.661 -4.6330 -1.8056  0.1545
10389TIP3   OH252581   4.782   5.673   0.180  0.2420 -0.0770  0.5384
10389TIP3    H152582   4.782   5.718   0.264 -1.8859  0.2788  0.3626
10389TIP3    H252583   4.801   5.741   0.116 -0.7125  0.1419  0.4879
10390TIP3   OH252584   4.117   1.270  12.589  0.3050 -0.5985  0.3732
10390TIP3    H152585   4.103   1.225  12.672  0.8646  0.1834  0.9032
10390TIP3    H252586   4.207   1.247  12.564  1.1064  1.3399  1.3680
10391TIP3   OH252587   1.924   0.657  12.598 -0.1358 -0.1730 -0.1924
10391TIP3    H152588   1.973   0.585  12.558  1.1493  0.2895  0.5533
10391TIP3    H252589   1.942   0.648  12.692 -1.5265 -0.0354  0.0980
10392TIP3   OH252590   4.068   6.636   0.346  0.2995  0.0959 -0.0960
10392TIP3    H152591   4.157   6.614   0.375  0.2146 -1.0215 -0.6440
10392TIP3    H252592   4.039   6.559   0.297 -1.1803  0.2356  0.5266
10393TIP3   OH252593   3.799   2.411   1.381  0.2504 -0.6000  0.1191
10393TIP3    H152594   3.852   2.487   1.405 -0.5120 -0.6288  2.0079
10393TIP3    H252595   3.827   2.342   1.441  0.1617 -1.4923 -0.8483
10394TIP3   OH252596   4.926   3.173   3.183 -0.1778 -0.0817 -0.4669
10394TIP3    H152597   4.859   3.241   3.175  0.0680  0.2745  0.4398
10394TIP3    H252598   4.944   3.169   3.277  0.8240 -0.4203 -0.6758
10395TIP3   OH252599   4.140   1.625   6.061  0.1727 -0.0404  0.1854
10395TIP3    H152600   4.234   1.611   6.071  0.1638 -0.0453  0.2685
10395TIP3    H252601   4.101   1.539   6.076  0.2591 -0.3597 -1.3842
10396TIP3   OH252602   3.940   1.318  16.414  0.1570 -0.4814  0.7036
10396TIP3    H152603   3.951   1.397  16.361 -0.7902 -0.5347  0.4244
10396TIP3    H252604   3.920   1.350  16.502  1.6620 -0.3935  1.0295
10397TIP3   OH252605   4.665   5.624   1.200  0.1704 -0.0890 -0.3259
10397TIP3    H152606   4.638   5.708   1.162 -1.2282 -0.1637  0.4611
10397TIP3    H252607   4.710   5.579   1.129 -2.6282 -0.3513 -2.0087
10398TIP3   OH252608   0.795   5.769  12.229 -0.1490 -0.2443 -0.1882
10398TIP3    H152609   0.719   5.730  12.187 -0.4705  0.5727 -0.3760
10398TIP3    H252610   0.766   5.792  12.317 -0.1041  0.0142 -0.2404
10399TIP3   OH252611   4.577   5.676  14.514 -0.8268  0.1791 -0.1877
10399TIP3    H152612   4.489   5.666  14.478 -1.0669 -2.2405  0.9610
10399TIP3    H252613   4.598   5.768  14.502 -3.1418  0.5833 -1.3236
10400TIP3   OH252614   2.536   1.010   2.720  0.1573  0.3506  0.2342
10400TIP3    H152615   2.568   1.019   2.630  1.2999 -3.1487  0.2181
10400TIP3    H252616   2.604   1.051   2.773  1.4676 -1.0931 -0.2776
10401TIP3   OH252617   4.112   4.013  14.977 -0.3424 -0.0459  0.1075
10401TIP3    H152618   4.129   3.924  14.947  2.3333  1.0881 -1.9445
10401TIP3    H252619   4.033   4.040  14.930  0.0263 -0.6404 -0.8687
10402TIP3   OH252620   3.571   2.998   2.275 -0.3070 -0.6714  0.0294
10402TIP3    H152621   3.584   2.983   2.369  2.1922 -1.2326 -0.3816
10402TIP3    H252622   3.573   2.910   2.236 -2.1438 -0.5052 -0.4626
10403TIP3   OH252623   4.997   0.171  15.858 -0.4040  0.3159 -0.5805
10403TIP3    H152624   4.932   0.153  15.926 -0.3162  1.3171 -0.2165
10403TIP3    H252625   5.061   0.101  15.867 -0.8481 -0.0506 -0.2041
10404TIP3   OH252626   4.186   6.506  16.633 -0.0629  0.0501  0.1336
10404TIP3    H152627   4.162   6.469  16.718 -0.7966  0.6850  0.2139
10404TIP3    H252628   4.118   6.474  16.573  1.0586 -1.2793 -0.4466
10405TIP3   OH252629   3.045   3.250   5.134  0.8817  0.1119  0.5991
10405TIP3    H152630   2.986   3.199   5.079  0.6586 -0.1073  1.0446
10405TIP3    H252631   3.110   3.187   5.165  0.8055  0.1698  0.8737
10406TIP3   OH252632   1.973   3.572   4.967 -0.4068 -0.4259 -0.1742
10406TIP3    H152633   1.922   3.591   5.045  0.6100  0.2090  0.3394
10406TIP3    H252634   1.913   3.521   4.911 -0.7260 -1.9552  1.5261
10407TIP3   OH252635   4.394   0.826   0.510 -0.0903  0.3572 -0.2787
10407TIP3    H152636   4.406   0.784   0.596 -2.7539 -0.5167 -0.2664
10407TIP3    H252637   4.331   0.896   0.527 -1.8970 -0.8679 -1.7895
10408TIP3   OH252638   3.602   1.366   3.711 -0.5792 -0.1638 -0.3001
10408TIP3    H152639   3.638   1.309   3.779  1.2248  3.0113  1.5275
10408TIP3    H252640   3.520   1.399   3.748 -0.9100 -0.4568 -0.7673
10409TIP3   OH252641   2.896   2.182  11.821 -0.0648 -0.6431 -0.0651
10409TIP3    H152642   2.822   2.228  11.780  0.6706  0.9465  0.3380
10409TIP3    H252643   2.859   2.142  11.899 -0.0784  1.9840  1.3288
10410TIP3   OH252644   5.458   4.462   1.718  0.4912 -0.7374  0.2054
10410TIP3    H152645   5.493   4.551   1.727  2.4799 -1.3155 -1.3275
10410TIP3    H252646   5.367   4.469   1.746 -0.0505  2.3098 -2.0054
10411TIP3   OH252647   4.867   3.619  16.693 -0.5693  0.4345  0.5474
10411TIP3    H152648   4.804   3.665  16.637  0.3581  1.1254  0.0608
10411TIP3    H252649   4.830   3.626  16.782 -0.3031  2.3369  0.5112
10412TIP3   OH252650   1.492   5.096  17.084  0.5711 -0.0860 -0.0707
10412TIP3    H152651   1.433   5.032  17.124 -0.0617 -1.6618 -3.3975
10412TIP3    H252652   1.580   5.064  17.105  0.2798  0.0042  1.3702
10413TIP3   OH252653   4.248   5.170   4.811  0.3161 -0.3824 -0.4873
10413TIP3    H152654   4.337   5.187   4.780 -0.0042  0.2857 -1.0490
10413TIP3    H252655   4.253   5.186   4.905  0.3398  1.6242 -0.7958
10414TIP3   OH252656   4.176   5.193   0.300 -0.2236  0.7067 -0.1438
10414TIP3    H152657   4.255   5.188   0.246 -0.1427 -0.0008  0.0306
10414TIP3    H252658   4.206   5.172   0.389 -1.0839 -2.6911 -0.5549
10415TIP3   OH252659   0.734   5.866   5.406  0.1572  0.2645  0.2810
10415TIP3    H152660   0.685   5.789   5.377  0.5692  0.1039 -0.0030
10415TIP3    H252661   0.706   5.880   5.496 -1.9138  1.3750 -0.4975
10416TIP3   OH252662   0.048   1.473   3.926  0.1329 -0.0699 -0.0321
10416TIP3    H152663   0.115   1.541   3.931 -1.2841  1.3122  0.4308
10416TIP3    H252664   0.036   1.445   4.017 -0.0247 -0.2047 -0.0942
10417TIP3   OH252665   5.364   2.153   5.617  0.1463  0.5905  0.0808
10417TIP3    H152666   5.456   2.161   5.589  0.5150  0.8327  1.3482
10417TIP3    H252667   5.360   2.200   5.700 -1.1611  0.6851 -0.0304
10418TIP3   OH252668   0.457   2.507  13.493 -0.0377  0.1238 -0.0646
10418TIP3    H152669   0.534   2.456  13.468 -0.9263 -1.1788 -0.1980
10418TIP3    H252670   0.429   2.468  13.576 -0.8731  0.2246 -0.2960
10419TIP3   OH252671   1.407   2.502  13.595 -0.3461 -0.4587 -0.2521
10419TIP3    H152672   1.494   2.477  13.626  0.0636  0.6774 -0.4573
10419TIP3    H252673   1.423   2.537  13.507 -0.5357  2.9348  1.0245
10420TIP3   OH252674   3.170   4.645   5.954 -0.2431  0.5126 -0.0852
10420TIP3    H152675   3.175   4.617   6.046 -0.9128 -0.6155 -0.3810
10420TIP3    H252676   3.130   4.732   5.958 -0.3680  0.4253  0.6934
10421TIP3   OH252677   5.424   2.804  13.703  0.6816 -0.1399 -0.0291
10421TIP3    H152678   5.432   2.746  13.780 -0.3693  0.3117  0.4296
10421TIP3    H252679   5.512   2.839  13.690  1.0706 -0.9472  0.4024
10422TIP3   OH252680   0.904   6.212  11.317 -0.6259 -0.6626 -0.5589
10422TIP3    H152681   0.855   6.222  11.235  0.8105 -1.0193 -1.4588
10422TIP3    H252682   0.851   6.260  11.381 -1.9627 -0.7044 -1.5963
10423TIP3   OH252683   4.889   3.810   3.959  0.0944 -0.1897  0.0240
10423TIP3    H152684   4.955   3.746   3.987  0.0789 -0.2486 -0.0710
10423TIP3    H252685   4.868   3.784   3.869 -2.6343 -2.2861  1.2232
10424TIP3   OH252686   5.006   5.935   3.707  0.0871  0.8640 -0.6647
10424TIP3    H152687   4.942   5.982   3.760  3.1867  3.4013  1.0584
10424TIP3    H252688   4.973   5.941   3.617 -3.3563 -0.2113  0.4564
10425TIP3   OH252689   0.550   1.630   4.875 -1.0733  0.5258 -0.5481
10425TIP3    H152690   0.640   1.658   4.858 -1.2174  0.9500 -0.6370
10425TIP3    H252691   0.496   1.703   4.843 -1.2903  2.0188  3.0234
10426TIP3   OH252692   1.659   1.385   2.764 -0.0463 -0.2983 -0.0333
10426TIP3    H152693   1.696   1.394   2.676 -0.5641 -0.6830 -0.2899
10426TIP3    H252694   1.683   1.466   2.809  0.3278 -0.1588 -0.4886
10427TIP3   OH252695   2.885   0.595   0.557  0.0397  0.4333 -0.3245
10427TIP3    H152696   2.961   0.558   0.512 -0.0752 -1.1764  0.7460
10427TIP3    H252697   2.820   0.609   0.488  1.5300  2.4661 -1.3558
10428TIP3   OH252698   5.768   3.154   0.617 -0.4387  0.4437  0.4866
10428TIP3    H152699   5.751   3.190   0.530  0.9062  0.1745  0.1049
10428TIP3    H252700   5.699   3.089   0.630 -1.6171  1.6416  0.3025
10429TIP3   OH252701   3.354   2.840   1.933 -0.3874  0.1281 -0.3724
10429TIP3    H152702   3.381   2.919   1.886 -1.4211 -0.2712 -1.6598
10429TIP3    H252703   3.328   2.872   2.020  1.9409  0.8091  0.1291
10430TIP3   OH252704   2.549   1.439   3.181 -0.0028 -0.7640 -0.2449
10430TIP3    H152705   2.620   1.407   3.237  0.2690  0.1151 -0.0809
10430TIP3    H252706   2.568   1.532   3.169 -1.6731 -0.2928  0.6242
10431TIP3   OH252707   6.379   6.377  14.372 -0.4677 -0.0028  0.4465
10431TIP3    H152708   6.430   6.407  14.447 -0.2100 -0.2801  0.3874
10431TIP3    H252709   6.364   6.455  14.319 -3.5502  0.8325  2.4593
10432TIP3   OH252710   3.754   2.221  11.284  0.0710 -0.1710 -0.2350
10432TIP3    H152711   3.731   2.154  11.348 -1.1434  0.1229 -0.3345
10432TIP3    H252712   3.724   2.185  11.200  0.3050  0.0702 -0.4236
10433TIP3   OH252713   0.496   3.761  16.147  0.1407 -0.0717 -0.2020
10433TIP3    H152714   0.415   3.810  16.133  0.0418 -0.1765  0.0039
10433TIP3    H252715   0.477   3.673  16.114  0.3449  0.0470 -0.6493
10434TIP3   OH252716   4.794   4.637   1.251  0.2564  0.0201  0.1007
10434TIP3    H152717   4.878   4.675   1.276  0.0779 -0.0844  0.8796
10434TIP3    H252718   4.812   4.544   1.237  0.3009  0.0235  0.1375
10435TIP3   OH252719   2.854   6.246  14.702  0.3238 -0.6843 -0.6044
10435TIP3    H152720   2.893   6.158  14.692 -1.0213 -1.4477  0.6913
10435TIP3    H252721   2.796   6.255  14.627 -0.1939 -1.2689 -0.2804
10436TIP3   OH252722   0.673   2.412  15.529 -0.4868 -0.2719 -0.2583
10436TIP3    H152723   0.668   2.317  15.531 -1.2143 -0.2295  0.3444
10436TIP3    H252724   0.670   2.435  15.436  0.9953 -0.8863 -0.4762
10437TIP3   OH252725   1.769   1.753  16.321  0.0593  0.0683 -0.1775
10437TIP3    H152726   1.710   1.677  16.318  0.4124 -0.2470  0.7024
10437TIP3    H252727   1.789   1.764  16.414  2.1271 -0.3999 -0.5438
10438TIP3   OH252728   5.598   3.476  14.571 -0.7718  0.7040  0.1189
10438TIP3    H152729   5.513   3.445  14.603 -1.5081  0.9966 -1.5166
10438TIP3    H252730   5.635   3.524  14.645 -0.7378 -1.8632  1.8510
10439TIP3   OH252731   4.245   2.740   5.497  0.2614  0.3038  0.4372
10439TIP3    H152732   4.233   2.817   5.441  0.2016 -0.1225 -0.1469
10439TIP3    H252733   4.157   2.705   5.509  0.4384 -0.5240 -0.5386
10440TIP3   OH252734   5.883   1.087  11.676  0.0029 -0.8327 -0.3280
10440TIP3    H152735   5.822   1.159  11.660  0.6696 -0.1744  0.0642
10440TIP3    H252736   5.969   1.128  11.672  0.3670 -1.5238  0.3635
10441TIP3   OH252737   5.825   5.773  15.121 -0.0894 -0.1317 -0.3171
10441TIP3    H152738   5.797   5.861  15.096  0.9840  0.0211 -1.0173
10441TIP3    H252739   5.760   5.744  15.185 -0.4981  1.1426 -0.1446
10442TIP3   OH252740   3.595   3.128  11.194  0.5238  0.2991 -0.4437
10442TIP3    H152741   3.519   3.185  11.178  0.7621  0.4236 -1.1340
10442TIP3    H252742   3.654   3.144  11.121  1.3861  0.4642  0.2773
10443TIP3   OH252743   1.463   2.604   2.792 -0.1712 -0.2710  0.3359
10443TIP3    H152744   1.441   2.622   2.884  1.7330 -1.0163  0.9652
10443TIP3    H252745   1.558   2.615   2.788  0.1679 -3.3169 -0.8447
10444TIP3   OH252746   3.144   6.573  11.543 -0.0217  0.0219  0.1333
10444TIP3    H152747   3.173   6.483  11.524 -2.1708 -1.0988  1.8328
10444TIP3    H252748   3.142   6.577  11.638  1.6313  2.4555  0.0883
10445TIP3   OH252749   0.917   4.700  17.191  0.4452  0.2897  0.5588
10445TIP3    H152750   0.917   4.623  17.248 -1.3617 -1.0567 -1.2008
10445TIP3    H252751   0.857   4.762  17.234 -1.0700 -0.8019  0.0674
10446TIP3   OH252752   3.576   5.254   1.486  0.3447  0.5202 -0.6436
10446TIP3    H152753   3.597   5.198   1.411  1.5356  0.4153 -0.2387
10446TIP3    H252754   3.661   5.276   1.524 -0.2834 -0.1167  1.1757
10447TIP3   OH252755   4.440   4.064   5.089  0.3195  0.6147 -0.0245
10447TIP3    H152756   4.348   4.085   5.072  0.1935 -0.3885 -0.6142
10447TIP3    H252757   4.440   4.031   5.179  0.1994  1.1884  0.1888
10448TIP3   OH252758   0.731   1.415   6.391  0.4413  0.0205 -0.0428
10448TIP3    H152759   0.783   1.395   6.469 -1.4138 -0.0516  1.2094
10448TIP3    H252760   0.753   1.345   6.329  0.1501 -1.2621  1.2850
10449TIP3   OH252761   4.151   0.822  13.956  0.0828 -0.5079  0.6596
10449TIP3    H152762   4.125   0.902  14.002  0.2295 -0.7076  1.0841
10449TIP3    H252763   4.087   0.756  13.983  0.7681 -0.8826  1.3581
10450TIP3   OH252764   5.559   5.744  17.154  0.6738  0.1762  0.3400
10450TIP3    H152765   5.630   5.806  17.172  1.3994 -0.6985  0.5117
10450TIP3    H252766   5.492   5.766  17.219  1.7009 -0.4409  1.6164
10451TIP3   OH252767   2.300   2.895  15.984  0.3245  0.3602 -0.0835
10451TIP3    H152768   2.336   2.879  16.072 -0.0338 -0.1759 -0.0298
10451TIP3    H252769   2.271   2.986  15.987  1.5291  0.7483 -0.0765
10452TIP3   OH252770   2.868   4.362   5.248 -0.3609 -0.0239  0.4404
10452TIP3    H152771   2.883   4.274   5.281 -0.4293 -0.3684 -0.4305
10452TIP3    H252772   2.951   4.408   5.264  0.4734 -0.9221 -1.2188
10453TIP3   OH252773   5.331   0.284   5.979  0.1011 -0.2582  0.0638
10453TIP3    H152774   5.255   0.339   5.999  0.8281  0.7260  0.1257
10453TIP3    H252775   5.338   0.287   5.883 -1.0630 -1.8707 -0.0893
10454TIP3   OH252776   4.164   3.255   3.484 -0.1814  0.5632 -0.1116
10454TIP3    H152777   4.132   3.344   3.503 -1.7686  0.5925 -2.5749
10454TIP3    H252778   4.084   3.204   3.472  0.7291 -1.2708  1.5007
10455TIP3   OH252779   1.159   2.210   1.764  0.1470 -0.2262 -0.1580
10455TIP3    H152780   1.243   2.203   1.718  0.5368  0.9559  0.3455
10455TIP3    H252781   1.146   2.123   1.803  0.7531 -0.6544 -0.8971
10456TIP3   OH252782   0.619   1.074   3.840  0.0222 -0.3775  0.5615
10456TIP3    H152783   0.532   1.043   3.865  0.3017 -0.2744  1.7029
10456TIP3    H252784   0.667   1.081   3.923  0.4648  1.5485  0.1771
10457TIP3   OH252785   6.146   4.598   2.194 -0.5852 -0.1568 -0.1474
10457TIP3    H152786   6.054   4.574   2.190 -1.4782  3.1225 -0.8433
10457TIP3    H252787   6.166   4.633   2.108  1.8105 -2.3238 -0.5440
10458TIP3   OH252788   1.329   1.793  13.899  0.0709 -0.2150 -0.4820
10458TIP3    H152789   1.366   1.712  13.862  2.8094  0.0174  1.6306
10458TIP3    H252790   1.373   1.863  13.851 -0.1994  0.0409 -0.3548
10459TIP3   OH252791   1.657   3.595  15.344  0.3632  0.6377  0.7288
10459TIP3    H152792   1.679   3.617  15.253  0.7968  2.1382  1.1775
10459TIP3    H252793   1.742   3.596  15.389  0.4974 -2.7712  0.6294
10460TIP3   OH252794   6.492   4.067  14.033 -0.4942  0.2166  0.3175
10460TIP3    H152795   6.558   4.012  13.991  0.3288  0.5881  1.1106
10460TIP3    H252796   6.511   4.062  14.126 -1.5124  0.4359  0.5488
10461TIP3   OH252797   0.491   1.083  15.424  0.3060  0.4380 -0.5845
10461TIP3    H152798   0.414   1.110  15.373 -1.9672 -1.0742  1.9132
10461TIP3    H252799   0.519   1.002  15.383 -0.9166 -0.2633 -0.0617
10462TIP3   OH252800   5.385   2.347   3.923  0.5765  0.0676 -0.2397
10462TIP3    H152801   5.473   2.311   3.933 -0.0634 -1.6393 -0.6649
10462TIP3    H252802   5.328   2.284   3.967 -0.2800  1.9777  1.4860
10463TIP3   OH252803   4.165   2.703  15.557  0.4741 -0.2793 -0.6622
10463TIP3    H152804   4.081   2.732  15.593  2.0811  2.6990  0.8998
10463TIP3    H252805   4.170   2.610  15.579 -0.8634  0.3125  2.3956
10464TIP3   OH252806   3.450   5.845  13.094 -0.3203 -0.3284  0.3761
10464TIP3    H152807   3.485   5.916  13.041  1.0530 -0.7633  0.6730
10464TIP3    H252808   3.497   5.767  13.063 -2.4621 -1.2733 -0.5818
10465TIP3   OH252809   3.940   5.934  16.713 -0.5429 -0.4760  0.3293
10465TIP3    H152810   3.863   5.968  16.668  0.5054 -0.8247 -1.8257
10465TIP3    H252811   3.911   5.920  16.803 -2.3197  1.5503  0.1110
10466TIP3   OH252812   5.600   0.371   0.462  0.1574 -0.1964  0.0223
10466TIP3    H152813   5.595   0.337   0.372 -1.1645  2.3973 -0.9340
10466TIP3    H252814   5.511   0.359   0.496 -0.0689  1.3920  0.0008
10467TIP3   OH252815   5.062   2.824   2.614 -0.1514  0.4638  0.2161
10467TIP3    H152816   5.113   2.906   2.616 -0.0591  0.3886  1.5097
10467TIP3    H252817   5.099   2.772   2.685 -0.0870 -0.7911 -0.7202
10468TIP3   OH252818   6.642   0.847   4.904  0.3910  0.1374 -0.1437
10468TIP3    H152819   6.663   0.858   4.997 -0.1385 -2.0038  0.2458
10468TIP3    H252820   6.716   0.885   4.858  0.8209  0.9010  1.1640
10469TIP3   OH252821   6.208   4.287   2.086  0.0680 -0.5444  0.5825
10469TIP3    H152822   6.230   4.319   1.999 -1.3344 -1.4742 -0.1434
10469TIP3    H252823   6.198   4.366   2.139  0.8133  0.0301 -0.1235
10470TIP3   OH252824   0.194   1.833  16.446  0.1963  0.3322 -0.2504
10470TIP3    H152825   0.119   1.875  16.404  0.0055 -0.6521 -0.9142
10470TIP3    H252826   0.158   1.754  16.486 -0.0024  2.2424  3.4818
10471TIP3   OH252827   5.605   2.004  15.790  0.0247  0.7200  0.2722
10471TIP3    H152828   5.632   1.941  15.723  0.3921  0.8976  0.2555
10471TIP3    H252829   5.523   2.040  15.756  1.5027  2.6572 -1.2986
10472TIP3   OH252830   6.481   6.132  16.382 -0.2238 -0.0201 -0.3800
10472TIP3    H152831   6.544   6.191  16.340  0.4963 -0.3138  0.2744
10472TIP3    H252832   6.531   6.089  16.452 -1.3475  0.2993  0.6362
10473TIP3   OH252833   5.732   0.634  13.229 -0.3438 -0.3523  0.2933
10473TIP3    H152834   5.687   0.606  13.150  2.0928  1.3751 -1.7797
10473TIP3    H252835   5.693   0.719  13.251  1.1697  0.7021 -0.9677
10474TIP3   OH252836   0.360   5.647   4.366 -0.2981 -0.1822  0.0539
10474TIP3    H152837   0.362   5.663   4.460 -1.2818  0.2978 -0.0055
10474TIP3    H252838   0.324   5.727   4.328  2.5473  0.6618 -0.9701
10475TIP3   OH252839   2.041   3.543  13.036 -0.7255 -0.0991 -0.0752
10475TIP3    H152840   2.035   3.638  13.025 -0.1087  0.1107  1.2719
10475TIP3    H252841   1.999   3.507  12.958 -0.4229  1.2802 -0.8941
10476TIP3   OH252842   0.616   4.354  14.603 -0.0461 -0.2255 -0.2547
10476TIP3    H152843   0.536   4.328  14.557  0.0133 -0.8622 -0.0033
10476TIP3    H252844   0.623   4.292  14.675  0.1149  0.4803  0.3424
10477TIP3   OH252845   4.037   4.054   0.088  0.0513  0.0157  0.3713
10477TIP3    H152846   4.042   4.016   0.175  0.7366 -0.5258  0.0995
10477TIP3    H252847   4.036   4.148   0.103 -0.7568 -0.0884  1.0049
10478TIP3   OH252848   2.207   3.733   1.854 -0.3969  0.5739 -0.0826
10478TIP3    H152849   2.233   3.665   1.792 -1.8673 -0.8390  0.8034
10478TIP3    H252850   2.198   3.812   1.801  0.0885 -0.2165 -1.3582
10479TIP3   OH252851   2.426   4.444  15.898 -0.0107 -0.2334  0.1625
10479TIP3    H152852   2.446   4.537  15.908  1.3938 -0.6016  1.0107
10479TIP3    H252853   2.355   4.428  15.960  2.1573 -0.4486  2.6689
10480TIP3   OH252854   2.060   1.834  14.549  0.2002  0.1047 -0.1591
10480TIP3    H152855   2.119   1.759  14.549 -2.0218 -1.7274  1.1799
10480TIP3    H252856   1.977   1.799  14.581 -0.9748  3.0998  0.2490
10481TIP3   OH252857   2.554   4.173   6.234 -0.2951 -0.2658 -0.5554
10481TIP3    H152858   2.512   4.220   6.306  0.4370  0.4615 -0.6015
10481TIP3    H252859   2.572   4.086   6.270 -2.3721 -0.8008 -0.7224
10482TIP3   OH252860   5.928   0.030   4.951  0.2917 -0.2412 -0.2382
10482TIP3    H152861   5.928  -0.066   4.955 -0.4441 -0.2081  0.8824
10482TIP3    H252862   5.989   0.051   4.880 -0.0217 -1.5531 -0.9183
10483TIP3   OH252863   5.594   6.728   0.617  0.7031  0.4396 -0.3905
10483TIP3    H152864   5.645   6.657   0.656  0.4562  1.2896  1.5773
10483TIP3    H252865   5.654   6.803   0.615  0.1989  0.8599 -0.0689
10484TIP3   OH252866   1.982   0.315   2.159 -0.2552  0.0482 -0.3379
10484TIP3    H152867   1.958   0.289   2.249 -2.2979 -2.0616 -1.4276
10484TIP3    H252868   2.043   0.388   2.171 -1.1275  0.3633  2.7505
10485TIP3   OH252869   5.857   0.676  16.025 -0.3088  0.0283 -0.2006
10485TIP3    H152870   5.914   0.748  15.997  2.5013 -1.9370  0.2731
10485TIP3    H252871   5.856   0.617  15.950 -0.1151 -0.8875  0.5121
10486TIP3   OH252872   1.371   0.128  16.807  0.1967 -0.2434 -0.1572
10486TIP3    H152873   1.318   0.087  16.876 -2.2138  0.9868 -1.2081
10486TIP3    H252874   1.380   0.059  16.741 -0.0446 -0.4928  0.0673
10487TIP3   OH252875   6.660   2.846  11.326 -0.5576  0.1767 -0.4931
10487TIP3    H152876   6.684   2.778  11.263  1.1447  0.5205 -0.2422
10487TIP3    H252877   6.732   2.846  11.390  0.7642  3.8923 -1.8568
10488TIP3   OH252878   3.441   4.223  16.504 -0.2110  0.7341 -0.1811
10488TIP3    H152879   3.370   4.270  16.460  0.3724  3.8848  2.0412
10488TIP3    H252880   3.521   4.259  16.466  0.2365 -0.9400 -0.8486
10489TIP3   OH252881   4.337   2.248   2.543  0.6128 -0.2554  0.4765
10489TIP3    H152882   4.338   2.240   2.448 -0.2887  2.3538  0.1968
10489TIP3    H252883   4.403   2.186   2.573  0.8129 -1.2149 -1.8341
10490TIP3   OH252884   0.265   0.730  12.417 -0.2664 -0.0910 -0.2050
10490TIP3    H152885   0.271   0.730  12.513 -3.3044 -0.6173  0.0376
10490TIP3    H252886   0.282   0.640  12.391  1.1130  0.1628 -0.2381
10491TIP3   OH252887   6.032   3.885  13.813 -0.4164  0.0173  0.9024
10491TIP3    H152888   5.957   3.890  13.872 -0.2455  2.4452  0.9927
10491TIP3    H252889   6.105   3.919  13.865  1.1559 -3.8654  1.3637
10492TIP3   OH252890   1.605   4.408  15.327 -0.3345  0.6617  0.8184
10492TIP3    H152891   1.585   4.319  15.356 -1.6326 -0.1892 -2.4535
10492TIP3    H252892   1.522   4.455  15.331  0.5485  2.1016  3.5606
10493TIP3   OH252893   6.509   2.828  13.820 -0.3279  0.2620  0.3813
10493TIP3    H152894   6.570   2.801  13.888  0.1882 -0.3368 -0.3154
10493TIP3    H252895   6.440   2.875  13.867 -1.4687 -2.5648  1.7011
10494TIP3   OH252896   0.890   6.215  12.058 -0.0868  0.0716  0.4683
10494TIP3    H152897   0.912   6.247  11.971 -0.5908  0.0689  0.3345
10494TIP3    H252898   0.961   6.245  12.115  1.8886 -2.5561 -0.4953
10495TIP3   OH252899   5.682   3.017  13.617 -0.0302 -0.1570  0.0441
10495TIP3    H152900   5.695   3.082  13.686 -0.4885 -0.6614  0.6114
10495TIP3    H252901   5.702   3.064  13.536  0.1233  0.5517  0.4842
10496TIP3   OH252902   5.953   5.093  12.968 -0.4818 -0.4074 -0.4890
10496TIP3    H152903   5.872   5.045  12.983 -0.7689 -0.0421 -0.8815
10496TIP3    H252904   5.925   5.180  12.939  0.0326 -0.0208  0.1502
10497TIP3   OH252905   4.890   6.746  15.230 -0.3120  0.2669  0.3506
10497TIP3    H152906   4.863   6.666  15.185  2.5378 -0.6290  0.1046
10497TIP3    H252907   4.828   6.756  15.302 -1.4524 -1.4683 -0.3668
10498TIP3   OH252908   3.771   2.767  15.418  0.9579 -0.2924  0.1751
10498TIP3    H152909   3.748   2.853  15.382  2.5320 -0.4576 -1.3215
10498TIP3    H252910   3.857   2.781  15.460  1.6127 -1.3079 -0.7971
10499TIP3   OH252911   6.684   5.998  13.949 -0.3229 -0.5935 -0.3496
10499TIP3    H152912   6.770   6.038  13.952 -0.0362 -1.2317  0.0972
10499TIP3    H252913   6.700   5.905  13.967 -1.2150 -0.5205  0.8845
10500TIP3   OH252914   4.172   4.130   2.546  0.1807  0.3030  0.4172
10500TIP3    H152915   4.191   4.100   2.457 -2.1009  0.2547 -0.1007
10500TIP3    H252916   4.103   4.196   2.534 -2.8139 -2.3265  2.3831
10501TIP3   OH252917   2.480   2.573  17.216 -0.2266 -0.2833  0.0150
10501TIP3    H152918   2.543   2.547  17.283 -0.3789 -0.3863  0.1206
10501TIP3    H252919   2.403   2.602  17.265 -0.2032 -0.0126 -0.1116
10502TIP3   OH252920   0.128   0.976   3.811  1.0107 -1.0863  0.0703
10502TIP3    H152921   0.133   1.003   3.720  1.5182  0.8059  0.6406
10502TIP3    H252922   0.035   0.960   3.827  0.7210  0.1987 -0.3283
10503TIP3   OH252923   2.864   2.881  14.006 -0.1441  0.2965  0.0060
10503TIP3    H152924   2.826   2.886  14.094 -1.6158  2.5618 -0.7131
10503TIP3    H252925   2.951   2.920  14.015 -0.2012  0.3191  0.5034
10504TIP3   OH252926   3.163   6.766  15.029  0.7212 -0.1357 -0.3466
10504TIP3    H152927   3.221   6.841  15.042  1.3918 -0.4279 -1.6472
10504TIP3    H252928   3.171   6.745  14.936 -2.1506  0.3772 -0.7469
10505TIP3   OH252929   4.528   6.268   4.053 -0.0576  0.1112 -0.4277
10505TIP3    H152930   4.544   6.177   4.080 -0.7913  0.0366 -0.2459
10505TIP3    H252931   4.495   6.261   3.964  0.4485  0.2363 -0.6255
10506TIP3   OH252932   2.466   3.724   5.543  0.3450  0.1263  0.5456
10506TIP3    H152933   2.407   3.736   5.468  0.1681  0.4817  0.7407
10506TIP3    H252934   2.500   3.811   5.562 -0.1637  0.1599  1.3274
10507TIP3   OH252935   6.382   1.037  10.968  0.1460 -0.3858 -0.2717
10507TIP3    H152936   6.306   1.094  10.974  0.5289  0.1610 -0.5664
10507TIP3    H252937   6.351   0.959  10.922 -0.8936 -1.3049  1.9149
10508TIP3   OH252938   2.856   0.524  13.555  0.1192 -0.2457  0.2687
10508TIP3    H152939   2.872   0.617  13.572 -1.5164 -0.0026  0.4859
10508TIP3    H252940   2.822   0.520  13.466  2.2674 -0.8698 -0.5555
10509TIP3   OH252941   0.883   6.436  11.150 -0.0281  0.4785  0.5678
10509TIP3    H152942   0.863   6.518  11.106 -0.5285 -0.4287 -0.9278
10509TIP3    H252943   0.827   6.371  11.107  2.3286 -1.1495 -0.1542
10510TIP3   OH252944   3.867   1.715   5.743 -0.2208  0.6843 -0.1026
10510TIP3    H152945   3.843   1.767   5.666 -0.8094  1.8952  0.8721
10510TIP3    H252946   3.925   1.773   5.793  1.1674 -0.5495 -0.2231
10511TIP3   OH252947   0.636   1.848   5.264 -0.3095 -0.2120  0.0449
10511TIP3    H152948   0.693   1.778   5.233  1.0825 -0.3258  2.7106
10511TIP3    H252949   0.695   1.916   5.296 -1.6624  0.8974  0.2650
10512TIP3   OH252950   5.873   0.911   5.611 -0.0128  0.2070 -0.0864
10512TIP3    H152951   5.966   0.905   5.631  0.6828  1.6310 -2.7423
10512TIP3    H252952   5.839   0.975   5.674  1.2537  1.3489 -0.5410
10513TIP3   OH252953   1.462   3.786   1.494 -0.3000 -0.5258  0.3334
10513TIP3    H152954   1.461   3.874   1.531 -2.2281 -0.3167 -0.1863
10513TIP3    H252955   1.553   3.774   1.464  0.1954  0.9284  1.2169
10514TIP3   OH252956   0.695   0.946  17.079 -0.0564 -0.0676 -0.3120
10514TIP3    H152957   0.636   0.889  17.029  0.7666 -0.3231 -0.9939
10514TIP3    H252958   0.725   0.891  17.152 -0.0832 -0.1658 -0.3754
10515TIP3   OH252959   3.266   1.593   6.027 -0.0695 -0.1544 -0.6013
10515TIP3    H152960   3.224   1.670   5.989 -0.6521  0.5396  1.3570
10515TIP3    H252961   3.197   1.550   6.076  1.2643  0.6650  2.1701
10516TIP3   OH252962   2.641   6.743   2.090 -0.7388 -0.0999  0.2772
10516TIP3    H152963   2.716   6.738   2.149 -1.0278  0.1260  0.6649
10516TIP3    H252964   2.641   6.833   2.057 -3.2847  1.1695  3.5245
10517TIP3   OH252965   3.223   5.342   0.755  0.0037  0.3678  0.2491
10517TIP3    H152966   3.255   5.274   0.695 -0.5508 -1.0227  1.4994
10517TIP3    H252967   3.295   5.405   0.760  0.7730 -0.4316 -0.4614
10518TIP3   OH252968   5.163   2.138  14.770  0.1255 -0.5865  0.6979
10518TIP3    H152969   5.243   2.140  14.717  0.0386  0.4516  0.5862
10518TIP3    H252970   5.184   2.080  14.843  0.9093 -0.4943  0.5571
10519TIP3   OH252971   0.858   2.141   5.967  0.4697  0.2372 -0.0583
10519TIP3    H152972   0.933   2.148   6.026 -0.2313  3.0836  0.5586
10519TIP3    H252973   0.786   2.109   6.022 -0.1010  2.5915  0.6393
10520TIP3   OH252974   5.591   2.848  14.253  0.2513 -0.1674 -0.0892
10520TIP3    H152975   5.541   2.921  14.218 -1.5343 -1.3900 -0.1650
10520TIP3    H252976   5.580   2.854  14.348  0.7073  0.0858 -0.0518
10521TIP3   OH252977   3.813   5.297  14.484 -0.1859  0.3007 -0.1865
10521TIP3    H152978   3.870   5.330  14.415  0.7723  2.1424  1.4450
10521TIP3    H252979   3.838   5.205  14.493  0.9459  0.5143 -1.0149
10522TIP3   OH252980   4.494   6.490  11.041  0.6739  0.4813  0.0117
10522TIP3    H152981   4.565   6.479  10.977  1.5814 -0.9972  1.2304
10522TIP3    H252982   4.451   6.404  11.045  0.6144  0.5507  1.3344
10523TIP3   OH252983   2.748   4.120  16.867 -0.4071 -0.3588  0.5316
10523TIP3    H152984   2.807   4.148  16.938 -1.2238  0.3091  0.9583
10523TIP3    H252985   2.792   4.045  16.828  1.0098  0.4619  0.4910
10524TIP3   OH252986   3.361   0.585   5.018 -0.1239 -0.1700 -0.0625
10524TIP3    H152987   3.376   0.678   5.035  1.6597 -0.6516  1.1904
10524TIP3    H252988   3.448   0.550   4.999 -0.8938 -1.4281 -1.3835
10525TIP3   OH252989   5.757   4.740  16.902 -0.1354  0.4228 -0.0116
10525TIP3    H152990   5.842   4.779  16.923 -0.2701  1.0028 -0.5237
10525TIP3    H252991   5.771   4.694  16.819  0.0623 -0.7645  0.6636
10526TIP3   OH252992   3.185   1.191  13.442 -0.5485  0.7533  0.0111
10526TIP3    H152993   3.123   1.192  13.516  1.7697 -0.4447  2.0590
10526TIP3    H252994   3.199   1.098  13.425 -0.8334  1.0310 -1.7677
10527TIP3   OH252995   1.933   6.301   4.608  0.1346 -0.6743  0.2448
10527TIP3    H152996   1.969   6.219   4.641  1.4829 -0.2229 -0.0484
10527TIP3    H252997   2.009   6.346   4.570 -0.7512  0.3237 -0.3551
10528TIP3   OH252998   2.890   4.272   2.187 -0.2797  0.6899 -0.1349
10528TIP3    H152999   2.934   4.326   2.122 -0.5951  0.1819 -0.7808
10528TIP3    H253000   2.951   4.200   2.204 -0.8629 -0.0309 -1.0530
10529TIP3   OH253001   1.565   0.453  15.267 -0.1127  0.1141  0.0716
10529TIP3    H153002   1.552   0.359  15.280  2.1751 -0.2245  0.0390
10529TIP3    H253003   1.630   0.459  15.197  0.9419  1.6833  1.1669
10530TIP3   OH253004   4.307   4.125  13.449 -0.8137 -0.5652 -0.0566
10530TIP3    H153005   4.390   4.110  13.403 -1.1657 -0.6248 -0.6749
10530TIP3    H253006   4.252   4.051  13.425 -1.3697 -0.0456 -0.3864
10531TIP3   OH253007   4.601   0.488   3.214 -0.1627  0.0615  0.3011
10531TIP3    H153008   4.659   0.487   3.138  0.0025  1.3876  0.3995
10531TIP3    H253009   4.629   0.564   3.265 -1.0944 -0.0828  1.0518
10532TIP3   OH253010   1.264   0.358  14.059 -0.0910 -0.1259  0.4411
10532TIP3    H153011   1.338   0.414  14.036 -0.7082  0.3080 -0.5400
10532TIP3    H253012   1.294   0.309  14.135  0.8109  0.8304  0.7205
10533TIP3   OH253013   4.174   3.503  12.310 -0.8477  0.3972  0.3161
10533TIP3    H153014   4.117   3.573  12.279  1.6834  2.0311 -0.7771
10533TIP3    H253015   4.175   3.514  12.405  0.1125  2.3188  0.0990
10534TIP3   OH253016   0.803   3.457  14.011 -0.1797 -0.2829 -0.2717
10534TIP3    H153017   0.821   3.544  13.974 -0.3071  0.3177  1.0546
10534TIP3    H253018   0.884   3.433  14.056 -0.3005 -0.6649 -0.2530
10535TIP3   OH253019   5.726   6.466   0.599 -0.3952 -0.0897  0.8327
10535TIP3    H153020   5.698   6.415   0.675  1.2055 -0.9968  0.8130
10535TIP3    H253021   5.713   6.408   0.524  0.5773 -0.1476  0.7080
10536TIP3   OH253022   3.593   6.277  16.075  0.1656 -0.1980 -0.1936
10536TIP3    H153023   3.541   6.232  16.008 -0.4570  0.0285  0.1343
10536TIP3    H253024   3.637   6.348  16.027 -3.0139  2.1808  0.2248
10537TIP3   OH253025   2.776   5.328   6.326 -0.4471  0.0052  0.3405
10537TIP3    H153026   2.763   5.247   6.277  0.3245  0.2444 -0.2777
10537TIP3    H253027   2.696   5.378   6.311 -0.0565  0.2515 -1.0363
10538TIP3   OH253028   5.798   4.597  12.225 -0.0803 -0.0660  0.0183
10538TIP3    H153029   5.791   4.690  12.203 -2.1417 -0.5151 -1.3554
10538TIP3    H253030   5.712   4.560  12.202  1.1702 -2.5843 -0.7746
10539TIP3   OH253031   1.160   4.004   0.724 -0.1361  0.6284  0.3285
10539TIP3    H153032   1.255   3.995   0.729 -0.0013  2.1108  0.7800
10539TIP3    H253033   1.140   4.076   0.784 -1.2644  2.0044 -1.6465
10540TIP3   OH253034   3.305   4.080   3.000  0.6713 -0.3319 -0.2951
10540TIP3    H153035   3.360   4.070   2.922  2.1443 -1.8753  0.9036
10540TIP3    H253036   3.352   4.144   3.054  0.5164 -0.5350  0.0762
10541TIP3   OH253037   2.921   4.291  17.016  0.1610  0.6516  0.4935
10541TIP3    H153038   2.918   4.364  17.077  0.0580 -0.6229  2.0333
10541TIP3    H253039   3.014   4.276  17.000  0.1515  2.1171 -1.0648
10542TIP3   OH253040   2.958   1.715   0.435  0.1310  0.0551 -0.0625
10542TIP3    H153041   2.930   1.806   0.442  0.4673  0.1241  0.4245
10542TIP3    H253042   3.022   1.704   0.505  0.3333 -0.4678 -0.3237
10543TIP3   OH253043   0.406   4.211  11.818  0.5668  0.4107  0.0627
10543TIP3    H153044   0.470   4.164  11.764 -0.5204  0.1843 -1.0535
10543TIP3    H253045   0.379   4.285  11.764 -0.7758  0.0028  0.1455
10544TIP3   OH253046   4.545   1.383  12.973 -0.0093 -0.9400 -0.6879
10544TIP3    H153047   4.524   1.458  12.918  0.2610 -0.4500 -0.1322
10544TIP3    H253048   4.566   1.421  13.058  1.8723 -1.5037 -0.8794
10545TIP3   OH253049   1.578   0.286  16.317 -0.2500  0.3233 -0.4754
10545TIP3    H153050   1.636   0.237  16.259 -0.8145 -1.3079  0.3073
10545TIP3    H253051   1.636   0.337  16.373  0.3681  0.0459 -0.8654
10546TIP3   OH253052   2.428   4.921   5.122  0.4208  0.5127 -0.0768
10546TIP3    H153053   2.439   4.874   5.039 -1.4489 -1.4757  0.7184
10546TIP3    H253054   2.333   4.918   5.138  0.5292  2.6437  1.1400
10547TIP3   OH253055   3.548   5.486  13.908 -0.3185 -0.5108  0.3526
10547TIP3    H153056   3.629   5.454  13.946 -1.1671 -1.1524  1.6240
10547TIP3    H253057   3.501   5.528  13.980 -0.2231  1.6825 -0.7916
10548TIP3   OH253058   6.606   5.726  16.606  0.5886  0.0934 -0.5398
10548TIP3    H153059   6.592   5.718  16.512 -0.9297 -1.5522 -0.2012
10548TIP3    H253060   6.631   5.638  16.635  1.2659  0.6318  0.5655
10549TIP3   OH253061   3.676   2.184   1.777 -0.5997  0.2162 -0.0858
10549TIP3    H153062   3.680   2.278   1.759 -2.0872 -0.3137 -3.6663
10549TIP3    H253063   3.583   2.162   1.765  0.2678 -2.2640 -2.8090
10550TIP3   OH253064   4.994   2.907   0.270  1.1937 -0.1623  0.3395
10550TIP3    H153065   4.957   2.823   0.299  2.9080 -0.2861  2.3404
10550TIP3    H253066   4.965   2.916   0.180 -0.0587 -2.3235  0.4810
10551TIP3   OH253067   5.267   0.999   5.363 -0.0955  0.5916 -0.5776
10551TIP3    H153068   5.199   0.952   5.315 -0.6897 -0.0816  0.8798
10551TIP3    H253069   5.289   0.941   5.436  1.0116  1.4454 -0.2159
10552TIP3   OH253070   2.043   2.994  17.150 -0.4846 -0.2454 -0.0030
10552TIP3    H153071   2.067   2.902  17.148  1.1836  0.0847  1.9237
10552TIP3    H253072   2.125   3.039  17.172 -1.3839  1.6335 -0.4146
10553TIP3   OH253073   1.129   3.476  11.122  0.0534 -0.3368  0.4318
10553TIP3    H153074   1.059   3.539  11.109  1.3178  0.8713 -0.6723
10553TIP3    H253075   1.145   3.476  11.216  0.6125  1.6563  0.3616
10554TIP3   OH253076   1.793   5.160  15.639  0.0701 -0.0187  0.3138
10554TIP3    H153077   1.782   5.233  15.700 -2.5596 -1.2075  1.3573
10554TIP3    H253078   1.887   5.158  15.620  0.4107  2.5904  1.5434
10555TIP3   OH253079   1.292   6.515  14.469 -0.5428 -0.1969  0.1262
10555TIP3    H153080   1.354   6.538  14.400  0.6505 -0.2627  1.1575
10555TIP3    H253081   1.235   6.450  14.428  1.5819 -1.9783 -0.1618
10556TIP3   OH253082   4.559   2.495  15.270 -0.4758 -0.1696 -0.0870
10556TIP3    H153083   4.512   2.439  15.208 -1.4631  0.8525 -0.2770
10556TIP3    H253084   4.492   2.526  15.331 -0.0392  1.1597 -0.2580
10557TIP3   OH253085   5.305   2.030  13.960 -0.3788 -0.3562 -0.1699
10557TIP3    H153086   5.212   2.019  13.982 -0.7333 -1.0273 -1.9334
10557TIP3    H253087   5.350   1.966  14.015 -0.9606 -0.1584  0.5578
10558TIP3   OH253088   3.413   0.085  14.737  0.7086  0.5682 -0.3489
10558TIP3    H153089   3.479   0.131  14.685 -0.0473  1.5489 -0.4334
10558TIP3    H253090   3.369   0.027  14.674  0.1110  1.4101 -0.7157
10559TIP3   OH253091   4.762   1.067   3.631 -0.3680  0.3001  0.1070
10559TIP3    H153092   4.680   1.100   3.593 -0.0592 -0.4351 -1.2345
10559TIP3    H253093   4.802   1.143   3.672 -0.7732  1.0974 -0.9537
10560TIP3   OH253094   2.495   3.090   6.389  0.3464 -1.1698 -0.2599
10560TIP3    H153095   2.546   3.009   6.391  0.6912 -1.0030 -1.5592
10560TIP3    H253096   2.559   3.159   6.399  0.1894 -1.0147 -0.3246
10561TIP3   OH253097   5.959   0.002   0.502 -0.0074 -0.3408 -0.2437
10561TIP3    H153098   5.958   0.065   0.431 -1.0819 -0.8456 -0.6862
10561TIP3    H253099   5.913   0.046   0.574  1.6778  0.4323  0.3820
10562TIP3   OH253100   5.751   3.838  16.429  0.3023  0.3817  0.1429
10562TIP3    H153101   5.792   3.758  16.396 -1.8894 -1.2317  1.2415
10562TIP3    H253102   5.809   3.867  16.500  0.2585 -1.1701  0.8294
10563TIP3   OH253103   2.312   5.299  11.599 -0.5865 -0.1017 -0.1009
10563TIP3    H153104   2.291   5.375  11.543  0.6845  0.1461 -0.2621
10563TIP3    H253105   2.308   5.333  11.688  0.6895  0.3686 -0.1976
10564TIP3   OH253106   4.056   4.750  14.241  0.3973  0.2465 -0.1994
10564TIP3    H153107   4.041   4.690  14.314  1.4862  1.1359  0.7796
10564TIP3    H253108   4.059   4.836  14.281  0.3673  0.8138 -1.3904
10565TIP3   OH253109   5.756   3.941   6.071  0.2662 -0.5604 -0.0949
10565TIP3    H153110   5.796   3.863   6.109 -1.4218 -0.8437  1.1391
10565TIP3    H253111   5.702   3.977   6.141 -1.5811 -0.1457 -1.6801
10566TIP3   OH253112   0.907   1.864  11.087  0.1246  0.0624  0.5724
10566TIP3    H153113   0.856   1.925  11.140 -1.4465  1.1887 -2.1184
10566TIP3    H253114   0.843   1.804  11.051  1.1213 -0.5525 -0.2098
10567TIP3   OH253115   0.561   3.578  14.239 -0.4337  0.3844 -0.3025
10567TIP3    H153116   0.488   3.638  14.252  0.2672  0.9338  1.1283
10567TIP3    H253117   0.618   3.622  14.176 -1.6077 -0.3117 -1.8985
10568TIP3   OH253118   3.138   4.169   1.673  0.3045 -0.3577  0.0676
10568TIP3    H153119   3.146   4.076   1.693  2.2771 -0.1028  0.5935
10568TIP3    H253120   3.044   4.185   1.670 -0.0508 -2.2232  0.6705
10569TIP3   OH253121   1.292   0.593   1.956  0.5290  0.2134 -0.0969
10569TIP3    H153122   1.294   0.669   1.898 -0.8212 -0.3309 -0.8955
10569TIP3    H253123   1.254   0.523   1.901  1.2912 -0.8890  0.7694
10570TIP3   OH253124   4.530   4.755  16.815  0.6349 -0.2327 -0.1726
10570TIP3    H153125   4.586   4.754  16.893  2.3119  0.3220 -1.3247
10570TIP3    H253126   4.583   4.798  16.749  0.4955 -3.4869 -2.5420
10571TIP3   OH253127   1.421   1.536  13.896 -0.1522  0.1171 -0.0492
10571TIP3    H153128   1.334   1.497  13.902  0.4923 -1.2867  0.4788
10571TIP3    H253129   1.460   1.495  13.818 -0.5928  2.0792 -1.3505
10572TIP3   OH253130   2.606   4.901   0.917  0.4342  0.0837 -0.7593
10572TIP3    H153131   2.606   4.988   0.876 -4.5309  0.2050 -0.7743
10572TIP3    H253132   2.612   4.919   1.011 -2.5097  0.6362 -0.6304
10573TIP3   OH253133   0.661   2.464  12.222 -0.0029  0.2380 -0.2821
10573TIP3    H153134   0.715   2.533  12.182 -0.2171  1.9272  2.2298
10573TIP3    H253135   0.590   2.511  12.265  0.2140 -1.4838  2.0412
10574TIP3   OH253136   3.127   3.154  17.214  0.0384 -0.4396  0.1896
10574TIP3    H153137   3.213   3.162  17.173 -0.4830  0.2084 -0.7853
10574TIP3    H253138   3.108   3.060  17.214  1.4248 -0.7395  1.8322
10575TIP3   OH253139   5.443   5.573  16.070 -0.5369  0.0920 -0.1477
10575TIP3    H153140   5.397   5.544  16.149 -0.8399  0.7801 -0.0688
10575TIP3    H253141   5.378   5.561  16.000  0.6002 -3.0968 -0.7599
10576TIP3   OH253142   2.212   4.849  16.668  0.3525  0.7669  0.0890
10576TIP3    H153143   2.291   4.897  16.694  1.9077 -1.6079 -0.0688
10576TIP3    H253144   2.220   4.765  16.713 -0.9791 -0.3388 -1.7086
10577TIP3   OH253145   2.800   2.672   3.934  0.7985  0.3286  0.6095
10577TIP3    H153146   2.771   2.582   3.947  0.8194  0.3968  1.1056
10577TIP3    H253147   2.880   2.680   3.985  2.6232 -0.3404 -2.0359
10578TIP3   OH253148   3.342   3.831  15.631  0.5037  0.3981  0.0295
10578TIP3    H153149   3.430   3.815  15.598  0.3498 -0.6923  0.1245
10578TIP3    H253150   3.285   3.810  15.557  0.3311  1.3236 -0.1037
10579TIP3   OH253151   4.267   0.307   3.835  0.2854  0.3196 -0.4099
10579TIP3    H153152   4.318   0.228   3.818 -0.7592 -0.3307 -0.5493
10579TIP3    H253153   4.307   0.346   3.912 -0.2224 -1.2400  0.6568
10580TIP3   OH253154   2.556   0.562   3.809 -0.3244 -0.3654 -0.4302
10580TIP3    H153155   2.585   0.599   3.893  1.7090  0.2498 -1.3744
10580TIP3    H253156   2.570   0.632   3.745 -1.2155 -1.0610 -1.4058
10581TIP3   OH253157   5.249   2.690   6.123 -0.1934 -0.1821  0.3137
10581TIP3    H153158   5.239   2.662   6.032  0.8324  0.0434  0.1201
10581TIP3    H253159   5.186   2.762   6.133 -0.3142 -0.2115 -0.2152
10582TIP3   OH253160   6.302   2.062  16.634 -0.5070  0.2006  0.9325
10582TIP3    H153161   6.214   2.084  16.604 -0.2158 -2.0149 -1.7442
10582TIP3    H253162   6.357   2.132  16.599 -0.6117 -0.7302 -1.1418
10583TIP3   OH253163   2.693   4.208  12.495  0.0428  0.0212 -0.1303
10583TIP3    H153164   2.676   4.165  12.411 -0.3661  1.6063 -0.8736
10583TIP3    H253165   2.740   4.142  12.546 -0.2503 -1.1822 -1.3735
10584TIP3   OH253166   2.741   5.777   2.663  0.4669 -0.0435  0.3311
10584TIP3    H153167   2.811   5.715   2.684  1.0115  0.5994  0.4073
10584TIP3    H253168   2.766   5.858   2.708  0.5840  0.7257 -1.0996
10585TIP3   OH253169   3.588   2.971   2.546 -0.1742  0.2251  0.5356
10585TIP3    H153170   3.638   2.909   2.599  1.4824  0.7800 -0.3275
10585TIP3    H253171   3.572   3.046   2.604  0.0583  0.0735  0.7944
10586TIP3   OH253172   0.953   5.810   4.638  0.0170 -0.4933  0.5612
10586TIP3    H153173   0.903   5.733   4.610  2.0315 -1.7598  0.3699
10586TIP3    H253174   0.934   5.818   4.732 -2.3218  0.4354  0.0610
10587TIP3   OH253175   5.707   5.051   5.484 -0.0756  0.5641  0.0600
10587TIP3    H153176   5.692   5.009   5.568 -0.0856 -0.6464 -0.5408
10587TIP3    H253177   5.619   5.070   5.450 -0.1558 -1.3498 -0.8648
10588TIP3   OH253178   2.552   0.496  14.936 -0.0353  0.0317 -0.2661
10588TIP3    H153179   2.491   0.429  14.906 -2.1838  1.3074  1.0911
10588TIP3    H253180   2.548   0.564  14.868 -0.6505  0.3988  0.1246
10589TIP3   OH253181   2.097   5.735  14.222  0.3425  0.0016  0.2686
10589TIP3    H153182   2.027   5.715  14.160  0.0549 -0.5562  0.7669
10589TIP3    H253183   2.058   5.720  14.308  0.8442  0.4340  0.5739
10590TIP3   OH253184   0.611   2.620   4.279 -0.3051  0.6360 -0.5487
10590TIP3    H153185   0.556   2.543   4.294 -1.3500  1.2127 -1.3515
10590TIP3    H253186   0.559   2.675   4.219  1.2004  1.1285 -1.4194
10591TIP3   OH253187   1.009   5.208  16.749 -0.3750 -0.2148 -0.0704
10591TIP3    H153188   0.924   5.206  16.794  0.3671  3.0831  1.6654
10591TIP3    H253189   1.054   5.128  16.778 -2.3298 -1.3021  0.0519
10592TIP3   OH253190   6.002   6.025  13.462 -0.0990  0.1445 -0.0164
10592TIP3    H153191   6.096   6.013  13.446 -0.5406 -0.4896 -2.3041
10592TIP3    H253192   5.959   5.978  13.391 -2.1753  0.0627  1.2491
10593TIP3   OH253193   4.382   0.575   0.818 -0.5853  0.0766 -0.7125
10593TIP3    H153194   4.438   0.648   0.844  2.0426 -2.2006  0.2802
10593TIP3    H253195   4.417   0.546   0.734 -1.0870 -0.5265 -0.7202
10594TIP3   OH253196   2.853   2.743  16.815  0.6465  0.0997 -0.1520
10594TIP3    H153197   2.899   2.761  16.733 -0.0506  1.0800 -0.3259
10594TIP3    H253198   2.825   2.828  16.847 -0.5603 -0.4354  0.2527
10595TIP3   OH253199   4.517   0.183   3.281 -0.9530 -0.0645  0.2071
10595TIP3    H153200   4.581   0.112   3.285 -0.3188  0.5463  1.4730
10595TIP3    H253201   4.537   0.229   3.199 -0.6932 -0.7237 -0.0994
10596TIP3   OH253202   4.315   4.111   6.077 -0.0675 -0.3081  0.7391
10596TIP3    H153203   4.245   4.112   6.012  1.8235  1.3885 -1.3614
10596TIP3    H253204   4.317   4.199   6.112  1.9271  0.0880 -0.2913
10597TIP3   OH253205   5.345   6.724   0.824 -0.3119  0.4670 -0.3654
10597TIP3    H153206   5.358   6.813   0.856 -0.5934  0.1563  0.6118
10597TIP3    H253207   5.398   6.669   0.882  0.8787  0.1156 -1.7342
10598TIP3   OH253208   5.808   4.999  10.999 -0.2579 -0.2269  0.5458
10598TIP3    H153209   5.815   4.923  11.057 -0.6692 -0.2690  0.5398
10598TIP3    H253210   5.789   4.961  10.913  0.6785 -0.1870  0.3106
10599TIP3   OH253211   0.472   5.950   6.268  0.8465 -0.0173  0.7331
10599TIP3    H153212   0.465   5.932   6.361  0.1020 -0.8848  0.5268
10599TIP3    H253213   0.388   5.989   6.244  0.7419 -0.4921  0.2918
10600TIP3   OH253214   0.844   5.868  11.870 -0.3403 -0.5534  0.0655
10600TIP3    H153215   0.930   5.842  11.904  0.2622  0.4152 -0.7005
10600TIP3    H253216   0.816   5.939  11.928  0.1506  0.2804 -0.6909
10601TIP3   OH253217   0.115   4.478   5.414 -0.2567 -0.4459 -0.4724
10601TIP3    H153218   0.161   4.430   5.482 -0.3626 -1.0275 -0.8147
10601TIP3    H253219   0.080   4.411   5.355 -0.5809  0.0325 -0.8331
10602TIP3   OH253220   6.624   0.104  14.074 -0.2268  0.2003 -0.0500
10602TIP3    H153221   6.671   0.101  13.990 -1.5384 -0.9799 -0.7772
10602TIP3    H253222   6.631   0.015  14.108 -2.2383 -0.0944 -0.3618
10603TIP3   OH253223   2.704   5.449  15.017 -0.0670  0.0481  0.4123
10603TIP3    H153224   2.662   5.532  14.995  0.2914  0.1154 -0.0384
10603TIP3    H253225   2.798   5.467  15.006  0.0359 -0.3092  0.6892
10604TIP3   OH253226   1.616   3.469  16.105 -0.2230  0.1010 -0.1777
10604TIP3    H153227   1.634   3.477  16.199 -0.4077 -1.6267  0.0234
10604TIP3    H253228   1.703   3.455  16.066  0.0393  2.2834 -0.4718
10605TIP3   OH253229   0.734   0.657  15.471 -0.1456 -0.2364 -0.3432
10605TIP3    H153230   0.721   0.746  15.437  0.0531 -0.2107 -0.3546
10605TIP3    H253231   0.649   0.633  15.507 -0.4979 -0.4621 -1.3181
10606TIP3   OH253232   0.552   2.725  11.353 -0.3837  0.6510  0.4433
10606TIP3    H153233   0.466   2.683  11.358 -0.5183  0.7398 -0.9615
10606TIP3    H253234   0.539   2.801  11.297  0.4385  1.1169  0.8689
10607TIP3   OH253235   6.678   4.363   0.809 -0.1899 -0.3796  0.0214
10607TIP3    H153236   6.603   4.371   0.750  0.8903  0.3037 -1.2929
10607TIP3    H253237   6.740   4.307   0.763  1.1679  1.1309 -0.0436
10608TIP3   OH253238   1.415   6.535  12.355  0.1361 -0.5451 -0.4333
10608TIP3    H153239   1.365   6.546  12.436 -0.6999 -1.3143 -0.8384
10608TIP3    H253240   1.431   6.625  12.324 -0.5279 -0.2809 -0.0202
10609TIP3   OH253241   0.410   5.018  12.045 -0.5095 -0.2805 -0.1866
10609TIP3    H153242   0.359   5.099  12.038  0.0570 -0.0026 -1.1893
10609TIP3    H253243   0.462   5.015  11.965  0.8469 -0.6895  0.6847
10610TIP3   OH253244   2.299   4.547  12.411  0.3726  1.0497  0.0008
10610TIP3    H153245   2.358   4.486  12.456 -0.0084 -0.4053 -1.3967
10610TIP3    H253246   2.345   4.569  12.330 -1.4102 -0.9643 -1.6223
10611TIP3   OH253247   4.948   4.228   5.231  0.0923  0.0674  0.0848
10611TIP3    H153248   4.916   4.301   5.284  1.4042 -0.2167  1.3249
10611TIP3    H253249   4.871   4.176   5.212 -0.9757  2.0749 -1.3311
10612TIP3   OH253250   2.114   0.473   0.265  0.2183 -0.2925  0.1621
10612TIP3    H153251   2.208   0.491   0.261  0.1838 -0.3598 -1.1865
10612TIP3    H253252   2.108   0.378   0.279  0.3520 -0.3915 -0.4377
10613TIP3   OH253253   5.269   6.580   4.510 -0.2324  0.6586  0.3343
10613TIP3    H153254   5.322   6.658   4.492  0.3963  0.1795  0.0909
10613TIP3    H253255   5.218   6.567   4.430 -0.5176  0.9511  0.4632
10614TIP3   OH253256   3.779   5.412  11.502  0.0586  0.1256 -0.4381
10614TIP3    H153257   3.850   5.473  11.523 -0.1304  0.1109  0.2667
10614TIP3    H253258   3.726   5.408  11.582 -0.8461  0.2850 -1.0159
10615TIP3   OH253259   0.115   0.449  14.679 -0.0854  0.2536 -0.4634
10615TIP3    H153260   0.111   0.478  14.588  0.7556 -2.3461 -1.3823
10615TIP3    H253261   0.174   0.374  14.677  1.2498  1.1657  2.5154
10616TIP3   OH253262   2.133   2.366  13.466 -0.4373  0.7921  0.0336
10616TIP3    H153263   2.132   2.292  13.527 -2.7779  0.1008 -0.7606
10616TIP3    H253264   2.221   2.401  13.472  1.0066 -2.6059 -0.2052
10617TIP3   OH253265   3.155   1.553  13.103  0.0601 -0.4570 -0.1910
10617TIP3    H153266   3.228   1.491  13.091 -1.0384 -1.7030 -0.6097
10617TIP3    H253267   3.156   1.606  13.024 -0.1835 -1.2259 -0.7193
10618TIP3   OH253268   6.515   5.152  17.058 -0.1964  0.2393  0.7165
10618TIP3    H153269   6.476   5.230  17.020  0.5099  0.2694  0.0575
10618TIP3    H253270   6.452   5.125  17.126  0.2978  2.2515  2.0314
10619TIP3   OH253271   2.226   1.634   4.210 -0.3194  0.1619  0.0519
10619TIP3    H153272   2.295   1.574   4.183  0.9269  0.6101  2.1624
10619TIP3    H253273   2.269   1.697   4.267 -2.4746  0.4125  1.4814
10620TIP3   OH253274   4.885   2.379  11.151 -0.1238  0.1232  0.5012
10620TIP3    H153275   4.963   2.401  11.201 -0.4354 -1.1108  1.5489
10620TIP3    H253276   4.907   2.403  11.061  1.1604  0.5433  0.9171
10621TIP3   OH253277   1.829   1.194   2.059 -0.1628  0.0662 -0.5972
10621TIP3    H153278   1.806   1.281   2.025  2.0515  1.9232  2.3871
10621TIP3    H253279   1.925   1.191   2.053 -0.1552 -1.7937  0.2831
10622TIP3   OH253280   2.563   4.247  17.041 -0.4270  0.4007 -0.0411
10622TIP3    H153281   2.606   4.188  16.980 -2.4735 -1.7414  0.4946
10622TIP3    H253282   2.588   4.214  17.128 -0.9821  0.7470  0.2568
10623TIP3   OH253283   0.874   6.628   3.683  0.1489 -0.5754 -0.0736
10623TIP3    H153284   0.932   6.561   3.720 -1.2116 -0.4996  2.2802
10623TIP3    H253285   0.929   6.706   3.673  0.6175 -0.7124  1.4467
10624TIP3   OH253286   1.560   3.269   4.889 -0.2491  0.1565  0.4487
10624TIP3    H153287   1.570   3.255   4.795 -0.9065 -0.1382  0.4150
10624TIP3    H253288   1.467   3.253   4.905 -0.3644  1.3000  0.9664
10625TIP3   OH253289   0.851   6.309  14.150  0.4504 -0.2048 -0.0116
10625TIP3    H153290   0.861   6.223  14.190  1.6355 -0.1220 -0.1199
10625TIP3    H253291   0.940   6.343  14.142  0.0507  0.7218 -0.6569
10626TIP3   OH253292   4.141   3.658   5.640 -0.2787  0.0113 -0.0353
10626TIP3    H153293   4.059   3.616   5.614  0.2499 -0.3809 -1.0788
10626TIP3    H253294   4.204   3.632   5.572  0.4761  1.0719  0.2539
10627TIP3   OH253295   2.919   1.057   4.225  0.4045  0.2576 -0.4428
10627TIP3    H153296   2.900   1.141   4.266  2.6360  0.0220  1.1819
10627TIP3    H253297   2.857   0.996   4.264  0.5189  0.6316  0.3268
10628TIP3   OH253298   1.265   3.265  16.549  0.7241 -0.3686 -0.4103
10628TIP3    H153299   1.187   3.306  16.587  1.0845 -1.8254  2.0114
10628TIP3    H253300   1.319   3.339  16.520 -1.0426  0.6796 -1.0609
10629TIP3   OH253301   0.804   5.413   3.103  0.3775 -0.4567 -0.0662
10629TIP3    H153302   0.785   5.486   3.162 -0.9326 -1.3451  0.6262
10629TIP3    H253303   0.832   5.342   3.161 -2.1669 -1.7599 -0.3552
10630TIP3   OH253304   0.681   2.492   3.512  0.4955 -0.2075  0.0453
10630TIP3    H153305   0.773   2.519   3.523 -0.1745  1.4814  1.8161
10630TIP3    H253306   0.631   2.573   3.517 -1.0262 -0.9389 -2.3931
10631TIP3   OH253307   2.642   2.963   1.058  0.1664  0.1677 -0.2665
10631TIP3    H153308   2.654   3.041   1.004 -1.0527  1.8704  1.8148
10631TIP3    H253309   2.726   2.952   1.103 -0.0890  1.1453  0.4795
10632TIP3   OH253310   1.013   0.447  13.997 -0.4384  0.4286 -0.2805
10632TIP3    H153311   0.975   0.363  14.023  0.9015  0.0855  0.6473
10632TIP3    H253312   1.104   0.441  14.024 -0.3162  2.1801 -0.2434
10633TIP3   OH253313   2.142   4.525  17.013 -0.2305  0.0062  0.1290
10633TIP3    H153314   2.185   4.501  17.095 -1.7377 -2.0670  0.3629
10633TIP3    H253315   2.050   4.502  17.027 -0.7613  1.0119 -1.6168
10634TIP3   OH253316   0.242   1.474   2.218  0.1986  0.8949  0.2065
10634TIP3    H153317   0.255   1.433   2.133  1.6531  0.8044  0.4614
10634TIP3    H253318   0.216   1.402   2.276  0.4276  0.7466  0.1239
10635TIP3   OH253319   6.420   3.976  15.330 -0.2557 -0.1458  0.2149
10635TIP3    H153320   6.343   4.032  15.325  0.5463  1.2350  2.5522
10635TIP3    H253321   6.415   3.921  15.251 -2.6714  1.1000 -0.5499
10636TIP3   OH253322   4.907   2.335  16.346  0.2581  0.7781  0.0026
10636TIP3    H153323   4.863   2.257  16.315 -1.6904  2.3447 -1.2519
10636TIP3    H253324   4.923   2.387  16.268  1.8225  1.5309  0.7865
10637TIP3   OH253325   1.854   2.183  14.951 -0.0616 -0.1860  0.0690
10637TIP3    H153326   1.948   2.171  14.962 -0.0253 -0.7197 -0.7898
10637TIP3    H253327   1.831   2.129  14.876 -1.1075 -0.2835  0.4465
10638TIP3   OH253328   1.464   2.859   0.566  0.0870  0.0329 -0.0460
10638TIP3    H153329   1.395   2.918   0.535  0.5589  0.1922 -0.8281
10638TIP3    H253330   1.483   2.889   0.655 -1.0588 -0.2103  0.2833
10639TIP3   OH253331   3.990   3.413   1.196 -0.0184 -0.6426 -0.3171
10639TIP3    H153332   3.903   3.411   1.155  0.6972 -2.4857 -1.8306
10639TIP3    H253333   3.994   3.498   1.239 -3.3744 -1.3093  1.5298
10640TIP3   OH253334   2.211   5.392   2.710 -0.3339 -0.4208 -0.2521
10640TIP3    H153335   2.306   5.404   2.713 -0.2908 -0.3150 -1.8283
10640TIP3    H253336   2.197   5.303   2.743  0.2792 -0.3381  0.2509
10641TIP3   OH253337   3.039   2.829   3.874 -0.1810  0.0186 -0.1190
10641TIP3    H153338   3.084   2.766   3.817 -0.6887 -0.4635  0.0084
10641TIP3    H253339   3.023   2.781   3.955  0.1228  0.5584  0.2653
10642TIP3   OH253340   2.753   4.277   1.417  0.1887  0.1660 -0.0485
10642TIP3    H153341   2.767   4.277   1.512 -0.0086  2.2100  0.0157
10642TIP3    H253342   2.727   4.188   1.396  2.2985 -0.8551  1.5082
10643TIP3   OH253343   1.740   3.656   0.395  0.1943 -0.2411  0.1702
10643TIP3    H153344   1.649   3.636   0.416  0.0565  0.8022  0.5890
10643TIP3    H253345   1.748   3.751   0.406  0.7426  0.0090 -2.1948
10644TIP3   OH253346   2.205   4.372   1.956 -0.2289 -0.1737 -0.2092
10644TIP3    H153347   2.142   4.418   2.011  1.4918  1.1109  0.7518
10644TIP3    H253348   2.152   4.328   1.890 -2.1868 -0.0363  1.2443
10645TIP3   OH253349   6.248   3.575  16.943 -0.2487 -0.5739 -0.6758
10645TIP3    H153350   6.160   3.574  16.979 -0.1219 -2.0319 -0.3632
10645TIP3    H253351   6.290   3.498  16.982  1.2328  0.2367 -0.6236
10646TIP3   OH253352   5.269   3.035  16.777 -0.5496 -0.0502  0.7316
10646TIP3    H153353   5.207   3.091  16.729 -0.7967 -1.2112 -0.3284
10646TIP3    H253354   5.252   3.055  16.869 -3.8813 -1.7219  0.5667
10647TIP3   OH253355   4.777   6.530  15.097  0.2945  0.2703  0.6692
10647TIP3    H153356   4.724   6.470  15.150 -1.0419  1.7283  1.0125
10647TIP3    H253357   4.767   6.498  15.007  0.2668 -0.5166  0.9467
10648TIP3   OH253358   6.163   0.058   2.784 -0.4045  0.2905 -0.1612
10648TIP3    H153359   6.088   0.081   2.730 -2.6701 -0.8389  2.3572
10648TIP3    H253360   6.173   0.132   2.844 -0.6756 -0.3555  0.6937
10649TIP3   OH253361   1.686   2.473  13.650  0.3564 -0.6640  0.2494
10649TIP3    H153362   1.739   2.519  13.585  0.3015  0.9359  1.3011
10649TIP3    H253363   1.721   2.502  13.734 -1.4548 -0.4139  0.9416
10650TIP3   OH253364   2.615   3.666  11.742  0.7708 -0.5133 -0.3523
10650TIP3    H153365   2.711   3.669  11.737  0.8442 -1.0649  0.4822
10650TIP3    H253366   2.597   3.605  11.814 -0.2174 -1.3253 -1.2650
10651TIP3   OH253367   4.051   6.119  11.690 -0.1000  0.3779 -0.2897
10651TIP3    H153368   4.086   6.207  11.700 -0.4295  0.4488  0.2353
10651TIP3    H253369   4.058   6.101  11.596  0.2244  0.8528 -0.3576
10652TIP3   OH253370   3.502   4.208  12.539  0.3200 -0.4054 -0.2716
10652TIP3    H153371   3.483   4.205  12.445  1.1245 -0.7150 -0.4212
10652TIP3    H253372   3.478   4.121  12.571  0.9303 -0.6013 -0.3534
10653TIP3   OH253373   0.090   4.991  17.183 -0.0418  0.3031  0.2669
10653TIP3    H153374   0.030   5.000  17.108 -0.8033 -1.9375  0.5779
10653TIP3    H253375   0.149   4.920  17.158 -0.2586 -0.4189  1.7743
10654TIP3   OH253376   4.172   1.918   2.969  0.0617 -0.4913 -0.0935
10654TIP3    H153377   4.204   1.827   2.963  0.4143 -0.2910 -1.5739
10654TIP3    H253378   4.249   1.969   2.994  0.3064 -0.3631 -1.0790
10655TIP3   OH253379   3.031   6.337   1.060 -0.0602 -0.5439 -0.0501
10655TIP3    H153380   2.975   6.309   0.988 -1.9129  1.6694  0.4701
10655TIP3    H253381   3.114   6.360   1.019 -1.0930  0.6969 -1.4718
10656TIP3   OH253382   0.966   6.732   5.704  0.0869 -0.2008 -0.0345
10656TIP3    H153383   0.959   6.827   5.692  1.4124  0.0846  1.4238
10656TIP3    H253384   0.984   6.699   5.616 -0.6658  0.8691 -0.6055
10657TIP3   OH253385   3.405   2.332   2.712  0.0553  0.1382  0.1659
10657TIP3    H153386   3.388   2.414   2.665  0.8454  0.5898  0.6462
10657TIP3    H253387   3.369   2.347   2.800  0.2675  0.0078  0.2762
10658TIP3   OH253388   2.078   1.085  14.508 -0.3304  0.5676 -0.9172
10658TIP3    H153389   2.169   1.072  14.480  0.0326  1.3731 -0.1333
10658TIP3    H253390   2.037   1.000  14.493  0.3408  0.4370 -2.0572
10659TIP3   OH253391   5.797   3.708  11.825  0.1459 -0.1030  0.4033
10659TIP3    H153392   5.793   3.759  11.906  1.5102 -0.0206  0.4283
10659TIP3    H253393   5.845   3.763  11.764  1.5699 -1.2912  0.4114
10660TIP3   OH253394   4.614   4.716   5.543  0.0433  0.3912  0.0014
10660TIP3    H153395   4.614   4.802   5.502 -1.1897  0.0135 -0.8590
10660TIP3    H253396   4.702   4.682   5.528  0.7508  1.7673  0.9654
10661TIP3   OH253397   5.262   3.218   3.872  0.0840 -0.7383 -0.4205
10661TIP3    H153398   5.342   3.240   3.921  0.2273  0.0411 -0.9827
10661TIP3    H253399   5.192   3.224   3.936 -0.0568  2.7287 -0.7788
10662TIP3   OH253400   3.327   5.883  16.316 -0.4276 -0.4197 -0.1824
10662TIP3    H153401   3.407   5.898  16.367 -0.9304  1.7567  0.0123
10662TIP3    H253402   3.261   5.860  16.381 -0.4991  0.0013 -0.1071
10663TIP3   OH253403   4.906   4.330  17.101 -0.4564  0.5921  0.3860
10663TIP3    H153404   4.883   4.274  17.175  1.3145 -2.7382 -1.5052
10663TIP3    H253405   5.001   4.333  17.102 -0.4583  1.4928 -1.0774
10664TIP3   OH253406   0.701   3.110   4.943  0.2625  0.7154  0.5954
10664TIP3    H153407   0.778   3.155   4.979  1.0038  0.2437 -0.3547
10664TIP3    H253408   0.690   3.033   4.999  0.6429  0.6507  0.5822
10665TIP3   OH253409   0.242   1.936  13.415  0.3273 -0.0368  0.1773
10665TIP3    H153410   0.321   1.925  13.467 -0.8979  1.8358  2.5391
10665TIP3    H253411   0.223   2.029  13.420 -1.0733 -0.1796 -1.8305
10666TIP3   OH253412   4.203   1.029   0.186 -0.3037  0.3536  0.5946
10666TIP3    H153413   4.283   1.081   0.176  0.3323 -0.3707  1.7602
10666TIP3    H253414   4.205   1.001   0.277 -0.0992 -2.5663 -0.2625
10667TIP3   OH253415   6.572   6.780  16.452 -0.3002 -0.3439  0.0698
10667TIP3    H153416   6.667   6.768  16.448  0.2177  3.5208 -0.7573
10667TIP3    H253417   6.552   6.781  16.546  0.7723  0.6156  0.3034
10668TIP3   OH253418   4.617   0.278  16.461  0.1390 -0.2921  0.1554
10668TIP3    H153419   4.672   0.349  16.427 -1.3342  0.6662 -0.2686
10668TIP3    H253420   4.679   0.217  16.501  1.5043  0.8011 -0.2469
10669TIP3   OH253421   2.740   2.775   2.472 -0.2378 -0.0741  0.3983
10669TIP3    H153422   2.787   2.840   2.524 -2.1552  2.3048 -0.7147
10669TIP3    H253423   2.650   2.778   2.506 -0.8966 -0.4007 -1.2836
10670TIP3   OH253424   3.749   2.205  15.857  0.1681  0.8416 -0.1739
10670TIP3    H153425   3.717   2.275  15.800 -0.6580  1.1234  0.6223
10670TIP3    H253426   3.682   2.136  15.851  0.6217  0.4139 -0.3960
10671TIP3   OH253427   4.097   5.302   1.307  0.1067 -0.0120  0.2594
10671TIP3    H153428   4.159   5.242   1.347 -0.1738  0.9582  2.2067
10671TIP3    H253429   4.016   5.291   1.356 -1.1362 -0.8337 -1.8759
10672TIP3   OH253430   5.181   3.093  13.419 -0.3467  0.0789 -0.1241
10672TIP3    H153431   5.195   3.036  13.495 -0.3637 -0.3675 -0.4605
10672TIP3    H253432   5.242   3.061  13.353 -0.1632  0.6220 -0.2185
10673TIP3   OH253433   6.724   4.278  15.558  0.0432 -0.2438  0.1991
10673TIP3    H153434   6.767   4.205  15.514 -0.9757 -0.9249  0.3113
10673TIP3    H253435   6.729   4.256  15.651 -1.4357 -0.8212  0.1447
10674TIP3   OH253436   0.138   4.369  11.776 -0.1679 -0.4781  0.0061
10674TIP3    H153437   0.169   4.279  11.769  0.1725 -0.4537  1.0624
10674TIP3    H253438   0.048   4.360  11.808 -0.6942 -0.4955 -1.4754
10675TIP3   OH253439   4.784   5.989  12.930  0.5672  0.0752 -0.3284
10675TIP3    H153440   4.836   5.925  12.979  0.8945  0.9184  0.4439
10675TIP3    H253441   4.695   5.976  12.961  0.5890 -0.1963 -0.3793
10676TIP3   OH253442   0.790   4.986  15.852  0.3058 -0.4002 -0.0176
10676TIP3    H153443   0.778   5.080  15.839 -2.0994 -0.8449 -1.3498
10676TIP3    H253444   0.768   4.947  15.767 -2.6765 -2.4312  1.5741
10677TIP3   OH253445   2.493   1.421  13.020 -0.4205  0.5119 -0.0334
10677TIP3    H153446   2.575   1.410  13.067  0.2167  0.9006 -1.0461
10677TIP3    H253447   2.428   1.377  13.075  0.6947 -1.0472  0.0684
10678TIP3   OH253448   5.305   0.366   4.231 -0.4719  0.3886 -0.0536
10678TIP3    H153449   5.299   0.449   4.278 -0.8308 -0.4799  1.4874
10678TIP3    H253450   5.218   0.353   4.194 -0.8696 -0.0044  0.9798
10679TIP3   OH253451   0.368   6.596  13.139 -0.3329  0.5622 -0.0122
10679TIP3    H153452   0.443   6.600  13.199  0.1098 -2.3904 -0.2724
10679TIP3    H253453   0.292   6.612  13.195  0.2207 -0.1868  0.9745
10680TIP3   OH253454   5.768   1.368   4.552  0.2603 -0.6180  0.0284
10680TIP3    H153455   5.729   1.455   4.541  1.4332 -0.1252 -0.2521
10680TIP3    H253456   5.725   1.315   4.485 -0.6977 -0.3438  0.4134
10681TIP3   OH253457   4.332   1.417  16.609  0.2962 -0.2156 -0.0543
10681TIP3    H153458   4.384   1.434  16.530 -0.0948  3.5511  0.4073
10681TIP3    H253459   4.274   1.345  16.584  2.5223 -1.3992 -2.0634
10682TIP3   OH253460   5.468   5.226  15.014 -0.1646 -0.0106  0.7057
10682TIP3    H153461   5.466   5.321  14.999  0.1034 -0.0783  0.2404
10682TIP3    H253462   5.423   5.214  15.098  0.2204  0.5727  0.9968
10683TIP3   OH253463   4.401   5.324  13.597 -0.2737  0.2385  0.1030
10683TIP3    H153464   4.315   5.291  13.572  0.3160 -0.8719 -0.5018
10683TIP3    H253465   4.457   5.309  13.520  0.8871 -0.6981  1.0977
10684TIP3   OH253466   5.525   2.415  13.074  0.1184  0.1090 -0.4892
10684TIP3    H153467   5.583   2.354  13.029  0.4089  0.0223 -0.0056
10684TIP3    H253468   5.584   2.476  13.118  0.0566 -2.8456  4.0860
10685TIP3   OH253469   1.570   3.957  12.668 -0.1504 -0.1058  0.1621
10685TIP3    H153470   1.599   4.048  12.678  0.7891 -0.1910 -1.5311
10685TIP3    H253471   1.604   3.931  12.582 -0.6590 -1.9698  0.5124
10686TIP3   OH253472   6.726   1.768  16.847  0.3341 -0.0938  0.0661
10686TIP3    H153473   6.723   1.823  16.925 -2.5954 -1.1222  0.7370
10686TIP3    H253474   6.636   1.768  16.814  1.3471 -0.3948 -2.8212
10687TIP3   OH253475   1.451   3.621   2.345  0.1334  0.3760 -0.1883
10687TIP3    H153476   1.491   3.688   2.290  0.8589  0.8432  0.9058
10687TIP3    H253477   1.443   3.545   2.287 -0.1315  1.2075 -1.2533
10688TIP3   OH253478   2.039   1.309  13.256  0.4009  0.3639 -1.0264
10688TIP3    H153479   1.959   1.258  13.268  1.0605 -0.3286  0.6123
10688TIP3    H253480   2.018   1.395  13.292  0.9252 -0.3412  1.0228
10689TIP3   OH253481   1.498   3.524  13.911 -0.7325 -0.3554  0.3317
10689TIP3    H153482   1.569   3.554  13.968 -1.1866  0.0238  0.7143
10689TIP3    H253483   1.472   3.439  13.948 -0.1172 -0.7436 -0.1365
10690TIP3   OH253484   1.518   1.159  14.407  0.4881  0.5152 -0.1011
10690TIP3    H153485   1.532   1.067  14.383 -1.2391 -0.3181  1.9325
10690TIP3    H253486   1.600   1.185  14.450  1.2065  0.1388 -1.2039
10691TIP3   OH253487   1.401   5.547   2.215  0.0281 -0.5877 -0.2440
10691TIP3    H153488   1.325   5.532   2.271  1.5087 -0.8885  1.7243
10691TIP3    H253489   1.462   5.477   2.237  1.1565  0.0143 -1.3441
10692TIP3   OH253490   3.837   6.537  13.093  0.1830 -0.2450  0.0779
10692TIP3    H153491   3.742   6.529  13.103 -0.1620  1.0053 -1.9626
10692TIP3    H253492   3.872   6.527  13.182 -2.0757  2.3839  1.3344
10693TIP3   OH253493   3.057   2.839   6.167 -0.3015  0.0675 -0.0298
10693TIP3    H153494   3.144   2.848   6.205  0.2802 -1.5688 -0.9356
10693TIP3    H253495   3.012   2.778   6.225 -0.7794  0.7059  0.2850
10694TIP3   OH253496   0.775   0.175  11.259 -0.2088  0.1965 -0.2231
10694TIP3    H153497   0.728   0.140  11.184 -3.0938 -0.7765  1.9321
10694TIP3    H253498   0.852   0.119  11.269 -1.1100 -1.1778 -0.9519
10695TIP3   OH253499   6.750   4.315   6.151  0.3643 -0.1608  0.4697
10695TIP3    H153500   6.819   4.256   6.182 -0.1118 -1.0119 -0.0592
10695TIP3    H253501   6.797   4.383   6.103  0.6638 -2.7382 -3.1213
10696TIP3   OH253502   5.507   2.280   4.327 -0.1959  0.1783 -0.0674
10696TIP3    H153503   5.423   2.317   4.299 -0.6328 -0.2048  0.7144
10696TIP3    H253504   5.513   2.197   4.280 -0.6133 -0.1526  0.4654
10697TIP3   OH253505   3.361   3.227   4.828 -0.1612  0.1562 -0.5755
10697TIP3    H153506   3.393   3.313   4.800  1.3148  0.0438  0.6736
10697TIP3    H253507   3.429   3.166   4.801 -0.1825 -0.3299  0.4273
10698TIP3   OH253508   5.536   3.077  16.696 -0.0269 -0.3208  0.4127
10698TIP3    H153509   5.447   3.061  16.728 -1.4461  1.7124 -2.3181
10698TIP3    H253510   5.556   3.165  16.727  1.6844 -1.3463  2.3188
10699TIP3   OH253511   4.132   4.768  13.632 -0.5487 -0.4853  0.5082
10699TIP3    H153512   4.159   4.687  13.589 -0.7115 -0.9995  1.3637
10699TIP3    H253513   4.184   4.836  13.589  0.0880 -1.1269  0.2476
10700TIP3   OH253514   5.453   1.585  11.558 -0.2661  0.8431  0.5840
10700TIP3    H153515   5.507   1.587  11.479 -0.6153 -2.5853  0.1568
10700TIP3    H253516   5.412   1.671  11.562  3.7965  2.9121 -0.0579
10701TIP3   OH253517   0.352   4.071  13.575  0.5692 -0.0524 -0.6102
10701TIP3    H153518   0.410   4.147  13.580 -0.0519  0.2908  1.9106
10701TIP3    H253519   0.380   4.025  13.496  2.3421  1.6627 -1.0206
10702TIP3   OH253520   2.045   1.907   3.769  0.1494 -0.1223  0.1484
10702TIP3    H153521   2.079   1.850   3.838  0.9884  1.2231  0.8733
10702TIP3    H253522   2.077   1.868   3.688  1.6377 -0.0883  0.7011
10703TIP3   OH253523   0.924   5.547  11.735 -0.7585 -0.4456 -0.4371
10703TIP3    H153524   0.910   5.616  11.670 -0.1848 -0.9300 -1.0809
10703TIP3    H253525   0.839   5.503  11.742 -1.3555  0.8107  0.5652
10704TIP3   OH253526   5.556   1.924   5.828 -0.6913  0.3099 -0.1564
10704TIP3    H153527   5.474   1.945   5.871 -1.9765 -1.0982 -1.8435
10704TIP3    H253528   5.619   1.912   5.900 -1.8584  1.7328  1.1155
10705TIP3   OH253529   6.025   3.352  12.959 -0.3402  0.2096  0.3280
10705TIP3    H153530   6.087   3.410  13.003 -0.8886 -0.5226  2.1089
10705TIP3    H253531   6.068   3.267  12.957  0.1307  0.4616 -1.5686
10706TIP3   OH253532   3.391   5.188  12.259  0.1711 -0.1529 -0.2297
10706TIP3    H153533   3.470   5.223  12.218  0.4052  0.0420  0.3753
10706TIP3    H253534   3.355   5.261  12.310  1.2018 -1.0313  1.8307
10707TIP3   OH253535   0.308   3.290  12.809 -0.5481  0.1888  0.4894
10707TIP3    H153536   0.381   3.257  12.756  0.5282  2.2471  0.6426
10707TIP3    H253537   0.261   3.211  12.837  0.6103 -1.0716 -1.0447
10708TIP3   OH253538   0.669   0.584   4.975 -0.0557  0.2249  0.3328
10708TIP3    H153539   0.696   0.639   4.902 -2.2556 -1.3945 -1.7680
10708TIP3    H253540   0.580   0.556   4.953 -0.6612 -0.5630  3.4939
10709TIP3   OH253541   2.806   6.398   2.334  0.5463 -0.3652 -0.3182
10709TIP3    H153542   2.863   6.423   2.260  0.2983  0.6811 -0.1630
10709TIP3    H253543   2.782   6.481   2.374  0.4854 -0.9220  0.8091
10710TIP3   OH253544   3.753   4.342   0.496  0.2936 -0.3267 -0.4727
10710TIP3    H153545   3.733   4.252   0.472  0.8110 -0.8499  1.0127
10710TIP3    H253546   3.673   4.391   0.477 -1.2876 -1.7684  2.1715
10711TIP3   OH253547   0.351   1.255   6.185 -0.3411  0.2383 -0.1492
10711TIP3    H153548   0.428   1.311   6.188 -0.9818  1.1213 -0.0041
10711TIP3    H253549   0.384   1.167   6.205  0.5646  0.6643  0.2479
10712TIP3   OH253550   5.910   4.003  15.415 -0.2915  0.0737 -0.0874
10712TIP3    H153551   5.912   3.994  15.510 -0.3620 -0.1854 -0.1092
10712TIP3    H253552   5.883   4.093  15.400  1.0493  0.5320  0.1480
10713TIP3   OH253553   1.915   3.681  16.465  0.6369  0.0563 -0.3152
10713TIP3    H153554   1.936   3.773  16.449  0.6790  0.1696  0.3782
10713TIP3    H253555   1.885   3.679  16.556 -2.5786 -0.0658 -1.3047
10714TIP3   OH253556   3.300   5.821  14.811  0.5033  0.4812 -0.0215
10714TIP3    H153557   3.279   5.914  14.808  1.4106  0.6534 -1.5125
10714TIP3    H253558   3.347   5.804  14.729 -1.1637 -1.6392 -0.5939
10715TIP3   OH253559   5.048   5.782   5.765 -0.1430  0.2938  0.2352
10715TIP3    H153560   5.039   5.692   5.734 -1.1217  0.7696 -0.9245
10715TIP3    H253561   5.140   5.803   5.754  0.3546 -0.9776  1.7271
10716TIP3   OH253562   1.881   2.434  17.039 -0.2672  0.1204 -0.3240
10716TIP3    H153563   1.823   2.358  17.051 -0.3761  0.3554  0.6952
10716TIP3    H253564   1.830   2.508  17.071  0.3373  0.4244 -0.0576
10717TIP3   OH253565   5.322   3.438   5.824 -0.3249  0.2124 -0.4209
10717TIP3    H153566   5.238   3.396   5.808  0.1486 -0.0508 -2.3463
10717TIP3    H253567   5.350   3.404   5.909 -1.3114 -1.0930 -0.6082
10718TIP3   OH253568   5.038   4.209  10.974 -0.3130  0.0841 -0.4164
10718TIP3    H153569   4.950   4.209  11.012 -0.0597 -1.2834  0.2201
10718TIP3    H253570   5.033   4.269  10.900 -1.4362  1.0320  0.4149
10719TIP3   OH253571   4.012   4.146   1.403 -0.0025  0.4863  0.0002
10719TIP3    H153572   3.962   4.212   1.356 -0.3434 -1.3388 -2.2783
10719TIP3    H253573   3.949   4.107   1.464  0.1919  2.1891  1.3331
10720TIP3   OH253574   5.747   1.753   2.368  0.0023  0.3187 -0.1571
10720TIP3    H153575   5.656   1.755   2.397  0.6465  0.1598  1.9120
10720TIP3    H253576   5.748   1.688   2.298 -1.1135 -1.1039  1.1148
10721TIP3   OH253577   4.481   5.887  11.701  0.0914  0.1149 -0.2729
10721TIP3    H153578   4.519   5.927  11.623 -0.5153 -0.2897 -0.7824
10721TIP3    H253579   4.455   5.799  11.672 -0.1173 -0.0445  0.3941
10722TIP3   OH253580   2.018   3.978  17.195  0.1912  0.1570  0.1535
10722TIP3    H153581   2.035   4.071  17.216  0.8396  0.2442 -0.7525
10722TIP3    H253582   2.089   3.954  17.136  1.0918 -1.4451  1.8393
10723TIP3   OH253583   4.040   5.225  17.212  0.1075 -0.1061  0.0317
10723TIP3    H153584   4.079   5.140  17.193  2.4794  0.8460  0.4128
10723TIP3    H253585   4.098   5.288  17.168 -0.9525  1.3759  0.7064
10724TIP3   OH253586   4.246   2.151  13.603  0.1716 -0.2172  0.2701
10724TIP3    H153587   4.287   2.071  13.635 -1.1493 -2.1103 -2.5734
10724TIP3    H253588   4.297   2.175  13.526 -1.3487 -0.1034 -0.7180
10725TIP3   OH253589   6.554   0.509   1.467 -0.2893 -0.4228  0.0697
10725TIP3    H153590   6.552   0.588   1.520  0.3580 -0.4669  0.1604
10725TIP3    H253591   6.642   0.505   1.431  0.1121 -1.7865  1.1279
10726TIP3   OH253592   1.207   2.839   3.663  0.0782  0.4108 -0.2251
10726TIP3    H153593   1.126   2.889   3.670  0.1863  0.6131 -0.4360
10726TIP3    H253594   1.201   2.794   3.579  0.0047  0.1089 -0.0608
10727TIP3   OH253595   1.119   5.126   5.755 -0.3547 -0.1346  0.2550
10727TIP3    H153596   1.032   5.163   5.773 -1.2763 -2.9778  2.0995
10727TIP3    H253597   1.176   5.166   5.820 -0.8073 -0.0862  0.6296
10728TIP3   OH253598   0.958   5.375   2.015  0.8711  0.1672  0.0042
10728TIP3    H153599   0.879   5.372   2.069  2.0030  0.3194  1.7186
10728TIP3    H253600   1.019   5.316   2.059  2.1551  1.0511 -0.5619
10729TIP3   OH253601   1.288   0.103  14.246  0.0495  0.4306  0.5651
10729TIP3    H153602   1.256   0.031  14.192  0.8425 -1.1740  2.1668
10729TIP3    H253603   1.244   0.092  14.330  0.9113  1.2570  1.1405
10730TIP3   OH253604   5.890   3.437   1.038  0.7608  0.2999  0.2707
10730TIP3    H153605   5.964   3.377   1.045 -0.2648 -1.0797 -0.3749
10730TIP3    H253606   5.852   3.418   0.952 -0.0453  1.3349  0.3865
10731TIP3   OH253607   4.300   5.235  16.115 -0.3352  0.2482  0.7715
10731TIP3    H153608   4.389   5.235  16.080 -0.7097  0.6669 -0.2055
10731TIP3    H253609   4.260   5.156  16.079 -0.4239  0.1655  1.0471
10732TIP3   OH253610   0.096   3.922   2.051  0.5183  0.6050 -0.2288
10732TIP3    H153611   0.186   3.910   2.019  0.8157 -0.9851  1.1283
10732TIP3    H253612   0.104   3.918   2.146 -0.7770  2.1437 -0.0386
10733TIP3   OH253613   3.755   0.117  14.933 -0.0282 -0.3577  0.6408
10733TIP3    H153614   3.783   0.195  14.887  0.0483 -1.7911 -1.8031
10733TIP3    H253615   3.791   0.127  15.022  0.2373  2.1900  0.2626
10734TIP3   OH253616   1.639   0.588   1.885  0.7260  0.0225  0.3486
10734TIP3    H153617   1.720   0.630   1.858  0.7637  0.5467  1.2600
10734TIP3    H253618   1.661   0.545   1.968 -0.0905  0.7141  0.9338
10735TIP3   OH253619   5.577   6.752  14.195  0.3201  0.6616 -0.0628
10735TIP3    H153620   5.642   6.822  14.190  1.4607 -0.4004 -0.3196
10735TIP3    H253621   5.504   6.782  14.140  0.4966  1.9414  0.3867
10736TIP3   OH253622   6.620   2.201   3.572 -0.2466 -0.3882  0.4173
10736TIP3    H153623   6.599   2.107   3.575  0.3121 -0.5921 -1.3230
10736TIP3    H253624   6.570   2.234   3.498 -1.3276  0.9519  1.7141
10737TIP3   OH253625   4.792   6.203  11.493 -0.1639 -0.2376  0.5493
10737TIP3    H153626   4.792   6.123  11.545  1.2395 -0.0666  0.8426
10737TIP3    H253627   4.728   6.187  11.424  1.1036 -2.1840 -0.2179
10738TIP3   OH253628   2.671   0.972  15.305 -0.0862 -0.3542 -0.6939
10738TIP3    H153629   2.751   1.018  15.279 -0.1475  0.7322  0.9765
10738TIP3    H253630   2.601   1.025  15.268 -0.0720 -0.7659 -1.3203
10739TIP3   OH253631   6.625   0.339   0.475  0.2480 -0.5612 -0.1534
10739TIP3    H153632   6.704   0.332   0.527  1.2049  0.3659 -1.4600
10739TIP3    H253633   6.587   0.424   0.499  0.0889 -0.6318 -0.1497
10740TIP3   OH253634   2.532   5.251  13.609  0.4745 -0.1370 -0.4343
10740TIP3    H153635   2.472   5.179  13.587  1.0852 -0.2902 -1.6370
10740TIP3    H253636   2.590   5.213  13.675 -1.2185  0.2509  1.3241
10741TIP3   OH253637   0.945   3.317   1.932  0.0436 -0.0607  0.2289
10741TIP3    H153638   0.896   3.306   2.013  0.4079 -0.6059  0.3677
10741TIP3    H253639   0.966   3.411   1.930 -2.3482  0.5080 -0.5854
10742TIP3   OH253640   3.050   3.306   2.317  0.0572  1.3144  0.4317
10742TIP3    H153641   3.140   3.277   2.311 -0.6207 -0.4664 -1.6776
10742TIP3    H253642   3.045   3.382   2.259  0.2634  1.6344  0.8268
10743TIP3   OH253643   1.574   4.232  12.716  0.7206  0.6255  0.0105
10743TIP3    H153644   1.602   4.319  12.746  0.1824  2.1294 -3.5339
10743TIP3    H253645   1.494   4.214  12.764 -0.2369  3.0149 -0.6209
10744TIP3   OH253646   3.283   6.699   4.561 -0.0193  0.0700 -0.1960
10744TIP3    H153647   3.347   6.643   4.516 -0.2797  2.1528 -3.3602
10744TIP3    H253648   3.198   6.663   4.534 -0.2620 -1.8449  2.9003
10745TIP3   OH253649   0.261   1.437   6.448 -0.2617  0.1188 -0.3211
10745TIP3    H153650   0.197   1.455   6.517 -0.1680  0.2979 -0.2783
10745TIP3    H253651   0.341   1.479   6.479  0.2322 -1.2051  0.2419
10746TIP3   OH253652   2.304   2.369  16.889 -0.2795  0.0464 -0.0789
10746TIP3    H153653   2.348   2.331  16.813 -2.3564  0.5740 -1.6194
10746TIP3    H253654   2.243   2.302  16.918  0.6320 -0.2172  1.2531
10747TIP3   OH253655   2.090   6.110   2.067  0.8206 -0.1089 -0.5272
10747TIP3    H153656   2.025   6.147   2.008 -1.0574  0.1989  1.6682
10747TIP3    H253657   2.136   6.186   2.103 -2.2098  0.1784  3.0401
10748TIP3   OH253658   4.352   4.087   1.179 -0.1244 -0.5725 -0.1757
10748TIP3    H153659   4.348   4.141   1.100  2.2301  0.5103  0.4116
10748TIP3    H253660   4.435   4.110   1.221 -0.7743 -1.9881  2.0187
10749TIP3   OH253661   4.075   6.124  13.240  0.3021  0.0902 -0.1220
10749TIP3    H153662   4.133   6.190  13.279 -0.3616  1.1279 -0.8457
10749TIP3    H253663   4.101   6.121  13.148  0.0003 -0.3054 -0.1942
10750TIP3   OH253664   6.179   2.744  11.346  0.5915  0.2541 -0.1768
10750TIP3    H153665   6.226   2.714  11.269 -1.5786  1.0983 -1.8870
10750TIP3    H253666   6.211   2.833  11.362  1.1628  0.0172  0.0050
10751TIP3   OH253667   2.828   2.103   6.420 -0.0117 -0.2673 -0.7431
10751TIP3    H153668   2.832   2.193   6.388 -0.5745 -0.6229 -1.8257
10751TIP3    H253669   2.740   2.073   6.400  0.1786 -1.0769 -0.4149
10752TIP3   OH253670   0.821   3.454  11.168  0.1187 -0.5690 -0.5057
10752TIP3    H153671   0.855   3.366  11.154  0.3885 -0.7035  0.9602
10752TIP3    H253672   0.778   3.476  11.085 -1.1399 -2.5942 -0.4226
10753TIP3   OH253673   5.939   2.231   1.428 -0.2809 -0.1922 -0.7100
10753TIP3    H153674   5.876   2.280   1.376 -1.0245 -1.8667 -1.4188
10753TIP3    H253675   5.889   2.157   1.463  1.3852 -1.7963 -1.6512
10754TIP3   OH253676   5.591   4.668   2.074  0.8186 -0.4088  0.1641
10754TIP3    H153677   5.636   4.664   2.158  0.1666 -0.7370  0.4918
10754TIP3    H253678   5.594   4.579   2.040 -1.9109 -1.0082  1.3968
10755TIP3   OH253679   1.039   1.440   0.819  0.1525 -0.7021  0.2438
10755TIP3    H153680   1.041   1.410   0.728 -0.0641 -0.1897  0.0675
10755TIP3    H253681   0.946   1.446   0.840  0.1864  0.1315  0.1774
10756TIP3   OH253682   1.725   6.059  11.843  0.1408  0.2528 -0.8685
10756TIP3    H153683   1.656   6.067  11.908  2.2040 -1.6268  1.6724
10756TIP3    H253684   1.707   6.129  11.780 -2.2692  1.7742  1.4097
10757TIP3   OH253685   5.682   0.936  11.331  0.0046 -0.5326  0.2299
10757TIP3    H153686   5.675   0.881  11.409  1.2033 -0.6564  0.2604
10757TIP3    H253687   5.601   0.920  11.283 -0.0706 -1.6234  0.6978
10758TIP3   OH253688   6.060   0.560  12.357 -0.4191 -0.5861 -0.4598
10758TIP3    H153689   5.986   0.500  12.359 -0.0326 -1.1226 -1.5993
10758TIP3    H253690   6.137   0.503  12.358 -0.0568 -0.1857 -2.7974
10759TIP3   OH253691   0.993   1.802   0.734 -0.1697 -0.5836  0.0297
10759TIP3    H153692   1.052   1.736   0.700  0.4212 -0.1964  0.2980
10759TIP3    H253693   0.976   1.776   0.824  2.3225  1.1499  1.0510
10760TIP3   OH253694   0.338   2.895   1.306  0.2404  0.0674  0.6225
10760TIP3    H153695   0.427   2.921   1.281  0.1266  0.1291  0.2718
10760TIP3    H253696   0.295   2.876   1.222  0.2755 -1.0836  0.8616
10761TIP3   OH253697   5.181   6.111  10.642 -0.2903 -0.1756 -0.1830
10761TIP3    H153698   5.249   6.065  10.691 -0.3223 -0.7105 -0.6320
10761TIP3    H253699   5.099   6.075  10.676 -0.3207 -0.2656 -0.3503
10762TIP3   OH253700   5.914   3.574   3.054 -0.1127  0.0573  0.5258
10762TIP3    H153701   6.005   3.555   3.032 -0.2679 -0.1780  0.1037
10762TIP3    H253702   5.862   3.513   3.002 -0.4470 -1.1653  2.2146
10763TIP3   OH253703   1.036   1.401  17.187  0.4299  0.2859  0.0642
10763TIP3    H153704   0.982   1.478  17.169 -0.1722  0.0712  0.9135
10763TIP3    H253705   1.114   1.413  17.133  0.0740  1.1948 -0.2558
10764TIP3   OH253706   4.024   2.209   5.661 -0.0732 -0.4787  0.0465
10764TIP3    H153707   3.953   2.145   5.660 -1.3407  0.9033 -0.4680
10764TIP3    H253708   4.009   2.260   5.741  1.3968 -1.3245  0.8794
10765TIP3   OH253709   5.566   2.854  14.528 -0.4155 -0.7562  0.0301
10765TIP3    H153710   5.534   2.931  14.574  0.8119 -0.8889  1.1628
10765TIP3    H253711   5.586   2.791  14.598 -0.8677 -1.8932 -0.8347
10766TIP3   OH253712   2.244   2.948  10.906 -0.1240 -1.2001  0.0771
10766TIP3    H153713   2.299   3.002  10.963 -0.1820  1.9962 -2.7999
10766TIP3    H253714   2.302   2.921  10.835 -1.3004 -0.9298 -1.0037
10767TIP3   OH253715   5.761   6.352  15.097 -0.3275  0.3458 -0.7241
10767TIP3    H153716   5.743   6.292  15.170 -0.3218  0.6191 -0.4966
10767TIP3    H253717   5.797   6.430  15.139  1.3524 -0.1702 -1.1539
10768TIP3   OH253718   0.093   1.240  13.890  0.5557 -0.6394 -0.0422
10768TIP3    H153719   0.168   1.294  13.868  0.3478 -0.9259 -1.5318
10768TIP3    H253720   0.125   1.181  13.958  1.5762 -0.5208 -0.4134
10769TIP3   OH253721   1.479   1.895  12.720 -0.3373 -0.6874 -0.1724
10769TIP3    H153722   1.566   1.928  12.697 -0.1022 -0.9241  0.3691
10769TIP3    H253723   1.496   1.827  12.786 -0.9783 -0.2661  0.4327
10770TIP3   OH253724   0.498   1.901  14.414  0.0471  0.2603  0.2951
10770TIP3    H153725   0.420   1.847  14.429  1.2977 -1.2921  1.4971
10770TIP3    H253726   0.559   1.842  14.370  1.3953  0.7195  1.5019
10771TIP3   OH253727   3.244   5.846   2.823  0.5517  0.2489 -0.2658
10771TIP3    H153728   3.196   5.900   2.760  0.5847  0.8643  0.2359
10771TIP3    H253729   3.336   5.870   2.810  0.5486  0.4618  0.0904
10772TIP3   OH253730   5.186   6.685   5.641  0.1925  0.0259  0.2525
10772TIP3    H153731   5.225   6.731   5.567  0.2451 -2.3360 -1.2249
10772TIP3    H253732   5.096   6.669   5.615 -0.0144 -0.0999  1.0317
10773TIP3   OH253733   5.491   4.748   1.642 -0.2077  0.1137 -0.1545
10773TIP3    H153734   5.444   4.718   1.565 -0.6041  0.6796 -0.1357
10773TIP3    H253735   5.424   4.783   1.700  0.3478  2.2176 -0.7171
10774TIP3   OH253736   1.152   4.931  16.095  0.3082 -0.1964  0.3243
10774TIP3    H153737   1.129   5.016  16.058  1.2181  0.5185  1.3462
10774TIP3    H253738   1.214   4.952  16.166 -0.5517 -1.5877  1.5182
10775TIP3   OH253739   6.623   2.729  16.696 -0.1320 -0.2307  0.2508
10775TIP3    H153740   6.534   2.708  16.669 -0.4321 -0.0821  1.0888
10775TIP3    H253741   6.653   2.652  16.744  0.6945 -0.8194 -1.1843
10776TIP3   OH253742   2.532   2.140  16.771  0.0317  0.6966  0.5687
10776TIP3    H153743   2.556   2.082  16.699 -0.4267  1.2800 -0.0582
10776TIP3    H253744   2.463   2.093  16.818  0.4786  0.2223  0.7650
10777TIP3   OH253745   1.696   1.249  14.957 -0.4615  0.5858 -0.3427
10777TIP3    H153746   1.733   1.246  14.869  0.7365 -0.2146  0.1563
10777TIP3    H253747   1.640   1.172  14.962  0.3845 -0.0238 -0.0396
10778TIP3   OH253748   1.307   3.115  12.270 -0.2758  0.9667  0.9231
10778TIP3    H153749   1.256   3.137  12.193  0.1114 -1.3313 -0.0159
10778TIP3    H253750   1.397   3.106  12.238 -0.4741 -2.4314  1.1000
10779TIP3   OH253751   1.351   3.575   1.117  0.0965  0.2263  0.5338
10779TIP3    H153752   1.316   3.535   1.197  1.0868  0.6887  1.2120
10779TIP3    H253753   1.440   3.542   1.110  0.4296  1.1479  0.3019
10780TIP3   OH253754   2.127   1.248  16.563  0.2091 -0.0177  0.2466
10780TIP3    H153755   2.201   1.301  16.592  1.6848 -1.0482 -1.5289
10780TIP3    H253756   2.161   1.159  16.560 -0.7887 -0.3683 -1.5543
10781TIP3   OH253757   3.224   0.087  11.696  0.3923 -0.4402  0.4531
10781TIP3    H153758   3.308   0.132  11.697  0.7421 -0.9843 -2.0841
10781TIP3    H253759   3.244  -0.003  11.723  0.6984 -0.6663 -0.5088
10782TIP3   OH253760   5.915   2.395   0.580  0.5276 -0.0137  0.1245
10782TIP3    H153761   5.876   2.442   0.653 -0.0701  1.4541 -1.0972
10782TIP3    H253762   5.967   2.460   0.534 -0.3706 -0.5069 -1.6518
10783TIP3   OH253763   3.963   4.164   0.617 -0.2267 -0.1094 -0.5083
10783TIP3    H153764   3.945   4.257   0.629  0.8481 -0.1434  1.7242
10783TIP3    H253765   3.888   4.120   0.657 -0.7914 -0.2185 -1.6663
10784TIP3   OH253766   5.274   6.234   0.849  0.4265 -0.2853 -0.4463
10784TIP3    H153767   5.245   6.322   0.824 -0.0716 -0.3719 -0.1810
10784TIP3    H253768   5.223   6.214   0.928  0.6688 -0.7396 -0.4080
10785TIP3   OH253769   5.966   5.583   1.008 -0.1992  0.0502  0.2172
10785TIP3    H153770   6.030   5.525   0.967 -0.1231  0.3403 -0.0759
10785TIP3    H253771   5.972   5.664   0.958 -1.3080 -0.1623 -0.2695
10786TIP3   OH253772   4.698   1.413  11.700  0.0952  0.3942 -0.4814
10786TIP3    H153773   4.603   1.413  11.685 -0.0086  0.9212  0.1717
10786TIP3    H253774   4.735   1.394  11.614 -0.6435 -1.6068 -0.3832
10787TIP3   OH253775   1.655   0.519  10.742  0.0642 -0.4214 -0.1771
10787TIP3    H153776   1.600   0.500  10.667  0.0003  1.4311 -0.6387
10787TIP3    H253777   1.620   0.602  10.776  1.8978  0.2335  0.1508
10788TIP3   OH253778   3.581   1.406  12.431  0.4681  0.1097 -0.1743
10788TIP3    H153779   3.608   1.401  12.522  1.1255  0.2889 -0.3556
10788TIP3    H253780   3.587   1.315  12.399  0.1245  0.0285 -0.0086
10789TIP3   OH253781   3.165   0.744  14.291  0.5780 -0.2467 -0.0712
10789TIP3    H153782   3.119   0.742  14.375  0.8862 -0.0654  0.1067
10789TIP3    H253783   3.256   0.762  14.315  0.7578 -0.7198 -0.4115
10790TIP3   OH253784   2.778   2.592   3.310  0.2357  0.3139  0.5410
10790TIP3    H153785   2.711   2.617   3.246  0.9195 -2.6884 -1.4721
10790TIP3    H253786   2.737   2.605   3.395 -2.3650  0.0495 -0.6329
10791TIP3   OH253787   0.586   0.930  13.874 -0.0223  0.2883  0.2330
10791TIP3    H153788   0.551   0.847  13.905  2.3392 -0.1168  1.9468
10791TIP3    H253789   0.509   0.980  13.848 -1.5526 -2.0407  0.1540
10792TIP3   OH253790   5.851   3.551  13.915 -0.8323  0.0326 -0.0614
10792TIP3    H153791   5.871   3.479  13.855 -1.4791 -0.5009  0.3744
10792TIP3    H253792   5.937   3.580  13.946 -0.4896  0.2388 -1.1471
10793TIP3   OH253793   3.448   1.371  16.642 -0.2536  0.0445  0.5227
10793TIP3    H153794   3.524   1.359  16.699 -0.2873  0.3266  0.6321
10793TIP3    H253795   3.456   1.461  16.611  1.0041 -0.8190 -1.7508
10794TIP3   OH253796   6.322   5.243  14.007 -0.0420  0.7431 -0.3085
10794TIP3    H153797   6.297   5.334  13.994 -0.4121  0.3794 -2.3701
10794TIP3    H253798   6.270   5.194  13.943  0.2960 -0.9004  0.6166
10795TIP3   OH253799   0.576   2.544  16.102 -0.4951  0.7882 -0.4520
10795TIP3    H153800   0.582   2.448  16.105 -1.4106  0.7348 -0.2004
10795TIP3    H253801   0.660   2.574  16.135  0.1063  0.0688 -1.3091
10796TIP3   OH253802   6.172   5.190  13.797 -0.0411  0.0730  0.3025
10796TIP3    H153803   6.155   5.277  13.759  0.8507  0.8800  1.7353
10796TIP3    H253804   6.187   5.134  13.721  0.9973  1.5170 -0.5848
10797TIP3   OH253805   0.078   5.739  11.858  0.7117  0.2109 -0.3705
10797TIP3    H153806   0.102   5.717  11.768  2.3077  0.3755 -0.0066
10797TIP3    H253807   0.029   5.663  11.889  0.1866  0.1351 -1.3606
10798TIP3   OH253808   3.551   1.294  14.830 -0.2407 -0.1710  0.0657
10798TIP3    H153809   3.582   1.205  14.812 -0.4884 -0.2198 -0.1170
10798TIP3    H253810   3.631   1.343  14.849  0.1723  0.1569 -2.2994
10799TIP3   OH253811   4.437   6.550  15.655 -0.1520  0.3068  0.2443
10799TIP3    H153812   4.436   6.482  15.722  1.8551 -0.4886 -0.4962
10799TIP3    H253813   4.399   6.508  15.577 -1.8749  1.0309  0.6702
10800TIP3   OH253814   0.377   5.088   4.837 -0.1401 -0.4593  0.4037
10800TIP3    H153815   0.286   5.106   4.813  0.4741 -0.2751 -1.9157
10800TIP3    H253816   0.408   5.027   4.770  1.1296 -1.3702  1.7902
10801TIP3   OH253817   1.879   1.839   3.508  0.0048 -0.0054  0.2463
10801TIP3    H153818   1.903   1.890   3.586 -1.2327 -0.8382  1.1909
10801TIP3    H253819   1.802   1.789   3.535  0.9648 -2.0846 -0.7669
10802TIP3   OH253820   6.076   3.075   3.486 -0.0143 -0.0679 -0.4786
10802TIP3    H153821   5.997   3.122   3.509 -0.1691 -0.7636  0.4378
10802TIP3    H253822   6.148   3.135   3.507 -0.1635 -0.5745  1.5760
10803TIP3   OH253823   4.307   5.208   5.346  0.7322 -0.0914  0.2420
10803TIP3    H153824   4.381   5.242   5.397  0.9213  0.4878 -0.4117
10803TIP3    H253825   4.252   5.163   5.411  1.9505 -1.0442  0.6352
10804TIP3   OH253826   1.810   1.248  14.700  0.5621 -0.8019 -0.7105
10804TIP3    H153827   1.866   1.324  14.689  0.2564  0.3066  4.1934
10804TIP3    H253828   1.870   1.176  14.717  0.7107 -0.9954 -2.0041
10805TIP3   OH253829   5.791   3.708   3.479 -1.0485 -0.3624  0.2690
10805TIP3    H153830   5.808   3.630   3.427  0.7319  0.2020 -0.0458
10805TIP3    H253831   5.806   3.781   3.418 -1.8294  0.2341  0.7853
10806TIP3   OH253832   5.943   0.941  16.006 -0.1760 -0.8012 -0.1075
10806TIP3    H153833   6.035   0.962  16.023 -0.4108  0.3777 -0.2293
10806TIP3    H253834   5.895   1.016  16.042 -1.0479 -1.1188 -0.6067
10807TIP3   OH253835   2.861   5.987  12.917  0.1202  0.1773 -0.4354
10807TIP3    H153836   2.833   6.056  12.856  0.1351 -0.7345 -1.4866
10807TIP3    H253837   2.781   5.957  12.958 -0.1326 -0.5823 -1.4760
10808TIP3   OH253838   6.102   6.623  15.347 -0.1791 -0.3556  0.7707
10808TIP3    H153839   6.134   6.551  15.401 -0.0029 -0.2137  0.8538
10808TIP3    H253840   6.181   6.659  15.305 -0.3778 -0.8310 -0.0279
10809TIP3   OH253841   1.694   5.957   2.145 -0.3506 -0.5483 -0.4894
10809TIP3    H153842   1.654   5.888   2.093  1.4594 -0.7345 -1.7059
10809TIP3    H253843   1.721   5.914   2.226 -1.9710 -0.5620  0.0561
10810TIP3   OH253844   1.151   4.455   5.880 -0.0217  0.1215 -0.1440
10810TIP3    H153845   1.127   4.367   5.908 -0.1421  0.5764  1.2039
10810TIP3    H253846   1.247   4.456   5.886 -0.0159  0.0642 -0.2229
10811TIP3   OH253847   5.323   1.627  15.807  0.1243  0.8838 -0.1359
10811TIP3    H153848   5.403   1.588  15.844  1.3964  2.0048 -1.6338
10811TIP3    H253849   5.340   1.721  15.808 -1.0086  1.1066 -0.9000
10812TIP3   OH253850   3.985   3.969   2.722  0.0631  0.3157  0.0599
10812TIP3    H153851   4.032   3.966   2.805 -1.3467 -1.0306  0.8487
10812TIP3    H253852   4.034   4.031   2.668  0.7887  1.4711  2.0201
10813TIP3   OH253853   0.012   2.353   2.582 -0.6214 -0.2510 -0.3592
10813TIP3    H153854  -0.017   2.321   2.668  1.1808 -0.6028  0.1372
10813TIP3    H253855   0.103   2.377   2.595  0.0728 -1.5676 -2.5143
10814TIP3   OH253856   2.383   6.325   2.123 -0.0279  0.0976  0.3281
10814TIP3    H153857   2.317   6.332   2.192 -0.5639 -0.6859 -0.1012
10814TIP3    H253858   2.348   6.378   2.051  0.6049  1.0432  0.6986
10815TIP3   OH253859   4.389   4.050   6.332 -0.4510  0.3182  0.2919
10815TIP3    H153860   4.364   4.039   6.240  2.5107 -0.2403 -0.4983
10815TIP3    H253861   4.451   3.979   6.349  0.2537  1.3579  2.2528
10816TIP3   OH253862   6.461   1.447   1.903  0.0548  0.4110 -0.6525
10816TIP3    H153863   6.370   1.419   1.912 -0.2131  1.3317 -0.4170
10816TIP3    H253864   6.454   1.539   1.876  0.9155  0.4958 -0.5733
10817TIP3   OH253865   2.806   0.773  14.337  0.5086  0.0621  0.6388
10817TIP3    H153866   2.780   0.681  14.345 -1.6882  0.5665 -0.2398
10817TIP3    H253867   2.864   0.775  14.261  0.8519 -0.6510  0.8801
10818TIP3   OH253868   6.112   6.350   3.516  0.0759 -0.6515  0.5127
10818TIP3    H153869   6.141   6.435   3.549  1.4412 -1.3306  1.1056
10818TIP3    H253870   6.191   6.310   3.480 -1.0797 -0.5357 -2.3347
10819TIP3   OH253871   2.609   1.516  14.943 -0.5285 -0.1564 -0.3905
10819TIP3    H153872   2.661   1.572  15.000 -1.8412 -0.0251  0.7133
10819TIP3    H253873   2.654   1.432  14.944 -0.7184 -0.2577  1.1517
10820TIP3   OH253874   1.529   6.645  16.240 -0.1174  0.2594 -0.1188
10820TIP3    H153875   1.547   6.722  16.185 -2.8347  0.5714 -0.6360
10820TIP3    H253876   1.464   6.596  16.191  1.0842 -2.0678  0.5464
10821TIP3   OH253877   0.990   2.684   1.043 -0.0464  0.2323  0.4751
10821TIP3    H153878   1.036   2.753   1.090  0.8391  0.5863 -0.8680
10821TIP3    H253879   0.900   2.716   1.035 -0.0148  0.5168  1.2292
10822TIP3   OH253880   6.045   1.167  14.789 -0.0420 -1.0631  0.4459
10822TIP3    H153881   6.061   1.242  14.730 -0.3446  0.4940  2.2856
10822TIP3    H253882   5.977   1.116  14.746  0.1344 -0.2420 -0.8281
10823TIP3   OH253883   1.101   4.153   5.901  0.1781  0.3322  0.6082
10823TIP3    H153884   1.189   4.115   5.910  0.0275 -0.8225 -2.2187
10823TIP3    H253885   1.044   4.088   5.943  0.2879 -0.9434 -1.1476
10824TIP3   OH253886   5.666   1.580   1.903 -0.1289 -0.0696 -0.3358
10824TIP3    H153887   5.600   1.526   1.860 -1.1240  0.9327 -0.0882
10824TIP3    H253888   5.650   1.669   1.870 -2.2579  1.1223  3.5443
10825TIP3   OH253889   4.461   0.914   1.277  0.4024  0.3360 -0.1662
10825TIP3    H153890   4.440   0.944   1.366 -0.6717 -0.4701 -0.1317
10825TIP3    H253891   4.469   0.819   1.285  0.4441  0.2759 -0.9079
10826TIP3   OH253892   5.287   4.258   5.517 -0.4154 -0.1088 -0.0038
10826TIP3    H153893   5.356   4.240   5.581  0.3865 -0.0710 -0.8532
10826TIP3    H253894   5.256   4.172   5.489  0.9262 -0.1664 -1.3744
10827TIP3   OH253895   6.160   2.835   5.001  0.3558 -0.5955 -0.0430
10827TIP3    H153896   6.159   2.897   4.928 -1.1252  0.0906  0.5402
10827TIP3    H253897   6.095   2.869   5.062  1.9067 -0.9141  1.8259
10828TIP3   OH253898   5.803   3.504  14.808  0.5616 -0.3678 -0.4256
10828TIP3    H153899   5.755   3.534  14.886 -0.6336 -1.0701 -0.8741
10828TIP3    H253900   5.801   3.408  14.814 -2.4118 -0.5407 -2.9864
10829TIP3   OH253901   0.092   5.398  10.742  0.3694 -0.4948  0.0424
10829TIP3    H153902   0.009   5.378  10.786  0.2968 -0.1183  0.0783
10829TIP3    H253903   0.079   5.370  10.652  0.4081 -0.9777  0.1835
10830TIP3   OH253904   6.384   0.337  14.863  0.1381  0.1272  0.1345
10830TIP3    H153905   6.343   0.272  14.920  0.2440  1.1865  1.4349
10830TIP3    H253906   6.478   0.317  14.868 -0.0522 -1.5314 -1.8939
10831TIP3   OH253907   0.332   2.312  11.753  0.2865  0.4972  0.1938
10831TIP3    H153908   0.340   2.221  11.782  0.0961  0.3196 -0.3063
10831TIP3    H253909   0.369   2.312  11.664  2.3565  1.3490  1.0142
10832TIP3   OH253910   4.502   2.629  11.647  0.1785  0.6305 -0.0812
10832TIP3    H153911   4.440   2.628  11.574 -1.5096 -1.0414  1.3261
10832TIP3    H253912   4.453   2.593  11.721  1.7938  2.4350  1.9397
10833TIP3   OH253913   4.325   2.268   3.134 -0.6700 -0.5201  0.7027
10833TIP3    H153914   4.290   2.342   3.184  0.1558  0.8143 -0.6305
10833TIP3    H253915   4.336   2.303   3.045  1.7478 -1.5878  0.5473
10834TIP3   OH253916   1.351   3.955  14.104  0.1299  0.3743  0.4268
10834TIP3    H153917   1.393   3.922  14.183  1.7398  2.5374  0.5114
10834TIP3    H253918   1.421   3.957  14.038 -0.4895  1.3947 -0.2175
10835TIP3   OH253919   4.961   0.141   1.301 -0.2351  0.1990  0.0615
10835TIP3    H153920   4.876   0.108   1.331 -0.5311  2.2802  1.5851
10835TIP3    H253921   4.942   0.189   1.220 -0.8019  2.2002  1.3661
10836TIP3   OH253922   5.823   3.244   0.072 -0.0156 -0.1761  0.2788
10836TIP3    H153923   5.887   3.179   0.043 -0.1992 -0.7129  1.0647
10836TIP3    H253924   5.876   3.320   0.096  0.2049 -0.0537 -0.5789
10837TIP3   OH253925   3.313   0.185  15.871  0.1948 -0.3099  0.3754
10837TIP3    H153926   3.223   0.158  15.857 -0.2700  1.7960 -1.0068
10837TIP3    H253927   3.351   0.191  15.784  1.5382 -0.7040  0.9126
10838TIP3   OH253928   1.391   1.848  16.477  0.4875  0.2063  0.1302
10838TIP3    H153929   1.443   1.801  16.542  2.7324  0.2298 -1.5780
10838TIP3    H253930   1.398   1.940  16.501  2.4050  0.3439 -0.8394
10839TIP3   OH253931   2.661   6.357  16.106 -0.2392 -0.0341 -0.3611
10839TIP3    H153932   2.676   6.334  16.198  0.2431 -0.2755 -0.5001
10839TIP3    H253933   2.626   6.277  16.067 -2.5345  0.7010  0.1007
10840TIP3   OH253934   3.105   6.319   5.827 -0.3888  0.7050  0.2401
10840TIP3    H153935   3.173   6.384   5.810  0.1843 -0.2520 -1.2064
10840TIP3    H253936   3.024   6.360   5.797 -0.0391  0.7723 -0.6148
10841TIP3   OH253937   1.063   3.114   2.934 -0.6925  0.3622  0.7106
10841TIP3    H153938   1.036   3.149   3.019 -0.1008 -0.0985  1.0920
10841TIP3    H253939   1.123   3.180   2.899 -2.1986  1.3472 -0.1017
10842TIP3   OH253940   0.443   0.290   3.225 -0.0442  0.0571 -0.3927
10842TIP3    H153941   0.440   0.201   3.191 -0.5915  0.1622 -0.6201
10842TIP3    H253942   0.451   0.279   3.320  0.2326 -0.2348 -0.4529
10843TIP3   OH253943   0.904   6.361  13.348 -0.0672  0.9123  0.3210
10843TIP3    H153944   0.965   6.432  13.327 -1.1419  1.4543 -1.0580
10843TIP3    H253945   0.853   6.395  13.421  1.7459  0.1621  1.9937
10844TIP3   OH253946   3.847   3.414   4.979 -0.0218  0.5074  0.1955
10844TIP3    H153947   3.931   3.374   5.001  0.2155  0.4756 -0.7568
10844TIP3    H253948   3.823   3.375   4.895 -0.7060  0.9554  0.1783
10845TIP3   OH253949   2.385   0.157  11.535  0.0768  0.7393  0.1585
10845TIP3    H153950   2.479   0.139  11.549  0.3623 -1.1722 -3.5712
10845TIP3    H253951   2.382   0.207  11.454 -2.2639 -1.4467 -1.1824
10846TIP3   OH253952   2.561   2.168  16.244 -0.0870 -0.1798  0.0849
10846TIP3    H153953   2.571   2.262  16.259  0.7558 -0.4569  1.3041
10846TIP3    H253954   2.482   2.144  16.292  0.0157 -0.2015  0.2419
10847TIP3   OH253955   2.755   2.911  14.239 -0.1904 -0.1615 -0.0020
10847TIP3    H153956   2.790   2.962  14.312 -1.1421 -0.6466  0.8097
10847TIP3    H253957   2.661   2.907  14.255 -0.4564  0.0290 -1.4579
10848TIP3   OH253958   6.700   4.328  16.164 -0.1381  0.0346 -0.6236
10848TIP3    H153959   6.765   4.391  16.134  1.9144 -1.7844 -0.1027
10848TIP3    H253960   6.662   4.367  16.243  0.8277  0.7764 -0.5276
10849TIP3   OH253961   5.392   3.193   4.483  0.0307  0.6260  0.3125
10849TIP3    H153962   5.456   3.259   4.456 -0.3306  1.0608  0.5214
10849TIP3    H253963   5.430   3.110   4.454  1.0290  0.8113  1.0600
10850TIP3   OH253964   6.459   3.702  13.832 -0.0246 -0.2347 -0.0918
10850TIP3    H153965   6.509   3.651  13.768  1.6994  1.2745  0.0337
10850TIP3    H253966   6.495   3.790  13.827 -1.4050  0.4404  1.3642
10851TIP3   OH253967   6.195   3.941   4.924  0.3397 -0.1204  0.7400
10851TIP3    H153968   6.221   3.851   4.905  0.0702 -0.0988  0.2815
10851TIP3    H253969   6.238   3.994   4.856 -0.3420 -0.0116  0.3940
10852TIP3   OH253970   2.563   0.302   5.462  0.4952 -0.4517  0.2621
10852TIP3    H153971   2.603   0.388   5.452 -0.8283  0.1287 -0.1798
10852TIP3    H253972   2.518   0.287   5.378 -0.5765 -0.8800  0.9034
10853TIP3   OH253973   5.724   0.131   3.440 -0.0537 -0.4902  0.0318
10853TIP3    H153974   5.753   0.207   3.491  1.5103 -0.5181 -0.7861
10853TIP3    H253975   5.663   0.168   3.376  0.2080 -0.0140  0.0498
10854TIP3   OH253976   3.584   4.459   3.614  0.2444 -0.2206  0.1380
10854TIP3    H153977   3.584   4.379   3.562 -0.3768 -0.4344  0.4680
10854TIP3    H253978   3.515   4.513   3.576 -0.5544 -0.5830  1.0445
10855TIP3   OH253979   2.730   0.239   0.289 -0.4099 -0.1757 -0.1308
10855TIP3    H153980   2.665   0.292   0.242  1.5436  1.1253 -1.4095
10855TIP3    H253981   2.750   0.291   0.367  0.9341  0.6272 -0.9982
10856TIP3   OH253982   6.534   6.253  11.372  0.4213 -0.0020 -0.1481
10856TIP3    H153983   6.522   6.158  11.365  0.0880  0.0597 -0.4630
10856TIP3    H253984   6.457   6.283  11.419  1.3096 -0.0728  1.3853
10857TIP3   OH253985   0.407   2.256   6.469  0.2553 -0.1313 -0.0011
10857TIP3    H153986   0.311   2.252   6.464  0.2892 -0.0095 -0.8858
10857TIP3    H253987   0.425   2.286   6.558 -0.5210 -0.4708  0.2830
10858TIP3   OH253988   4.253   5.815  13.222 -0.8631 -0.5625  0.4476
10858TIP3    H153989   4.301   5.747  13.175 -1.6919 -1.2781  0.6184
10858TIP3    H253990   4.212   5.868  13.154  0.7898  0.5195  0.2826
10859TIP3   OH253991   3.251   3.274   5.460 -0.6926  0.5049 -0.6789
10859TIP3    H153992   3.198   3.225   5.397 -2.8624  1.3438  0.4667
10859TIP3    H253993   3.293   3.206   5.513  2.3423 -0.2832 -3.8558
10860TIP3   OH253994   4.081   4.128  16.380  0.1887  0.4320 -0.2634
10860TIP3    H153995   4.170   4.095  16.393  0.8904  1.2874 -2.6092
10860TIP3    H253996   4.091   4.202  16.320 -1.8649  2.0068  1.2376
10861TIP3   OH253997   3.180   5.226   1.906 -0.5357 -0.3697  0.0633
10861TIP3    H153998   3.086   5.243   1.912 -0.1581  2.7577 -2.0563
10861TIP3    H253999   3.190   5.175   1.825 -0.3124 -0.1083 -0.0722
10862TIP3   OH254000   6.338   3.535  14.665 -0.2516 -0.8159 -0.1209
10862TIP3    H154001   6.251   3.513  14.700 -1.7617  2.3122 -1.7722
10862TIP3    H254002   6.397   3.517  14.738 -2.3650 -2.2030  1.3229
10863TIP3   OH254003   0.032   4.964   4.117  0.5301  0.1639 -0.5310
10863TIP3    H154004   0.084   4.897   4.163  1.2937  0.6802 -0.6254
10863TIP3    H254005  -0.057   4.951   4.149  0.8274 -0.3230  0.1284
10864TIP3   OH254006   6.675   6.772   5.902 -0.1178  0.3275  0.3616
10864TIP3    H154007   6.630   6.804   5.824  0.0923 -0.0062  0.1017
10864TIP3    H254008   6.631   6.690   5.925  1.7069 -1.1357 -1.1592
10865TIP3   OH254009   3.175   3.145  16.890  0.3972 -0.1303  0.0491
10865TIP3    H154010   3.146   3.129  16.800 -0.7527 -0.2660  0.4426
10865TIP3    H254011   3.187   3.058  16.927  0.7798 -0.0726  0.0671
10866TIP3   OH254012   6.558   6.613  11.367  0.6602  0.3041 -0.1987
10866TIP3    H154013   6.483   6.664  11.337 -0.1303 -1.5738 -1.5520
10866TIP3    H254014   6.631   6.644  11.314  0.0347 -0.4465 -1.5327
10867TIP3   OH254015   6.776   6.742  16.218  0.0777  0.3677 -0.2037
10867TIP3    H154016   6.819   6.667  16.259  0.8555  0.6121 -0.5634
10867TIP3    H254017   6.832   6.763  16.143  0.0664  1.5303  0.1086
10868TIP3   OH254018   0.349   2.679   6.001 -0.0932  0.3164  0.0092
10868TIP3    H154019   0.402   2.607   5.966  1.7550  1.6614 -0.0905
10868TIP3    H254020   0.401   2.713   6.074 -0.3875  2.2456 -0.6515
10869TIP3   OH254021   2.987   5.742   6.679  0.2836 -0.0623 -0.3567
10869TIP3    H154022   3.071   5.756   6.635  0.2374 -0.4735 -0.5827
10869TIP3    H254023   3.009   5.693   6.759  0.3279  0.3680 -0.1060
10870TIP3   OH254024   4.691   5.066   2.933 -0.0801  0.5365  0.2044
10870TIP3    H154025   4.771   5.119   2.940 -2.1183  3.8242 -0.5800
10870TIP3    H254026   4.671   5.064   2.840 -0.8159 -0.4625  0.3764
10871TIP3   OH254027   1.767   3.974   3.906 -0.0226  0.1688 -0.1122
10871TIP3    H154028   1.794   3.914   3.836 -0.9752  1.3177 -1.5022
10871TIP3    H254029   1.679   3.945   3.931 -0.7781  1.3697 -1.2794
10872TIP3   OH254030   4.592   6.173  11.314  0.3249 -0.1736  0.5740
10872TIP3    H154031   4.554   6.086  11.307  0.4949 -0.2788  0.9356
10872TIP3    H254032   4.604   6.202  11.224  0.5001 -0.6240  0.4547
10873TIP3   OH254033   1.387   3.396  14.600 -0.1527 -0.0898  0.4328
10873TIP3    H154034   1.457   3.336  14.626 -0.7970 -0.5420  1.1526
10873TIP3    H254035   1.309   3.361  14.642 -0.5503  1.2319  0.8024
10874TIP3   OH254036   5.695   1.620  14.528  0.0742  0.5451  0.4242
10874TIP3    H154037   5.756   1.685  14.561  1.5464 -1.3422  1.5423
10874TIP3    H254038   5.652   1.586  14.606  0.0423 -0.5099 -0.0422
10875TIP3   OH254039   1.371   2.312  13.299 -0.1960  0.6231 -1.2259
10875TIP3    H154040   1.439   2.305  13.365  0.1942  2.2367 -1.4500
10875TIP3    H254041   1.414   2.283  13.218 -0.3557 -0.2625 -1.0038
10876TIP3   OH254042   5.598   4.960  11.892  0.4144 -0.7290  0.1592
10876TIP3    H154043   5.570   4.873  11.918  0.9458 -0.8189  0.4320
10876TIP3    H254044   5.517   5.007  11.873  0.1004 -1.1108  0.5587
10877TIP3   OH254045   2.142   3.305  13.772  0.0590 -0.4950 -0.2770
10877TIP3    H154046   2.226   3.268  13.744 -0.6054 -1.4849 -1.0005
10877TIP3    H254047   2.091   3.310  13.691 -0.7089 -0.2288  0.2246
10878TIP3   OH254048   1.072   5.650  12.329 -0.0350 -0.6839  0.1256
10878TIP3    H154049   1.115   5.574  12.291  2.6889  1.0835 -0.5259
10878TIP3    H254050   1.064   5.712  12.257 -0.2573  0.4321  1.0928
10879TIP3   OH254051   3.292   2.965   2.152 -0.5380  0.2063  0.4664
10879TIP3    H154052   3.320   3.050   2.184  0.0781  0.4843 -0.7859
10879TIP3    H254053   3.311   2.905   2.224  0.9807  0.7891  0.5655
10880TIP3   OH254054   2.803   4.380  16.721 -0.4564  0.5731  0.3990
10880TIP3    H154055   2.771   4.297  16.755  1.4534 -1.0958 -1.7972
10880TIP3    H254056   2.889   4.392  16.761 -1.5404  2.5303  2.2770
10881TIP3   OH254057   5.072   2.176   0.072 -0.3254 -0.0238 -0.1507
10881TIP3    H154058   5.151   2.222   0.100 -1.2955  1.8031 -0.3198
10881TIP3    H254059   5.010   2.190   0.144 -0.9114 -0.3413 -0.5903
10882TIP3   OH254060   0.613   6.724  10.837 -0.0516 -0.8784  0.1056
10882TIP3    H154061   0.616   6.631  10.818  1.4294 -0.6124 -1.0739
10882TIP3    H254062   0.574   6.763  10.758 -1.7490 -0.5963  1.0496
10883TIP3   OH254063   6.502   2.871  11.737  0.1553  0.4660 -0.3316
10883TIP3    H154064   6.428   2.908  11.785  0.4377 -1.5475  1.7476
10883TIP3    H254065   6.579   2.894  11.789  0.4722 -1.7275  0.2315
10884TIP3   OH254066   1.788   4.502  17.014 -0.0174 -0.5602 -0.3518
10884TIP3    H154067   1.739   4.433  17.059  0.1849  0.4659  1.4823
10884TIP3    H254068   1.739   4.518  16.933 -2.3093 -0.0290  1.1185
10885TIP3   OH254069   6.480   3.606  12.505 -0.0764 -0.0910 -0.4370
10885TIP3    H154070   6.529   3.685  12.526 -0.4135 -0.4680  1.9989
10885TIP3    H254071   6.462   3.612  12.412  2.9369  0.9869 -1.0109
10886TIP3   OH254072   3.200   3.528   5.180  0.3986  0.0359 -0.0410
10886TIP3    H154073   3.169   3.475   5.106 -0.6220  1.3861 -0.5963
10886TIP3    H254074   3.127   3.528   5.242  1.6903 -2.0872  1.5338
10887TIP3   OH254075   1.901   2.679  13.211  0.4474 -0.0963  0.6089
10887TIP3    H154076   1.996   2.663  13.215  0.4206 -0.0526  1.4930
10887TIP3    H254077   1.891   2.740  13.137  0.7540 -2.5013 -1.4879
10888TIP3   OH254078   5.942   1.590  12.100 -0.0558 -0.2139 -0.1064
10888TIP3    H154079   5.866   1.558  12.148  0.9708 -1.6002  0.6236
10888TIP3    H254080   5.927   1.561  12.009  0.7616 -2.6799  0.5010
10889TIP3   OH254081   0.822   4.289   5.931  0.0422 -0.0681 -0.6106
10889TIP3    H154082   0.776   4.277   6.014 -0.2059 -0.0967 -0.7500
10889TIP3    H254083   0.890   4.221   5.931  1.8763  1.7154  0.8131
10890TIP3   OH254084   3.003   2.131  12.085 -0.3229 -0.1341 -0.0812
10890TIP3    H154085   2.990   2.206  12.142 -0.6054 -0.7743  0.6989
10890TIP3    H254086   3.043   2.064  12.141 -0.3854 -0.6838 -0.6863
10891TIP3   OH254087   2.769   6.316   5.874  0.0521 -0.8235  0.1812
10891TIP3    H154088   2.819   6.363   5.808  1.3004  0.9522  2.3236
10891TIP3    H254089   2.807   6.228   5.875  2.3928  0.1763  1.0007
10892TIP3   OH254090   6.574   3.577   5.495  0.2717 -0.4334 -0.2880
10892TIP3    H154091   6.587   3.660   5.450  0.4661 -0.1860  0.2214
10892TIP3    H254092   6.559   3.514   5.424  0.9080 -0.1100 -0.7205
10893TIP3   OH254093   3.293   1.396   2.536 -0.4565  0.0383 -0.1291
10893TIP3    H154094   3.254   1.435   2.457  1.8715  1.6598 -0.5261
10893TIP3    H254095   3.314   1.471   2.591 -1.1672 -1.0375  1.6397
10894TIP3   OH254096   2.570   3.562   4.335 -0.3896  0.4752 -0.2959
10894TIP3    H154097   2.600   3.604   4.255  2.6012 -0.0568  0.4848
10894TIP3    H254098   2.501   3.502   4.306  0.9446 -0.0455 -2.5408
10895TIP3   OH254099   5.009   3.331   5.504 -0.5246  0.2172  0.6842
10895TIP3    H154100   4.977   3.246   5.473  2.2624 -0.0938 -1.5870
10895TIP3    H254101   4.949   3.395   5.466 -0.7679 -0.5482 -0.2364
10896TIP3   OH254102   3.215   2.846  12.259  0.6290 -0.4178 -1.1523
10896TIP3    H154103   3.259   2.779  12.311  1.2268  1.5366  0.9452
10896TIP3    H254104   3.265   2.926  12.276 -1.0344  0.8945 -2.3089
10897TIP3   OH254105   1.496   1.494  15.006 -0.8884 -0.6321  0.1414
10897TIP3    H154106   1.482   1.405  14.974 -1.0942 -1.1234  1.5714
10897TIP3    H254107   1.587   1.514  14.983 -1.0029 -1.0151 -0.6436
10898TIP3   OH254108   1.564   2.152   4.979  0.0280 -0.1943  0.5495
10898TIP3    H154109   1.583   2.193   5.064 -0.3112  1.5197 -0.1791
10898TIP3    H254110   1.637   2.091   4.965 -0.4046 -1.1862  2.4959
10899TIP3   OH254111   1.187   2.518  12.861  0.4167  0.3973  0.3708
10899TIP3    H154112   1.109   2.472  12.892  0.0574  1.3106  0.8407
10899TIP3    H254113   1.245   2.522  12.938  1.6105 -1.6718 -0.3835
10900TIP3   OH254114   2.021   6.357   1.145 -0.2142 -0.4026 -0.4903
10900TIP3    H154115   1.927   6.363   1.157 -0.3902 -1.7215 -1.1765
10900TIP3    H254116   2.058   6.374   1.232 -1.1111 -0.7257 -0.0484
10901TIP3   OH254117   6.311   5.584  14.637 -0.5124  0.0144 -0.2263
10901TIP3    H154118   6.248   5.636  14.685  0.3866  0.3572  0.6089
10901TIP3    H254119   6.310   5.620  14.548 -1.4586  0.0309 -0.2094
10902TIP3   OH254120   2.330   6.089  16.007 -0.4762  0.1977  0.0476
10902TIP3    H154121   2.340   6.030  15.933  0.0577  1.2756 -0.7382
10902TIP3    H254122   2.405   6.149  16.001 -1.6586  1.7088  0.1482
10903TIP3   OH254123   3.781   1.681   4.257  0.0281  0.3442 -0.1880
10903TIP3    H154124   3.706   1.740   4.252 -0.6366 -0.3492  1.1846
10903TIP3    H254125   3.846   1.730   4.308 -1.0178 -0.5669  2.1027
10904TIP3   OH254126   3.327   1.521  15.896 -0.4175  0.0673  0.6166
10904TIP3    H154127   3.414   1.483  15.883 -0.2397  0.9910 -0.9764
10904TIP3    H254128   3.272   1.479  15.831 -0.5383  1.4771 -0.2160
10905TIP3   OH254129   2.524   2.209   1.252  0.6890 -0.7387 -0.0580
10905TIP3    H154130   2.619   2.204   1.241  0.8023  0.6976  0.1453
10905TIP3    H254131   2.507   2.302   1.266 -0.8484 -0.8713 -1.0039
10906TIP3   OH254132   6.419   3.493   6.406  0.3117 -0.0568 -0.0188
10906TIP3    H154133   6.378   3.463   6.487  0.9636  0.6265  0.5747
10906TIP3    H254134   6.481   3.560   6.434  2.1131 -1.3177 -0.8618
10907TIP3   OH254135   6.070   3.606  14.103  0.0117 -0.8115  0.1403
10907TIP3    H154136   6.047   3.628  14.193 -1.1317  2.2336 -0.8296
10907TIP3    H254137   6.152   3.652  14.087 -0.9522  0.5728 -1.0279
10908TIP3   OH254138   3.065   3.339  13.527 -0.4040 -0.2364 -0.3927
10908TIP3    H154139   3.157   3.310  13.525 -0.1084  0.7040 -0.8006
10908TIP3    H254140   3.032   3.309  13.612  0.5297  0.1775  0.1220
10909TIP3   OH254141   0.021   2.553   3.116 -0.4172  0.2253 -0.8139
10909TIP3    H154142   0.115   2.547   3.131 -0.7863 -1.4469  1.0185
10909TIP3    H254143   0.013   2.584   3.026  1.8808  2.5882 -0.2777
10910TIP3   OH254144   1.936   3.362   3.742  1.1928 -0.3662 -0.3142
10910TIP3    H154145   1.895   3.411   3.814 -1.9464 -0.9112 -1.6652
10910TIP3    H254146   2.026   3.396   3.739 -0.5451  4.7425 -0.6392
10911TIP3   OH254147   1.587   1.583   0.240 -0.1086 -0.0890 -0.1084
10911TIP3    H154148   1.636   1.617   0.315  1.1722  1.6521 -1.6853
10911TIP3    H254149   1.626   1.498   0.222  1.5180  0.7251 -0.5462
10912TIP3   OH254150   2.533   5.692   0.783  0.4444 -0.4416  0.3607
10912TIP3    H154151   2.622   5.690   0.819  0.0410 -0.2798  1.3828
10912TIP3    H254152   2.493   5.769   0.823  0.3999  0.5145 -1.4582
10913TIP3   OH254153   3.288   2.344   2.310  0.4839  0.4339 -0.2240
10913TIP3    H154154   3.249   2.425   2.343 -0.6895 -0.7476  1.3383
10913TIP3    H254155   3.244   2.329   2.226 -0.4063  0.6044  0.2041
10914TIP3   OH254156   4.030   6.389  11.713 -0.0443  0.0712 -0.0240
10914TIP3    H154157   3.982   6.355  11.638  0.8451 -1.3203  0.0367
10914TIP3    H254158   4.059   6.476  11.685 -2.7118  1.0230 -0.0025
10915TIP3   OH254159   1.422   0.655  15.030  0.2050  0.2985 -0.3266
10915TIP3    H154160   1.471   0.597  15.089  0.1420  0.4449 -0.1324
10915TIP3    H254161   1.452   0.743  15.053  0.7362  0.3016 -1.0174
10916TIP3   OH254162   3.395   4.469   5.216 -0.0689  0.0023 -0.1181
10916TIP3    H154163   3.427   4.485   5.305 -1.2955  0.4542  0.2518
10916TIP3    H254164   3.411   4.376   5.201  0.6900  0.0565  0.3582
10917TIP3   OH254165   1.461   6.650   2.410 -0.3766 -0.1794 -0.0425
10917TIP3    H154166   1.429   6.699   2.334  0.0686 -1.7582 -1.2774
10917TIP3    H254167   1.383   6.635   2.464 -0.5802  1.5356  0.1846
10918TIP3   OH254168   0.950   4.103   0.395  0.4656  0.2083 -0.1089
10918TIP3    H154169   0.882   4.054   0.440  0.7831  0.6959  0.9231
10918TIP3    H254170   0.978   4.045   0.324  0.3593 -0.8254  0.6693
10919TIP3   OH254171   5.901   6.521  17.008 -0.0207  0.2896 -0.0272
10919TIP3    H154172   5.812   6.489  16.995 -0.1155 -0.0932  1.4493
10919TIP3    H254173   5.894   6.616  17.005 -0.6130  0.2769  0.8438
10920TIP3   OH254174   4.767   6.759  11.405 -0.1125  0.1347  0.4504
10920TIP3    H154175   4.711   6.702  11.352  2.0116  0.5079 -2.2951
10920TIP3    H254176   4.822   6.699  11.455 -0.6453 -0.2002  0.6446
10921TIP3   OH254177   1.715   0.616  17.154 -0.7191 -0.5045 -0.3033
10921TIP3    H154178   1.770   0.655  17.222 -3.2622  1.0139  0.9535
10921TIP3    H254179   1.718   0.678  17.081 -0.0802 -0.8580 -0.5827
10922TIP3   OH254180   5.255   4.154  13.187 -0.4262 -0.1129 -0.3176
10922TIP3    H154181   5.244   4.143  13.092 -2.7878 -2.0301  0.1199
10922TIP3    H254182   5.172   4.192  13.216  0.5613  1.1417  0.8942
10923TIP3   OH254183   5.522   1.518   0.633  0.3834 -0.1997 -0.2209
10923TIP3    H154184   5.427   1.522   0.641  0.2493 -0.2913 -1.6774
10923TIP3    H254185   5.549   1.608   0.616  0.8812  0.3716  3.3415
10924TIP3   OH254186   5.829   0.622  17.123 -0.2393  0.3219 -0.1219
10924TIP3    H154187   5.879   0.702  17.106 -1.2904  0.7101 -1.4806
10924TIP3    H254188   5.800   0.631  17.214 -1.0812  1.9184 -0.5196
10925TIP3   OH254189   4.523   0.171  13.407 -0.0077  0.1648 -0.3022
10925TIP3    H154190   4.466   0.237  13.448 -0.6170 -0.3747 -0.2717
10925TIP3    H254191   4.471   0.091  13.409  0.9532 -0.4480  0.1801
10926TIP3   OH254192   6.020   4.826   6.586  0.1508 -0.4911  0.0611
10926TIP3    H154193   6.031   4.733   6.569 -1.5833 -0.9763  1.3938
10926TIP3    H254194   6.015   4.867   6.500  0.2582 -1.7172 -0.5273
10927TIP3   OH254195   0.668   2.173  16.324 -0.5448  0.5610  0.3592
10927TIP3    H154196   0.689   2.129  16.242 -1.1576 -0.0438  0.5257
10927TIP3    H254197   0.573   2.164  16.333 -0.7394  2.2404  0.2071
10928TIP3   OH254198   3.176   5.184  13.486  0.0279  0.0785  0.1127
10928TIP3    H154199   3.173   5.239  13.564  1.4032  1.6811 -0.9237
10928TIP3    H254200   3.088   5.189  13.450 -0.5971 -0.6010  1.4928
10929TIP3   OH254201   3.407   5.571  15.969  0.4187 -0.4578 -0.3382
10929TIP3    H154202   3.448   5.491  16.002 -1.3749 -0.5844  1.6153
10929TIP3    H254203   3.380   5.619  16.047 -0.1249  1.2436 -1.5353
10930TIP3   OH254204   0.914   3.968   2.137  0.0878 -0.2834  0.5094
10930TIP3    H154205   0.892   3.913   2.062  1.3546 -1.9467  1.3299
10930TIP3    H254206   0.831   3.978   2.184 -0.5686  0.2075 -0.7367
10931TIP3   OH254207   2.670   4.994   1.463  0.5331  1.1718  0.0069
10931TIP3    H154208   2.683   5.045   1.543 -1.2195  0.9450  0.4563
10931TIP3    H254209   2.663   4.903   1.493 -0.7036  1.1453 -0.3194
10932TIP3   OH254210   6.061   5.843  12.605  0.1470 -0.3703 -0.0118
10932TIP3    H154211   6.098   5.755  12.618 -1.3587 -0.6252  3.1032
10932TIP3    H254212   6.138   5.899  12.596  1.1350 -2.0016 -2.2624
10933TIP3   OH254213   0.702   2.661  15.695 -0.1145 -0.3824  0.0979
10933TIP3    H154214   0.696   2.613  15.612 -1.1985 -2.3273  1.2614
10933TIP3    H254215   0.747   2.600  15.754  1.1575  1.2016  0.8011
10934TIP3   OH254216   3.826   3.004  17.052  0.3819  0.5316 -0.4973
10934TIP3    H154217   3.914   3.037  17.073  0.3702 -0.2242  0.8069
10934TIP3    H254218   3.804   2.946  17.125 -1.2888  0.8619 -0.7107
10935TIP3   OH254219   4.624   0.526  10.990 -0.8430  0.2311  0.1290
10935TIP3    H154220   4.584   0.505  10.906  0.8155 -0.4573 -0.4889
10935TIP3    H254221   4.695   0.586  10.969 -0.4030  0.0353  1.0434
10936TIP3   OH254222   5.871   3.141   3.951 -0.2184  0.1390 -0.2904
10936TIP3    H154223   5.836   3.085   3.881 -0.7945  2.0589 -1.5638
10936TIP3    H254224   5.925   3.082   4.004 -1.3091 -1.7570 -1.2405
10937TIP3   OH254225   4.979   5.426  13.219 -0.1752  0.6294  0.1941
10937TIP3    H154226   4.931   5.350  13.187 -2.2600  2.1937 -0.4201
10937TIP3    H254227   4.962   5.427  13.313  0.0569  0.2097  0.2421
10938TIP3   OH254228   3.591   2.355  13.177  0.3609 -0.4800 -0.2139
10938TIP3    H154229   3.505   2.327  13.209  1.1129 -0.5086  1.8889
10938TIP3    H254230   3.589   2.451  13.185  1.3235 -0.6072  2.1099
10939TIP3   OH254231   0.247   5.631  11.375 -0.6086 -0.1531  0.2220
10939TIP3    H154232   0.224   5.718  11.405 -1.6131 -0.9877  1.9373
10939TIP3    H254233   0.168   5.598  11.333 -0.8233 -0.9059  1.1878
10940TIP3   OH254234   4.427   5.709   1.384  0.2148 -0.3229  0.1086
10940TIP3    H154235   4.348   5.668   1.350  0.3849 -1.1731  0.7122
10940TIP3    H254236   4.497   5.645   1.364  0.5038 -0.2627  0.9277
10941TIP3   OH254237   3.485   0.233  11.759 -0.2606  0.1164 -0.0328
10941TIP3    H154238   3.566   0.277  11.786 -0.2960  1.3621 -1.8739
10941TIP3    H254239   3.426   0.244  11.833  1.0027 -0.1869  1.0476
10942TIP3   OH254240   0.341   6.236   6.433 -0.5475 -0.0143  0.0334
10942TIP3    H154241   0.339   6.309   6.496  0.4230 -0.9763  1.2013
10942TIP3    H254242   0.420   6.250   6.382 -1.3484  0.7793 -1.0101
10943TIP3   OH254243   0.934   5.039  11.755 -0.2063 -0.4239 -0.8403
10943TIP3    H154244   1.020   5.081  11.753 -0.6153  0.5934  1.3101
10943TIP3    H254245   0.872   5.111  11.763 -0.9271 -1.3350  3.0529
10944TIP3   OH254246   2.091   0.294   1.042  0.2398  0.3740  0.1872
10944TIP3    H154247   2.151   0.288   0.968 -0.1242  1.2502 -0.1801
10944TIP3    H254248   2.148   0.297   1.119  0.6672  1.1760 -0.1609
10945TIP3   OH254249   4.933   4.303  13.821  0.4509  0.1776  0.1358
10945TIP3    H154250   5.023   4.313  13.789  0.7752  0.5628  1.1410
10945TIP3    H254251   4.892   4.387  13.802  0.9886  0.8253  1.7869
10946TIP3   OH254252   6.536   4.538   5.486 -0.2753  0.0277 -0.4941
10946TIP3    H154253   6.529   4.505   5.576 -0.7615  2.0704  0.2481
10946TIP3    H254254   6.549   4.460   5.433 -0.6295 -1.2781  1.2843
10947TIP3   OH254255   5.950   1.320   0.331 -0.4916 -0.4297  0.1573
10947TIP3    H154256   5.954   1.246   0.270  1.1046 -1.5377  1.5770
10947TIP3    H254257   5.876   1.300   0.388  1.9356 -2.6664  2.6580
10948TIP3   OH254258   4.432   2.162  17.037 -0.0199 -0.6293  0.7949
10948TIP3    H154259   4.435   2.230  16.970  0.2980 -2.6562 -1.3305
10948TIP3    H254260   4.483   2.089  17.000  0.0681 -1.8587  3.1928
10949TIP3   OH254261   2.199   6.623  14.118 -0.0694  0.6210  0.0225
10949TIP3    H154262   2.205   6.586  14.206 -1.0014 -0.0887 -0.2070
10949TIP3    H254263   2.124   6.579  14.079  0.1448  1.1753 -1.0168
10950TIP3   OH254264   0.607   0.303   5.132  0.2192  0.0988 -0.6108
10950TIP3    H154265   0.670   0.370   5.105  0.4020 -0.1710 -0.8485
10950TIP3    H254266   0.650   0.220   5.112 -1.2251 -0.0768 -3.0619
10951TIP3   OH254267   0.928   2.977   3.649 -0.0846 -0.1556 -0.0401
10951TIP3    H154268   0.842   3.016   3.658  0.4034  0.8495  0.2956
10951TIP3    H254269   0.958   3.002   3.562  0.6709  1.1290  0.5759
10952TIP3   OH254270   4.969   1.451  12.132 -0.0095  0.4233 -0.1284
10952TIP3    H154271   4.907   1.463  12.204 -1.4517 -1.3890 -1.0621
10952TIP3    H254272   5.003   1.362  12.144  0.2401  0.3521 -1.3287
10953TIP3   OH254273   4.432   6.403   2.740 -0.6726 -0.2696  0.5165
10953TIP3    H154274   4.351   6.351   2.736 -0.9310  0.0638  1.2426
10953TIP3    H254275   4.402   6.493   2.736 -0.0253 -0.1793 -3.9277
10954TIP3   OH254276   2.928   2.442   4.783 -0.1764 -0.7666  0.2410
10954TIP3    H154277   2.882   2.475   4.860 -1.4179  0.4870 -1.0091
10954TIP3    H254278   2.883   2.482   4.709  1.6048 -1.1791 -1.1094
10955TIP3   OH254279   5.928   3.371  13.567 -0.0536 -0.0403 -0.0781
10955TIP3    H154280   6.010   3.341  13.528 -0.5915  0.3558 -1.5439
10955TIP3    H254281   5.955   3.444  13.624  0.8394 -1.1759  1.0039
10956TIP3   OH254282   1.533   4.759   5.325 -0.1049 -0.2557 -0.4197
10956TIP3    H154283   1.453   4.714   5.297  0.1946 -1.9768  1.3894
10956TIP3    H254284   1.575   4.697   5.385  1.9426  1.1614 -0.3692
10957TIP3   OH254285   3.492   6.393   3.716  0.2536 -0.6282 -0.1412
10957TIP3    H154286   3.450   6.476   3.691  1.5340 -0.0331 -0.4064
10957TIP3    H254287   3.586   6.412   3.709  0.5527 -2.1987 -0.5010
10958TIP3   OH254288   2.529   6.289  11.794 -0.3285 -0.0596 -0.0591
10958TIP3    H154289   2.514   6.370  11.744 -2.2302 -0.5010 -0.2042
10958TIP3    H254290   2.574   6.231  11.732 -1.6600 -0.1912 -0.9221
10959TIP3   OH254291   1.171   3.773  13.448 -0.2551  0.4348 -0.7959
10959TIP3    H154292   1.183   3.695  13.394 -1.8751  0.9304 -1.9122
10959TIP3    H254293   1.195   3.846  13.391 -0.4042  0.8632 -0.3147
10960TIP3   OH254294   2.680   4.125   0.038 -0.5697 -0.2321  0.4031
10960TIP3    H154295   2.734   4.049   0.060 -0.4920 -0.1038  0.6581
10960TIP3    H254296   2.627   4.141   0.117  1.5883  1.8477  1.4963
10961TIP3   OH254297   1.151   1.450  13.772  0.2005 -0.2239 -0.0312
10961TIP3    H154298   1.226   1.420  13.720  0.1101 -0.7897  0.1733
10961TIP3    H254299   1.155   1.399  13.853  0.2387  0.5311  0.4506
10962TIP3   OH254300   0.755   4.184   2.824 -0.4071  0.0969  0.1960
10962TIP3    H154301   0.728   4.190   2.732  0.6125  0.2859 -0.0949
10962TIP3    H254302   0.678   4.148   2.869 -2.0297  2.9240 -0.2002
10963TIP3   OH254303   2.992   4.932  12.661 -0.0466  0.0776  0.0850
10963TIP3    H154304   2.962   5.010  12.707  0.0729  0.8207 -1.0778
10963TIP3    H254305   2.912   4.889  12.632 -0.0699  1.4240 -1.9678
10964TIP3   OH254306   6.000   0.473   3.491 -0.7832  0.0152 -0.4024
10964TIP3    H154307   6.026   0.559   3.524 -1.4001  0.4522 -1.0433
10964TIP3    H254308   6.057   0.457   3.417 -1.3758  0.3402 -0.9305
10965TIP3   OH254309   3.960   5.424  12.704  0.0135 -0.1139  0.3133
10965TIP3    H154310   4.044   5.381  12.690 -0.2294 -0.4941  0.0268
10965TIP3    H254311   3.972   5.474  12.785  0.6210  0.1044  0.0876
10966TIP3   OH254312   0.671   5.625  12.884 -0.3226  0.1092  0.2933
10966TIP3    H154313   0.608   5.610  12.814  0.6592  0.9027 -0.7787
10966TIP3    H254314   0.745   5.667  12.841  1.2932 -1.5540  1.3794
10967TIP3   OH254315   3.181   3.656   2.291 -0.1164 -0.4187 -0.0338
10967TIP3    H154316   3.118   3.637   2.360 -0.9465 -1.2533 -1.0094
10967TIP3    H254317   3.167   3.587   2.226  1.9028 -0.7021 -0.1906
10968TIP3   OH254318   4.034   1.340   3.744  0.4230 -0.0466  0.4315
10968TIP3    H154319   4.047   1.293   3.827 -0.3701 -0.8262  0.1282
10968TIP3    H254320   4.088   1.418   3.752  1.8421 -1.0657  0.9182
10969TIP3   OH254321   6.280   5.153  13.085 -0.2197 -0.3384 -0.0455
10969TIP3    H154322   6.341   5.224  13.062 -1.4871  0.6238 -0.4628
10969TIP3    H254323   6.193   5.188  13.065 -0.8564 -2.0755 -0.4159
10970TIP3   OH254324   5.511   0.093  16.015  0.3625  0.5415  0.1094
10970TIP3    H154325   5.439   0.152  16.038 -0.3653 -0.5114  0.5956
10970TIP3    H254326   5.589   0.149  16.016 -0.3740  1.5841  0.1057
10971TIP3   OH254327   5.101   5.555   2.230 -0.4462 -0.3774  0.1360
10971TIP3    H154328   5.096   5.545   2.135 -1.1106 -1.7746  0.3136
10971TIP3    H254329   5.194   5.570   2.248 -0.4389  0.8166 -0.8044
10972TIP3   OH254330   4.932   4.081  14.781 -0.0129 -0.4994 -0.0900
10972TIP3    H154331   4.999   4.132  14.736 -0.2483  0.1404  0.2733
10972TIP3    H254332   4.931   4.116  14.870 -0.1456 -1.1717  0.1807
10973TIP3   OH254333   1.525   5.947  15.477  0.0888  0.1525  0.0868
10973TIP3    H154334   1.575   5.917  15.401 -0.9194  0.4653 -0.7130
10973TIP3    H254335   1.591   5.977  15.539  0.9374 -0.4069 -0.5404
10974TIP3   OH254336   6.734   4.663   0.814  0.0393  0.1602 -0.1855
10974TIP3    H154337   6.738   4.594   0.748 -1.0228  0.5559 -0.6751
10974TIP3    H254338   6.734   4.617   0.898  0.3033 -0.3836 -0.4854
10975TIP3   OH254339   0.036   1.361  15.225  0.1370 -0.3361 -0.6981
10975TIP3    H154340   0.041   1.452  15.198 -1.3236  0.3905  1.3951
10975TIP3    H254341   0.054   1.361  15.319 -0.8820 -2.0500 -0.4614
10976TIP3   OH254342   0.910   0.781  15.734 -0.4894 -0.6113  0.1624
10976TIP3    H154343   0.958   0.841  15.790  0.1991  0.5488 -1.6001
10976TIP3    H254344   0.838   0.748  15.788 -0.3189  1.0885  1.4497
10977TIP3   OH254345   2.997   5.712   3.955  0.2866  0.0074 -0.4558
10977TIP3    H154346   3.012   5.720   3.861 -1.2873 -2.3412 -0.9542
10977TIP3    H254347   2.901   5.712   3.964  0.4247  0.2731  1.1437
10978TIP3   OH254348   1.544   0.175  14.056 -0.0350 -0.0705  0.3495
10978TIP3    H154349   1.458   0.151  14.091  0.0935 -0.8803  0.1237
10978TIP3    H254350   1.588   0.220  14.128  0.0558 -1.3146  1.0852
10979TIP3   OH254351   3.464   2.505  11.990  0.0029  0.5166  0.0524
10979TIP3    H154352   3.523   2.573  11.957  3.2044 -2.0240  0.2483
10979TIP3    H254353   3.429   2.541  12.071  0.3497  2.5703 -0.6731
10980TIP3   OH254354   6.305   3.292   4.190  0.0856  0.0350  0.3776
10980TIP3    H154355   6.393   3.325   4.204  0.2532 -0.4588  0.5007
10980TIP3    H254356   6.291   3.296   4.096  0.4682 -0.4702  0.3001
10981TIP3   OH254357   0.520   5.835  13.621 -0.3581  0.2044  0.3783
10981TIP3    H154358   0.473   5.835  13.704  0.7268 -1.2465  0.9988
10981TIP3    H254359   0.544   5.744  13.607  1.1975  0.7404 -0.5593
10982TIP3   OH254360   6.479   2.277  15.196 -0.4813 -0.6710  0.6506
10982TIP3    H154361   6.563   2.285  15.243 -1.5300 -0.9425  2.6365
10982TIP3    H254362   6.450   2.188  15.217  0.5851 -2.0154 -3.2382
10983TIP3   OH254363   0.058   5.333   5.936  0.4309 -0.8367 -0.5924
10983TIP3    H154364   0.141   5.329   5.984  0.5776 -1.6106 -0.9108
10983TIP3    H254365  -0.006   5.294   5.994  0.0011  1.0512  0.2396
10984TIP3   OH254366   1.531   2.359  15.048  0.4370  0.3917  0.0104
10984TIP3    H154367   1.610   2.386  15.095  0.0581 -1.4051  1.7332
10984TIP3    H254368   1.463   2.418  15.080  1.0993  2.1829 -1.7439
10985TIP3   OH254369   4.690   3.496  15.912 -0.0049 -0.3215  0.4147
10985TIP3    H154370   4.639   3.442  15.851  0.1151 -0.2541  0.2548
10985TIP3    H254371   4.658   3.585  15.897  2.0795  0.1148 -1.6421
10986TIP3   OH254372   5.375   6.043   4.590 -0.3043 -0.3391 -0.2450
10986TIP3    H154373   5.414   6.126   4.564 -1.2286  0.0359 -0.4530
10986TIP3    H254374   5.406   5.980   4.524  0.9323 -0.2962  0.2979
10987TIP3   OH254375   0.331   6.665  14.337 -0.3984  0.3176  0.1379
10987TIP3    H154376   0.299   6.649  14.248 -1.2487  0.3833  0.4317
10987TIP3    H254377   0.264   6.629  14.394  1.4672 -2.2709  0.7609
10988TIP3   OH254378   6.625   1.867  15.457 -0.2741 -0.5095 -0.0375
10988TIP3    H154379   6.587   1.835  15.539 -1.3511 -1.1316 -0.7538
10988TIP3    H254380   6.715   1.891  15.479 -0.5008 -0.8391  1.2809
10989TIP3   OH254381   2.881   1.082  13.438  0.5708  0.0075  0.4088
10989TIP3    H154382   2.925   1.160  13.406 -0.9749  0.5813 -0.4059
10989TIP3    H254383   2.796   1.083  13.393  0.3643 -1.9024  0.7223
10990TIP3   OH254384   5.375   5.603  14.868 -0.0317  0.7807  0.3442
10990TIP3    H154385   5.406   5.536  14.929 -1.5420  0.8077  1.1472
10990TIP3    H254386   5.294   5.636  14.907 -1.3896  0.3224 -1.9876
10991TIP3   OH254387   0.131   1.452   0.145 -0.7386  0.3228 -0.4774
10991TIP3    H154388   0.166   1.399   0.074  1.1834 -0.0326  0.6936
10991TIP3    H254389   0.193   1.524   0.154  0.1573 -0.7148  2.1357
10992TIP3   OH254390   4.730   5.735  15.265 -0.1273  0.9497 -0.4207
10992TIP3    H154391   4.804   5.706  15.212  0.2415  1.4655 -0.1895
10992TIP3    H254392   4.734   5.831  15.262 -0.7944  0.9806 -0.4242
10993TIP3   OH254393   1.090   0.854  13.657 -0.0172  0.2833  0.4141
10993TIP3    H154394   1.000   0.856  13.687 -0.1307  1.5451  0.0320
10993TIP3    H254395   1.085   0.864  13.562  0.2975 -4.5634 -0.2187
10994TIP3   OH254396   6.530   1.821  14.021 -0.3205 -0.0437 -0.4411
10994TIP3    H154397   6.479   1.785  13.948 -2.4659  0.4654  0.7499
10994TIP3    H254398   6.532   1.750  14.086  1.6200 -0.5113 -0.9996
10995TIP3   OH254399   5.271   1.480  12.721 -0.0415  0.5818 -0.1881
10995TIP3    H154400   5.193   1.487  12.776  0.4465 -0.0209  0.5807
10995TIP3    H254401   5.237   1.454  12.635 -0.6555 -0.0821  0.2540
10996TIP3   OH254402   3.218   5.466   5.567 -0.0450 -0.3554 -0.0754
10996TIP3    H154403   3.251   5.450   5.478  1.0799 -1.5723  0.5472
10996TIP3    H254404   3.291   5.508   5.612 -0.7043  0.4878  0.2096
10997TIP3   OH254405   1.059   2.205   4.841 -0.0918  0.0293  0.5375
10997TIP3    H154406   1.154   2.207   4.833  0.0023  0.2950  1.6150
10997TIP3    H254407   1.029   2.166   4.759  1.0092 -1.2353  0.7080
10998TIP3   OH254408   5.375   3.621  12.612  0.3708  0.4861 -0.4527
10998TIP3    H154409   5.428   3.566  12.669  0.2175  1.1570  0.3479
10998TIP3    H254410   5.438   3.667  12.557  0.4490 -1.9788 -2.5778
10999TIP3   OH254411   0.063   1.685  17.167  0.0780 -0.4204 -0.5567
10999TIP3    H154412   0.049   1.771  17.129 -2.7420  0.2010  1.7510
10999TIP3    H254413   0.158   1.679  17.178  0.4713  1.5912 -2.4813
11000TIP3   OH254414   5.353   2.495  11.586 -0.1782  0.3267  0.9381
11000TIP3    H154415   5.381   2.408  11.614 -2.8013 -1.5112 -1.9281
11000TIP3    H254416   5.412   2.517  11.514 -0.9601 -0.0671  0.1756
11001TIP3   OH254417   0.229   2.322  12.177  0.1957 -0.0172  0.4759
11001TIP3    H154418   0.154   2.342  12.122  0.0002 -1.2369  0.2942
11001TIP3    H254419   0.236   2.226  12.176  0.5666 -0.0205  2.0660
11002TIP3   OH254420   4.447   3.479   1.745 -0.4350  0.4645 -0.1441
11002TIP3    H154421   4.426   3.402   1.693  0.2059  0.2453 -0.0866
11002TIP3    H254422   4.496   3.536   1.686  0.6790  0.0222  0.3288
11003TIP3   OH254423   6.623   3.614   3.698 -0.4789 -0.7893 -0.5271
11003TIP3    H154424   6.652   3.640   3.786 -1.8109  0.7557 -0.5273
11003TIP3    H254425   6.572   3.534   3.712  0.6781 -1.4692 -0.1031
11004TIP3   OH254426   3.925   4.685   4.333  0.6819  0.2359 -0.1710
11004TIP3    H154427   3.850   4.639   4.294 -1.0132  1.7590  1.1740
11004TIP3    H254428   3.959   4.624   4.399  0.6774 -0.4842 -0.8224
11005TIP3   OH254429   3.953   3.125   4.933  0.1083 -0.3579  0.3974
11005TIP3    H154430   4.036   3.122   4.981 -0.0721  0.2278  0.7598
11005TIP3    H254431   3.978   3.132   4.841  0.4600 -1.0370  0.4430
11006TIP3   OH254432   3.213   2.624   3.757 -0.3306 -0.3095  0.3833
11006TIP3    H154433   3.201   2.612   3.662 -0.4369  1.0408  0.2122
11006TIP3    H254434   3.279   2.560   3.781  1.8023  1.2458 -1.1439
11007TIP3   OH254435   1.830   6.190   3.825 -0.1793  0.4855  0.3081
11007TIP3    H154436   1.825   6.280   3.793  2.1024  0.8211  0.8016
11007TIP3    H254437   1.922   6.178   3.848 -0.4493 -1.9810  0.2552
11008TIP3   OH254438   6.335   3.316   1.799 -0.0893  0.1360  0.2376
11008TIP3    H154439   6.333   3.307   1.894 -1.0602 -0.6087  0.1560
11008TIP3    H254440   6.244   3.305   1.771  0.4317 -1.4736 -0.9217
11009TIP3   OH254441   6.156   1.746   0.808  0.7794 -0.0266 -0.0297
11009TIP3    H154442   6.103   1.765   0.731 -0.4480  0.1185  0.8330
11009TIP3    H254443   6.226   1.810   0.806 -1.3498  2.4211  0.9852
11010TIP3   OH254444   6.243   1.847  13.176  0.3121  0.1957 -0.5826
11010TIP3    H154445   6.257   1.862  13.083  2.0048  0.3055 -0.3216
11010TIP3    H254446   6.311   1.899  13.219 -1.0541  0.9248  0.7551
11011TIP3   OH254447   3.502   4.661   1.769 -1.0203  0.0377  0.2221
11011TIP3    H154448   3.570   4.718   1.803  0.2796 -0.1389 -1.9528
11011TIP3    H254449   3.500   4.586   1.828  0.8668 -0.0702  0.1705
11012TIP3   OH254450   4.949   1.625  11.600  0.4510 -0.1911  0.6573
11012TIP3    H154451   4.980   1.595  11.686  0.4412  1.4968  1.2748
11012TIP3    H254452   4.921   1.545  11.555 -0.4459 -0.9900  2.5898
11013TIP3   OH254453   1.897   0.517   5.747  0.6686  0.2023  0.2001
11013TIP3    H154454   1.960   0.585   5.724  0.1830  1.0186  1.2203
11013TIP3    H254455   1.926   0.440   5.699  0.8409  1.3027 -1.4998
11014TIP3   OH254456   1.422   3.677  16.012 -0.0701  0.2373  0.0961
11014TIP3    H154457   1.480   3.634  16.074  1.1825  0.2703 -1.0284
11014TIP3    H254458   1.411   3.613  15.941 -1.7853  0.0507  0.5103
11015TIP3   OH254459   4.351   6.449   0.810  0.5093 -0.4839  0.3869
11015TIP3    H154460   4.372   6.414   0.897 -1.2755  0.9045  1.4248
11015TIP3    H254461   4.375   6.541   0.815 -0.4574 -0.1886 -0.2715
11016TIP3   OH254462   1.602   5.180  16.187  0.4047  0.7009  0.1147
11016TIP3    H154463   1.638   5.259  16.148  0.7854  1.0190  1.1061
11016TIP3    H254464   1.677   5.139  16.231  0.2729 -0.3483 -0.6091
11017TIP3   OH254465   5.718   5.225  10.882  0.0853  0.3915 -0.3716
11017TIP3    H154466   5.773   5.157  10.921  0.0872  0.6059  0.0012
11017TIP3    H254467   5.630   5.187  10.880  0.4085 -0.3043 -1.8155
11018TIP3   OH254468   0.981   5.930   3.939  0.2877  0.5804  0.1908
11018TIP3    H154469   1.027   5.854   3.903  0.1375  0.7067 -0.2753
11018TIP3    H254470   0.988   5.921   4.034 -0.3594 -0.4009  0.1503
11019TIP3   OH254471   0.231   2.640  14.644  0.3096  0.3493 -0.4434
11019TIP3    H154472   0.222   2.551  14.610  2.0426  0.5205 -1.4352
11019TIP3    H254473   0.203   2.633  14.735  0.4834 -1.2420 -0.4848
11020TIP3   OH254474   2.450   1.863   1.002  0.1509 -0.2171  0.5939
11020TIP3    H154475   2.505   1.938   1.022 -0.3510  0.4470 -0.4872
11020TIP3    H254476   2.512   1.792   0.983  0.6347  0.3669 -0.0245
11021TIP3   OH254477   2.728   3.099   0.335 -0.4784 -0.2163  0.2355
11021TIP3    H154478   2.694   3.136   0.417  1.3174 -0.9624  1.3462
11021TIP3    H254479   2.756   3.011   0.359  1.2343  0.0049 -0.8841
11022TIP3   OH254480   6.074   3.198  16.023 -0.3616 -0.3106  0.3661
11022TIP3    H154481   6.021   3.137  15.972 -2.1216  0.8756  0.7525
11022TIP3    H254482   6.164   3.173  16.002 -1.0016  0.4688 -3.7535
11023TIP3   OH254483   5.305   0.537   3.842 -0.5807 -0.2215 -0.3515
11023TIP3    H154484   5.251   0.592   3.785  0.4402  2.1636  0.8984
11023TIP3    H254485   5.242   0.491   3.898 -1.4085  0.7568 -0.4736
11024TIP3   OH254486   5.310   0.298  14.837 -0.0877 -0.1347  0.1401
11024TIP3    H154487   5.293   0.210  14.804  0.8184  0.8251 -3.0588
11024TIP3    H254488   5.222   0.334  14.853 -0.5746 -0.5623 -1.4800
11025TIP3   OH254489   5.412   3.846   2.612  0.0355 -0.4672 -0.1348
11025TIP3    H154490   5.403   3.873   2.703 -0.0450 -1.4395  0.1564
11025TIP3    H254491   5.395   3.925   2.561  0.2073  0.1105  0.6959
11026TIP3   OH254492   4.956   4.033  12.391 -0.0773  0.4541  0.4122
11026TIP3    H154493   4.957   4.104  12.455 -1.3529  1.7307 -0.9190
11026TIP3    H254494   4.908   3.962  12.434 -1.5180  1.5431  0.6701
11027TIP3   OH254495   0.660   5.661  14.948 -0.3931 -0.4360 -0.2487
11027TIP3    H154496   0.575   5.668  14.904  1.1643 -1.0782 -3.5011
11027TIP3    H254497   0.664   5.738  15.004 -2.8022  0.0149 -0.6365
11028TIP3   OH254498   6.548   0.356  14.443 -0.5066 -0.3278 -0.3626
11028TIP3    H154499   6.466   0.333  14.401 -0.7335  0.8091 -0.5694
11028TIP3    H254500   6.592   0.414  14.381  0.9443 -1.7439 -0.7176
11029TIP3   OH254501   5.758   5.333   1.519 -0.4279  0.1759  0.2654
11029TIP3    H154502   5.824   5.358   1.583 -0.8929  2.5180 -0.1122
11029TIP3    H254503   5.683   5.390   1.538 -1.0866 -0.0699 -1.4466
11030TIP3   OH254504   0.236   2.646  13.739 -0.3010 -0.0819  0.1026
11030TIP3    H154505   0.275   2.726  13.703 -0.4761 -0.1722 -0.2982
11030TIP3    H254506   0.306   2.581  13.736 -0.9298 -0.7031 -2.1747
11031TIP3   OH254507   6.696   4.919   3.112  0.5359  0.4299 -0.1148
11031TIP3    H154508   6.635   4.979   3.069 -0.9011 -0.4562  0.6576
11031TIP3    H254509   6.685   4.836   3.066  0.4903  0.0283  0.6120
11032TIP3   OH254510   6.197   0.367   1.262 -1.0551 -0.4324  0.1731
11032TIP3    H154511   6.277   0.323   1.232 -1.1716 -0.7431  0.3175
11032TIP3    H254512   6.136   0.296   1.280 -1.0395 -0.2496  0.9877
11033TIP3   OH254513   1.749   1.505   1.206  0.8599 -0.2607 -0.5014
11033TIP3    H154514   1.795   1.433   1.250  0.9194  0.6738  0.9947
11033TIP3    H254515   1.743   1.574   1.272  2.8579  2.0289 -2.6056
11034TIP3   OH254516   2.947   0.757   4.098 -0.0475  0.5110 -0.0870
11034TIP3    H154517   2.966   0.805   4.179  0.5392  1.8722 -1.0180
11034TIP3    H254518   2.927   0.824   4.033  0.3420 -0.5148 -1.3038
11035TIP3   OH254519   2.541   1.211   3.565  0.0443  0.1557 -0.1998
11035TIP3    H154520   2.503   1.128   3.592  2.4901 -0.1856  2.4596
11035TIP3    H254521   2.588   1.192   3.484 -0.0420 -0.8788 -0.0098
11036TIP3   OH254522   5.938   1.409   4.026  0.0233 -0.0665  0.3403
11036TIP3    H154523   6.005   1.367   4.080  2.2895  0.1311 -2.1979
11036TIP3    H254524   5.856   1.396   4.074  1.6493 -1.6578  2.7798
11037TIP3   OH254525   6.310   1.097   2.011  0.0564 -0.1014 -0.1222
11037TIP3    H154526   6.279   1.167   2.067  0.3661 -0.6838  0.7869
11037TIP3    H254527   6.287   1.017   2.058 -2.2909 -0.6973 -2.1629
11038TIP3   OH254528   3.411   4.159  10.958 -0.2796  0.6762  0.7805
11038TIP3    H154529   3.470   4.131  11.028 -1.3286 -0.1689  1.3473
11038TIP3    H254530   3.464   4.155  10.878  0.2286 -0.7783  1.1758
11039TIP3   OH254531   5.491   6.597   3.712 -0.3486  0.9001  0.2097
11039TIP3    H154532   5.509   6.532   3.780  0.4768 -0.1722 -1.0219
11039TIP3    H254533   5.553   6.668   3.730 -0.4162  0.8047  0.8264
11040TIP3   OH254534   4.803   1.044   0.174 -0.1859 -0.5712 -0.2475
11040TIP3    H154535   4.872   1.038   0.240  0.6231  0.8121 -0.9312
11040TIP3    H254536   4.728   1.078   0.221  0.1480 -0.3568  0.1343
11041TIP3   OH254537   0.599   4.242   4.068  0.2481  0.5204  0.3023
11041TIP3    H154538   0.588   4.201   4.154  1.3296 -1.0015 -0.2629
11041TIP3    H254539   0.693   4.260   4.062  0.0688  1.2930 -0.2682
11042TIP3   OH254540   5.856   0.916  14.014 -0.6779  0.2004  0.2987
11042TIP3    H154541   5.950   0.920  14.029 -0.7365 -0.3697  0.8004
11042TIP3    H254542   5.848   0.909  13.919 -0.2995  2.9270  0.0260
11043TIP3   OH254543   5.870   5.839   5.959  0.4409 -0.2395 -0.1961
11043TIP3    H154544   5.889   5.827   5.866  0.4792  1.3956 -0.4260
11043TIP3    H254545   5.834   5.928   5.964  0.4023 -0.3367  1.3436
11044TIP3   OH254546   5.365   6.095   2.656 -0.2704 -0.5840  0.7555
11044TIP3    H154547   5.386   6.095   2.749 -0.8198  0.6683  0.8909
11044TIP3    H254548   5.393   6.181   2.625  1.6800 -1.6751 -0.6497
11045TIP3   OH254549   3.857   6.018  12.738  0.0107 -0.3411 -0.1333
11045TIP3    H154550   3.910   5.940  12.721 -0.3550 -1.0798  1.9403
11045TIP3    H254551   3.774   6.000  12.695 -0.2834 -1.3828  0.8492
11046TIP3   OH254552   3.423   5.059  13.353  0.2613  0.1673  0.1180
11046TIP3    H154553   3.351   5.070  13.414  0.8141  0.9260  0.6353
11046TIP3    H254554   3.391   4.995  13.289 -1.8484  2.4117 -1.1609
11047TIP3   OH254555   1.766   6.448   6.015 -0.1875 -0.3527  0.4998
11047TIP3    H154556   1.693   6.509   6.016 -0.0920 -0.1781 -1.4448
11047TIP3    H254557   1.843   6.502   6.034 -0.1574  0.0589 -0.7817
11048TIP3   OH254558   1.916   6.434  16.623 -0.0300 -0.0165  0.0547
11048TIP3    H154559   1.897   6.527  16.632  1.5592  0.1951  1.6666
11048TIP3    H254560   2.004   6.431  16.584  1.9809 -0.6929  4.3085
11049TIP3   OH254561   2.467   1.111  11.501  0.0828 -0.1412  0.4011
11049TIP3    H154562   2.520   1.091  11.423 -0.5390 -1.3166  0.2829
11049TIP3    H254563   2.531   1.140  11.566  0.7329 -0.2827 -0.1705
11050TIP3   OH254564   5.040   6.752  11.059 -0.3323  0.1139  0.3073
11050TIP3    H154565   4.951   6.722  11.040  0.4023 -0.6686 -2.1519
11050TIP3    H254566   5.092   6.672  11.059  0.7406  0.8061 -0.6572
11051TIP3   OH254567   3.063   4.520  11.730  0.3292  0.5954 -0.0297
11051TIP3    H154568   3.095   4.444  11.683  1.1694  0.3202  0.9572
11051TIP3    H254569   2.989   4.552  11.678  0.5507 -0.3420 -0.9280
11052TIP3   OH254570   5.336   2.032  12.794 -0.1691 -0.7369  0.0236
11052TIP3    H154571   5.343   1.937  12.801  1.3206 -0.5196  1.7009
11052TIP3    H254572   5.427   2.063  12.792 -0.6385  0.6670 -0.5228
11053TIP3   OH254573   2.423   5.488  11.064 -0.6164 -0.3051  0.1229
11053TIP3    H154574   2.505   5.462  11.105  0.7474  0.8673 -1.7950
11053TIP3    H254575   2.400   5.414  11.007  0.2955  0.2956 -1.0374
11054TIP3   OH254576   2.830   5.152  17.057 -0.0418  0.6803 -0.0611
11054TIP3    H154577   2.823   5.195  17.142  0.6921  0.4257  0.1377
11054TIP3    H254578   2.766   5.081  17.060 -2.0928  2.4799 -0.8411
11055TIP3   OH254579   3.845   0.684  13.959 -0.6714 -0.2138  0.0087
11055TIP3    H154580   3.803   0.691  13.873  0.4494 -1.9876 -0.7036
11055TIP3    H254581   3.808   0.756  14.009 -0.3249  1.7116 -2.3948
11056TIP3   OH254582   1.112   5.610  13.269 -0.1864  0.0177  0.3878
11056TIP3    H154583   1.065   5.530  13.293  0.1194 -0.1854  0.3180
11056TIP3    H254584   1.050   5.681  13.286 -0.9926 -0.3450 -0.9372
11057TIP3   OH254585   5.290   1.073  16.262 -0.0036  0.0910 -0.4314
11057TIP3    H154586   5.242   1.116  16.333  1.0173 -0.8698  0.8795
11057TIP3    H254587   5.380   1.101  16.274  0.1657 -0.0223 -1.4140
11058TIP3   OH254588   6.070   5.133   4.799  0.2253 -0.1948 -0.5301
11058TIP3    H154589   6.023   5.194   4.742  1.9179  0.2617 -1.4734
11058TIP3    H254590   6.154   5.119   4.755  0.3131 -2.3266  0.2609
11059TIP3   OH254591   2.992   1.614  13.330  0.3601  0.2756 -0.6626
11059TIP3    H154592   3.070   1.650  13.288 -0.2283 -0.4627 -2.4590
11059TIP3    H254593   2.933   1.688  13.341  2.3460  1.3727  3.2367
11060TIP3   OH254594   1.859   3.669  11.020 -0.5293 -0.2151 -0.2626
11060TIP3    H154595   1.801   3.663  10.944 -0.1230 -0.4661 -0.5584
11060TIP3    H254596   1.800   3.684  11.094 -0.7975  1.8342 -0.8579
11061TIP3   OH254597   1.379   1.964  11.270 -0.1996 -0.0604 -0.1408
11061TIP3    H154598   1.293   1.986  11.306 -1.2102 -0.5999 -2.1610
11061TIP3    H254599   1.367   1.967  11.175  2.5126  1.7749 -0.4920
11062TIP3   OH254600   4.880   6.493  10.946  0.2312  0.4473  0.5345
11062TIP3    H154601   4.809   6.447  10.901  0.5491  0.6014 -0.1245
11062TIP3    H254602   4.835   6.556  11.003 -0.1731  0.1536  0.5381
11063TIP3   OH254603   5.258   3.063   5.309 -0.3970 -0.2522  0.3990
11063TIP3    H154604   5.223   3.063   5.398  1.5302 -0.8434  1.1955
11063TIP3    H254605   5.340   3.015   5.316 -0.0117  0.0591 -1.6270
11064TIP3   OH254606   2.458   1.343   0.115  0.0629  0.3754  0.3269
11064TIP3    H154607   2.520   1.350   0.188 -1.7449  0.9466  1.8342
11064TIP3    H254608   2.372   1.337   0.157 -0.7936 -2.1560 -1.6875
11065TIP3   OH254609   6.121   3.040  15.777 -0.2574  0.5372 -0.0781
11065TIP3    H154610   6.131   3.114  15.718  1.0050  1.7725  1.6410
11065TIP3    H254611   6.199   3.042  15.833 -0.7405 -1.4166  0.7350
11066TIP3   OH254612   4.904   2.964   0.020 -0.4108  0.5914  0.3595
11066TIP3    H154613   4.880   3.028  -0.047  1.4137 -0.7007 -1.5635
11066TIP3    H254614   4.870   2.881  -0.013 -0.3199  0.0866  1.5078
11067TIP3   OH254615   0.495   4.686   5.621 -0.1881 -0.5579 -0.1752
11067TIP3    H154616   0.502   4.629   5.544 -0.8705  0.6399 -1.1442
11067TIP3    H254617   0.460   4.768   5.587 -2.2500 -0.6206  1.7188
11068TIP3   OH254618   6.693   2.140  14.242 -0.4125  0.1512  0.2286
11068TIP3    H154619   6.684   2.105  14.330 -0.8518  0.4872  0.3231
11068TIP3    H254620   6.709   2.234  14.255  1.2790 -0.0944 -0.0015
11069TIP3   OH254621   3.513   2.468   2.236  0.1379  0.1277  0.1677
11069TIP3    H154622   3.432   2.419   2.251  0.4447 -0.0309  1.3401
11069TIP3    H254623   3.571   2.405   2.194 -0.9041  0.7253 -2.2270
11070TIP3   OH254624   1.050   0.438   3.653 -0.8758  0.7547 -0.0246
11070TIP3    H154625   1.034   0.435   3.559  0.0939  0.1765 -0.1775
11070TIP3    H254626   1.088   0.353   3.674  1.5582  1.9046  0.3857
11071TIP3   OH254627   2.584   4.350   5.359 -0.0078 -1.0993 -0.4234
11071TIP3    H154628   2.552   4.334   5.448 -0.7246  1.6174 -0.1460
11071TIP3    H254629   2.679   4.341   5.367 -0.0772 -1.0332  0.6021
11072TIP3   OH254630   4.942   3.059   4.891  0.3398 -1.2237 -0.5979
11072TIP3    H154631   4.913   3.142   4.928 -1.7510 -1.2959 -1.9923
11072TIP3    H254632   5.013   3.030   4.948 -0.1455  0.6096  0.9633
11073TIP3   OH254633   6.418   1.334   2.475 -0.3128 -0.1298  0.2672
11073TIP3    H154634   6.393   1.366   2.389 -0.6232 -1.0362  0.0177
11073TIP3    H254635   6.449   1.245   2.460  0.3999 -0.0175  0.9788
11074TIP3   OH254636   5.853   3.237   3.154  0.1523  0.2835  0.4975
11074TIP3    H154637   5.800   3.158   3.165  0.8477 -0.2790 -0.1858
11074TIP3    H254638   5.942   3.205   3.141  0.2778  1.1409 -0.8269
11075TIP3   OH254639   2.354   3.374  14.405  0.2349 -0.1749  0.1822
11075TIP3    H154640   2.284   3.432  14.438  1.7275  1.8476 -0.0979
11075TIP3    H254641   2.435   3.414  14.436  1.3061 -2.3949  0.3435
11076TIP3   OH254642   5.172   0.401   6.328 -0.0925  0.4719  0.0410
11076TIP3    H154643   5.102   0.343   6.299 -0.7538  1.5260 -0.5075
11076TIP3    H254644   5.168   0.397   6.423 -2.3247  2.1645  0.0636
11077TIP3   OH254645   1.637   2.778   1.821 -0.1171  0.1168  0.6749
11077TIP3    H154646   1.704   2.770   1.754 -0.4253 -2.1095  0.5944
11077TIP3    H254647   1.642   2.869   1.850  1.2844  0.5948 -1.0267
11078TIP3   OH254648   6.766   0.270   1.372 -0.0797  0.5829  0.1651
11078TIP3    H154649   6.805   0.342   1.421  2.2266 -0.4718 -0.0332
11078TIP3    H254650   6.792   0.286   1.281 -1.1792  0.5120 -0.1718
11079TIP3   OH254651   0.326   1.952   4.516  0.2850  0.4026 -0.6230
11079TIP3    H154652   0.233   1.966   4.503  0.2481  0.2914 -0.4876
11079TIP3    H254653   0.362   1.939   4.428  0.1996  0.6063 -0.6874
11080TIP3   OH254654   0.950   5.089   4.706  0.1367 -0.5968 -0.7703
11080TIP3    H154655   0.967   5.134   4.624  1.3834 -0.6921 -0.5772
11080TIP3    H254656   0.943   4.997   4.682  2.8889 -0.9264 -0.4905
11081TIP3   OH254657   2.715   4.700  16.244 -0.0636  0.1075 -0.7820
11081TIP3    H154658   2.745   4.787  16.216  0.1216  0.4331  0.3986
11081TIP3    H254659   2.621   4.711  16.258  0.1967  0.4943  0.7324
11082TIP3   OH254660   0.230   6.062   6.278 -0.0217 -0.1619 -0.1892
11082TIP3    H154661   0.196   5.988   6.328  1.1659  0.3686  1.4232
11082TIP3    H254662   0.264   6.123   6.343 -0.3409  1.5078 -1.5283
11083TIP3   OH254663   1.347   2.115   0.502  0.3531  0.1327  0.0010
11083TIP3    H154664   1.312   2.171   0.571 -1.4425 -0.8138 -0.0891
11083TIP3    H254665   1.423   2.072   0.541 -0.5446 -0.2602  1.3477
11084TIP3   OH254666   1.240   2.501   4.603 -0.1408  0.3468 -0.4208
11084TIP3    H154667   1.307   2.487   4.536  0.1022  1.9958 -0.5366
11084TIP3    H254668   1.282   2.473   4.684 -0.4600 -1.7264 -0.9362
11085TIP3   OH254669   0.682   2.645  16.530 -0.0369 -0.5946 -0.0507
11085TIP3    H154670   0.683   2.566  16.475 -0.0273  0.8668 -2.2196
11085TIP3    H254671   0.681   2.718  16.467 -2.2507  1.1242  1.8945
11086TIP3   OH254672   4.474   3.143  10.865  0.1738  0.3996 -0.1743
11086TIP3    H154673   4.527   3.098  10.799  0.9223  0.3915  0.4218
11086TIP3    H254674   4.414   3.076  10.898 -0.1457  0.3826 -0.7814
11087TIP3   OH254675   0.381   3.570  14.606 -0.0048  0.1673 -0.2575
11087TIP3    H154676   0.445   3.504  14.633 -0.4579 -0.3236 -0.4005
11087TIP3    H254677   0.431   3.630  14.550  0.6253  0.4590  0.6034
11088TIP3   OH254678   2.550   5.805  14.739  0.0981  0.2815 -0.1977
11088TIP3    H154679   2.572   5.860  14.664 -2.1568  2.3573  0.6107
11088TIP3    H254680   2.468   5.763  14.714 -0.3900  0.5794  0.8892
11089TIP3   OH254681   0.151   3.399  16.236 -0.1860 -0.1822 -0.0279
11089TIP3    H154682   0.207   3.433  16.166  0.7328 -0.5408  0.5237
11089TIP3    H254683   0.181   3.309  16.249 -0.1359 -0.0141  1.0397
11090TIP3   OH254684   0.415   6.622  16.759  0.6226  0.3210 -0.3732
11090TIP3    H154685   0.387   6.713  16.775 -1.6093 -0.5392  0.7873
11090TIP3    H254686   0.437   6.589  16.845 -2.0786 -1.3327 -0.2553
11091TIP3   OH254687   5.327   4.994   0.002 -0.0311  0.4389  0.2643
11091TIP3    H154688   5.398   4.954   0.052 -1.3151 -2.2742  0.0251
11091TIP3    H254689   5.250   4.940   0.023 -0.9175  0.1135 -3.4490
11092TIP3   OH254690   1.788   3.494   5.733 -0.1873  0.3820  0.3800
11092TIP3    H154691   1.731   3.512   5.808  1.0334 -1.0558  1.6965
11092TIP3    H254692   1.875   3.521   5.763  0.8835 -3.2333  0.7218
11093TIP3   OH254693   6.168   2.309  12.526 -0.0491  0.3012 -0.1916
11093TIP3    H154694   6.164   2.384  12.586 -0.3901 -0.7484  1.1289
11093TIP3    H254695   6.237   2.253  12.562  2.2050  1.3199 -2.7845
11094TIP3   OH254696   2.449   4.467   3.226 -0.1659  0.2494  0.1545
11094TIP3    H154697   2.490   4.438   3.308  0.7811  2.6495  0.5546
11094TIP3    H254698   2.522   4.490   3.169 -0.7541 -3.0267 -2.0433
11095TIP3   OH254699   1.302   4.327   4.351  0.2861 -0.0241 -0.7544
11095TIP3    H154700   1.389   4.329   4.390  1.0520 -1.7715 -2.3210
11095TIP3    H254701   1.275   4.419   4.349  1.0661  0.3215  1.9090
11096TIP3   OH254702   3.764   4.589   1.982  0.1976 -0.1748 -0.2602
11096TIP3    H154703   3.855   4.565   1.963 -0.2924 -1.1442 -1.3914
11096TIP3    H254704   3.767   4.619   2.073  1.5240 -0.9299 -0.0283
11097TIP3   OH254705   0.181   1.247   2.387  0.3350  0.8116  0.0328
11097TIP3    H154706   0.264   1.212   2.418 -0.0526 -1.1083 -1.0068
11097TIP3    H254707   0.125   1.250   2.464  0.3601 -0.9550  0.1216
11098TIP3   OH254708   1.549   6.537   1.458 -0.0716  0.1187  0.4142
11098TIP3    H154709   1.594   6.462   1.496 -0.7003  0.1489  1.2300
11098TIP3    H254710   1.462   6.504   1.437 -0.0843  0.4048  0.0050
11099TIP3   OH254711   3.747   6.785   0.462 -0.5489 -0.1432  0.7139
11099TIP3    H154712   3.761   6.691   0.471 -1.2259 -0.3251 -0.0243
11099TIP3    H254713   3.721   6.797   0.371  0.1680  0.8452  0.6247
11100TIP3   OH254714   4.107   2.392   4.262  0.6479 -0.5438  0.2405
11100TIP3    H154715   4.088   2.456   4.194  0.7261  0.1252  0.8439
11100TIP3    H254716   4.084   2.308   4.223  1.2948 -0.2269 -0.8351
11101TIP3   OH254717   5.312   1.358  13.273 -0.4794  0.0186  0.2078
11101TIP3    H154718   5.327   1.445  13.237  1.0587 -0.0454  0.6884
11101TIP3    H254719   5.311   1.300  13.197  2.0393 -0.0187  0.1885
11102TIP3   OH254720   1.632   2.692   1.002 -0.4388  0.3669 -0.2528
11102TIP3    H154721   1.579   2.618   1.030  1.0765 -1.2740 -1.5998
11102TIP3    H254722   1.589   2.725   0.923 -0.0634 -0.3083 -0.7480
11103TIP3   OH254723   5.540   0.804  12.137  0.2507  0.1185 -0.3067
11103TIP3    H154724   5.609   0.783  12.200 -0.0140  0.8946  0.2568
11103TIP3    H254725   5.586   0.826  12.056  0.6704  0.7398  0.1028
11104TIP3   OH254726   2.434   6.542  16.302  0.0925 -0.0866 -0.4963
11104TIP3    H154727   2.381   6.621  16.313  0.6697  0.1647  0.5035
11104TIP3    H254728   2.398   6.500  16.224  0.3356  1.5934 -1.5332
11105TIP3   OH254729   3.247   4.500  15.880  0.1202 -0.7267  0.1914
11105TIP3    H154730   3.286   4.431  15.827 -0.9909 -1.5617  0.4283
11105TIP3    H254731   3.309   4.515  15.951  0.5606 -1.1971 -0.0970
11106TIP3   OH254732   0.348   2.837   3.768 -0.7514 -0.4674  0.3891
11106TIP3    H154733   0.348   2.825   3.863 -1.6909 -0.2116  0.4245
11106TIP3    H254734   0.277   2.900   3.752 -0.9145 -0.8832 -0.5274
11107TIP3   OH254735   2.861   1.539   0.763 -0.7090  0.1651  0.0110
11107TIP3    H154736   2.912   1.483   0.705 -1.2487 -1.7661  1.3401
11107TIP3    H254737   2.924   1.599   0.802 -0.3347  1.4262 -2.4863
11108TIP3   OH254738   1.377   0.982   3.383  0.2749  0.1141  0.0269
11108TIP3    H154739   1.386   1.072   3.414 -1.1400  0.5287 -0.7131
11108TIP3    H254740   1.319   0.988   3.307 -0.2911 -1.4811  0.2928
11109TIP3   OH254741   3.436   3.430   5.321 -0.4241 -0.0552  0.0573
11109TIP3    H154742   3.455   3.409   5.230 -0.5851 -1.3244  0.3105
11109TIP3    H254743   3.344   3.456   5.321 -0.6776 -0.9451  0.0039
11110TIP3   OH254744   1.265   5.623  11.891 -0.8272 -0.1903  0.1881
11110TIP3    H154745   1.236   5.694  11.834  0.5170  0.0358 -0.2155
11110TIP3    H254746   1.205   5.626  11.966 -1.5987  0.5176 -0.4547
11111TIP3   OH254747   1.509   1.725  12.380 -0.2871  0.0429  0.7560
11111TIP3    H154748   1.422   1.702  12.347  0.4589  1.1231 -2.0906
11111TIP3    H254749   1.493   1.795  12.443 -1.4389  0.6999 -0.2536
11112TIP3   OH254750   6.148   1.819  13.998  0.1365 -0.6580 -0.3039
11112TIP3    H154751   6.158   1.829  13.903 -1.2257  0.1577 -0.3720
11112TIP3    H254752   6.063   1.775  14.009  0.1260 -0.4403  0.5400
11113TIP3   OH254753   3.971   3.018   3.727 -0.1362  0.3480 -0.3298
11113TIP3    H154754   4.057   3.032   3.766  0.0926  0.5577 -0.9056
11113TIP3    H254755   3.924   2.966   3.792 -0.0555  1.4256  0.6034
11114TIP3   OH254756   4.416   3.702   1.337  0.1306  0.0491  0.0619
11114TIP3    H154757   4.443   3.762   1.407  1.5353 -1.0742  0.4934
11114TIP3    H254758   4.437   3.615   1.370  1.0512 -0.4866 -1.8444
11115TIP3   OH254759   2.098   3.789   4.260  0.1363  0.3927 -0.5895
11115TIP3    H154760   2.135   3.810   4.174 -0.2299 -2.2980 -1.4488
11115TIP3    H254761   2.112   3.868   4.312  3.4241  0.8936 -2.0986
11116TIP3   OH254762   0.589   4.478   2.559 -0.0806  0.2727  0.5869
11116TIP3    H154763   0.633   4.538   2.619  2.4998 -0.0437 -0.9230
11116TIP3    H254764   0.633   4.394   2.573 -2.1325 -0.7788  1.0472
11117TIP3   OH254765   2.216   2.266  14.954 -0.2118 -0.0761  0.2805
11117TIP3    H154766   2.268   2.320  14.894 -0.0466  0.5879  1.0291
11117TIP3    H254767   2.215   2.179  14.912 -1.5623  0.8062 -1.5742
11118TIP3   OH254768   1.911   5.147  15.928 -0.5933  0.3519 -0.0069
11118TIP3    H154769   1.860   5.069  15.908 -0.0634  0.0093 -0.0202
11118TIP3    H254770   1.850   5.220  15.913 -0.3614  0.0907 -2.3635
11119TIP3   OH254771   3.727   0.186  16.556 -0.2218  0.0518 -0.3708
11119TIP3    H154772   3.681   0.149  16.481 -1.8866  0.3259  0.5026
11119TIP3    H254773   3.681   0.267  16.576  0.7125  0.3987  0.4504
11120TIP3   OH254774   5.462   0.813  12.969  0.3826  1.1734 -0.2038
11120TIP3    H154775   5.399   0.747  12.941  2.2888 -1.0328  0.5743
11120TIP3    H254776   5.446   0.823  13.064  0.2896  1.6652 -0.2651
11121TIP3   OH254777   5.208   0.256  15.700 -0.2745  0.2532  0.1028
11121TIP3    H154778   5.155   0.304  15.636 -0.9601 -0.4905  0.1089
11121TIP3    H254779   5.156   0.256  15.780  0.4105  0.8378  0.5652
11122TIP3   OH254780   4.088   2.138  16.122  0.1888  0.3700 -0.2410
11122TIP3    H154781   4.031   2.080  16.071 -1.2794  2.0515 -0.5594
11122TIP3    H254782   4.150   2.079  16.164 -0.5240 -1.3318 -1.5009
11123TIP3   OH254783   2.150   2.406   0.617  0.4382  0.0528  0.1802
11123TIP3    H154784   2.236   2.369   0.595  0.4984 -0.0727  0.6230
11123TIP3    H254785   2.151   2.412   0.712 -1.0951 -2.4449  0.3806
11124TIP3   OH254786   3.987   3.971   4.047  0.3878  0.1695  0.3096
11124TIP3    H154787   4.077   4.004   4.050  0.6322 -0.5853  3.8414
11124TIP3    H254788   3.934   4.049   4.031  1.4833  1.1180  1.1642
11125TIP3   OH254789   3.819   6.291  16.712 -0.3132  0.2189 -0.0739
11125TIP3    H154790   3.787   6.241  16.787  0.0964 -0.6025 -0.4356
11125TIP3    H254791   3.864   6.367  16.751 -0.7408  0.1854  0.4889
11126TIP3   OH254792   2.465   3.890  12.508  0.1835 -0.5738  0.0738
11126TIP3    H154793   2.419   3.961  12.463  0.4135 -0.0879  0.5978
11126TIP3    H254794   2.555   3.895  12.475  0.3087 -0.3314  0.4429
11127TIP3   OH254795   3.920   5.663  15.715  0.1370  0.0127  0.0948
11127TIP3    H154796   3.906   5.569  15.723  1.9373 -0.1833  1.3009
11127TIP3    H254797   3.839   5.697  15.677 -1.7858 -1.5687  2.6830
11128TIP3   OH254798   1.005   3.806   4.769  0.4761  0.2101 -0.0586
11128TIP3    H154799   0.981   3.716   4.790  0.5824  0.4194  0.9695
11128TIP3    H254800   0.993   3.854   4.851 -0.1555  1.2536 -0.7393
11129TIP3   OH254801   2.346   3.101   3.998 -0.5567 -0.2364 -0.0269
11129TIP3    H154802   2.385   3.062   3.920 -0.3100  0.5920 -0.3174
11129TIP3    H254803   2.374   3.193   3.996 -1.7559  0.1409  0.2459
11130TIP3   OH254804   3.197   2.842  13.995 -0.5707 -0.1455  0.1548
11130TIP3    H154805   3.290   2.859  14.009 -0.3558 -0.8045 -0.4854
11130TIP3    H254806   3.179   2.874  13.907 -0.5939 -1.4468 -0.3254
11131TIP3   OH254807   0.289   2.592   4.529 -0.0676 -0.0802  0.0585
11131TIP3    H154808   0.365   2.542   4.559 -0.8670 -2.2455 -1.3874
11131TIP3    H254809   0.265   2.552   4.445 -2.1562  1.2566 -0.0322
11132TIP3   OH254810   5.801   5.851  14.749 -0.0837 -0.2972 -0.0031
11132TIP3    H154811   5.707   5.841  14.738  0.0492 -1.2634 -0.2583
11132TIP3    H254812   5.840   5.790  14.687  0.7387  1.3304 -1.1369
11133TIP3   OH254813   3.684   6.563  13.594  0.0412 -0.1081 -0.1402
11133TIP3    H154814   3.668   6.596  13.682 -0.3176 -0.0332 -0.2311
11133TIP3    H254815   3.635   6.622  13.537  2.1580  1.2420 -0.5841
11134TIP3   OH254816   3.222   2.589  11.843  0.1494  0.1708 -0.3464
11134TIP3    H154817   3.142   2.537  11.843  0.5970 -0.5250 -1.7756
11134TIP3    H254818   3.293   2.525  11.834  0.7990  0.8897 -0.4324
11135TIP3   OH254819   1.443   3.585   0.362  0.0953  0.2336 -0.0466
11135TIP3    H154820   1.356   3.551   0.340  0.1132  0.0295  0.1919
11135TIP3    H254821   1.479   3.520   0.423  0.1260  0.6803  0.4183
11136TIP3   OH254822   2.108   1.575  14.738  0.7202  0.1632 -0.5752
11136TIP3    H154823   2.191   1.610  14.706  2.1344 -0.6896  1.9653
11136TIP3    H254824   2.084   1.507  14.675  1.9678  0.4002 -1.3208
11137TIP3   OH254825   1.736   2.025  11.133 -0.2051  0.3634 -0.1744
11137TIP3    H154826   1.760   1.944  11.177  0.8250 -0.6322 -2.4891
11137TIP3    H254827   1.660   2.002  11.079 -0.5267  1.1946 -0.0913
11138TIP3   OH254828   5.066   0.380  16.663  0.0287 -0.5623  0.3987
11138TIP3    H154829   5.029   0.417  16.744  0.0680 -0.5248  0.4018
11138TIP3    H254830   5.160   0.397  16.670  0.0398 -0.6140  0.3766
11139TIP3   OH254831   6.658   4.880   0.661 -0.2885 -0.2910 -0.6295
11139TIP3    H154832   6.685   4.822   0.732 -0.5676 -0.9778 -1.0733
11139TIP3    H254833   6.621   4.821   0.595  1.5976  0.1625 -2.1188
11140TIP3   OH254834   6.541   6.597  13.809 -0.1168 -0.6340  0.1797
11140TIP3    H154835   6.476   6.552  13.755 -0.7970  1.1959 -0.5945
11140TIP3    H254836   6.490   6.633  13.882  0.3176 -0.6370  0.4804
11141TIP3   OH254837   0.905   4.146   3.345  0.3947  0.0345 -0.5183
11141TIP3    H154838   0.948   4.230   3.328  0.8877  0.0523  0.6813
11141TIP3    H254839   0.850   4.130   3.269 -0.6106  2.0179 -0.2448
11142TIP3   OH254840   0.784   1.457  11.137  0.8030 -0.0332  0.0393
11142TIP3    H154841   0.699   1.495  11.113  0.6264 -0.7956 -0.5976
11142TIP3    H254842   0.840   1.532  11.154  0.0402  0.4836  0.3110
11143TIP3   OH254843   2.391   2.999   1.112  0.1851  0.4787  0.0943
11143TIP3    H154844   2.476   3.006   1.068 -0.0899  2.4555 -0.1648
11143TIP3    H254845   2.385   3.078   1.166 -1.3008  0.1333  0.4625
11144TIP3   OH254846   1.706   0.068   0.952  0.0770  0.5432  0.7083
11144TIP3    H154847   1.714   0.145   1.009 -2.2219 -0.0325  1.8993
11144TIP3    H254848   1.629   0.086   0.898  1.9533  0.8533 -1.9196
11145TIP3   OH254849   3.591   2.817   5.613 -0.1141 -0.1312 -0.4420
11145TIP3    H154850   3.543   2.755   5.558  1.6650 -1.4027 -0.5897
11145TIP3    H254851   3.601   2.772   5.697 -1.9037  1.3871  0.6150
11146TIP3   OH254852   1.988   3.080  13.183 -0.2630  0.4670  0.1021
11146TIP3    H154853   1.956   3.166  13.206 -1.4834 -0.2373  1.0907
11146TIP3    H254854   2.018   3.042  13.266  2.6926  0.8888 -0.6870
11147TIP3   OH254855   1.403   6.671  15.872  0.0415  0.1482 -0.1070
11147TIP3    H154856   1.376   6.682  15.780 -1.9728  3.6964  0.8003
11147TIP3    H254857   1.460   6.747  15.889 -0.3471  0.0160  1.8328
11148TIP3   OH254858   1.561   3.199  16.243 -0.1600  0.7788 -0.0086
11148TIP3    H154859   1.557   3.116  16.291 -0.2240  1.9466  2.1074
11148TIP3    H254860   1.643   3.239  16.272  1.0846  0.4079 -2.8789
11149TIP3   OH254861   3.147   3.060   1.306  0.0434  0.0046  0.0208
11149TIP3    H154862   3.239   3.083   1.293  0.2586 -0.6682  0.3443
11149TIP3    H254863   3.107   3.141   1.338  0.5958  0.2132  0.1957
11150TIP3   OH254864   3.372   1.182   2.746 -0.3750  0.0229 -0.3704
11150TIP3    H154865   3.323   1.259   2.716 -2.2390 -1.0208 -0.0480
11150TIP3    H254866   3.369   1.188   2.841  0.2017 -0.0289 -0.3437
11151TIP3   OH254867   3.080   5.035  16.089 -0.0792 -0.5669 -0.1034
11151TIP3    H154868   3.095   4.957  16.036  0.3946 -2.8957  3.2704
11151TIP3    H254869   3.044   5.099  16.028 -0.1118 -3.2786 -3.0721
11152TIP3   OH254870   0.362   3.260   5.188  0.2529 -0.3386 -0.1008
11152TIP3    H154871   0.441   3.309   5.162  0.7070 -0.2029  1.5300
11152TIP3    H254872   0.344   3.204   5.112  1.8253 -0.2603 -0.5625
11153TIP3   OH254873   3.446   5.333  13.171 -0.3872  0.0862  0.4302
11153TIP3    H154874   3.431   5.289  13.088 -2.6264  1.2084  0.2048
11153TIP3    H254875   3.397   5.282  13.235  1.2513 -0.7179  1.0738
11154TIP3   OH254876   5.686   2.515   2.697 -0.4103  0.5011  0.4071
11154TIP3    H154877   5.672   2.517   2.792 -0.8914  0.2790  0.3409
11154TIP3    H254878   5.604   2.481   2.661 -0.4046  1.0389 -0.1252
11155TIP3   OH254879   6.576   0.259  15.639 -0.4171 -0.5031  0.6783
11155TIP3    H154880   6.655   0.208  15.656 -0.8509 -1.0057  1.2440
11155TIP3    H254881   6.594   0.346  15.674  0.3630 -0.2419 -0.3642
11156TIP3   OH254882   2.274   3.458  12.654 -0.5476  0.0023 -0.7940
11156TIP3    H154883   2.331   3.494  12.586 -1.1448  0.8293 -0.8662
11156TIP3    H254884   2.186   3.463  12.616 -0.5973 -2.0033 -0.9939
11157TIP3   OH254885   2.665   1.317  14.102 -0.2308  0.1490  0.3638
11157TIP3    H154886   2.585   1.275  14.073 -0.8922  1.0913  0.7899
11157TIP3    H254887   2.692   1.372  14.029  0.1821 -0.3842  0.1143
11158TIP3   OH254888   5.684   3.678   3.863 -0.4059  1.1262  0.3327
11158TIP3    H154889   5.701   3.770   3.881 -1.0005  2.0144 -3.2223
11158TIP3    H254890   5.597   3.677   3.823  0.0403 -0.8468 -0.6548
11159TIP3   OH254891   3.797   2.192   2.600 -0.2834  0.0105  0.5037
11159TIP3    H154892   3.888   2.211   2.621 -0.1288 -0.0075 -0.1405
11159TIP3    H254893   3.799   2.106   2.558 -0.5440  0.1999  0.0931
11160TIP3   OH254894   3.549   1.439   2.218 -0.2317 -0.2067  0.4438
11160TIP3    H154895   3.500   1.502   2.270 -0.2771  0.5030 -0.4450
11160TIP3    H254896   3.625   1.488   2.187 -0.5213 -0.4583 -0.6629
11161TIP3   OH254897   6.438   3.837  13.524  0.2476  0.5685  0.4287
11161TIP3    H154898   6.488   3.769  13.569  1.2915  0.1278 -1.3532
11161TIP3    H254899   6.350   3.801  13.515  0.5950 -0.2323  0.2009
11162TIP3   OH254900   6.165   5.663   2.081  0.2999  0.2183  0.2963
11162TIP3    H154901   6.168   5.659   2.177  0.7860 -0.0857  0.2658
11162TIP3    H254902   6.219   5.739   2.059  0.1344  0.3275  0.2656
11163TIP3   OH254903   4.478   6.369  13.467  0.1912  0.6430 -0.1973
11163TIP3    H154904   4.565   6.346  13.501  0.1734  0.6294 -0.1613
11163TIP3    H254905   4.423   6.376  13.545  1.0354  4.4208  0.2085
11164TIP3   OH254906   2.857   4.362   4.517 -0.1731 -0.5411 -0.0494
11164TIP3    H154907   2.816   4.433   4.565  0.0533  0.2797 -1.0556
11164TIP3    H254908   2.793   4.340   4.448 -1.0592 -2.5466  1.3318
11165TIP3   OH254909   4.282   2.067  10.747 -0.4630  0.0683 -0.3663
11165TIP3    H154910   4.364   2.026  10.777 -0.7576 -0.8274 -0.7610
11165TIP3    H254911   4.285   2.155  10.783  1.1979  0.4193 -1.2880
11166TIP3   OH254912   2.275   4.954   2.105  0.2158  0.1590  0.3481
11166TIP3    H154913   2.201   4.997   2.063 -0.8030 -0.4627  1.4896
11166TIP3    H254914   2.305   4.889   2.041  1.2470  1.9472 -1.0510
11167TIP3   OH254915   6.781   5.793  15.527  0.8033 -0.7301  0.1266
11167TIP3    H154916   6.809   5.703  15.542 -0.8212 -1.3829 -0.5491
11167TIP3    H254917   6.756   5.795  15.434 -0.7502 -0.0660  0.5337
11168TIP3   OH254918   2.195   5.554   6.196  0.1191 -0.2312  0.2542
11168TIP3    H154919   2.239   5.493   6.256 -1.5078 -0.1447  1.5542
11168TIP3    H254920   2.172   5.629   6.250 -3.7607 -1.2768  0.2119
11169TIP3   OH254921   4.917   4.206   2.549 -0.4305  0.7119 -0.3766
11169TIP3    H154922   4.940   4.235   2.637 -1.0564  0.8276 -0.2483
11169TIP3    H254923   4.950   4.116   2.544  0.3655  1.0000 -0.3256
11170TIP3   OH254924   2.583   6.068  15.199  0.1344  0.1610  0.0450
11170TIP3    H154925   2.548   6.022  15.275 -0.8426  0.8664  0.0342
11170TIP3    H254926   2.635   6.139  15.236 -1.4801  1.3602  0.0823
11171TIP3   OH254927   6.547   2.477  12.798  0.6785  0.5694  0.4907
11171TIP3    H154928   6.518   2.400  12.846  0.3436  0.5327  0.2323
11171TIP3    H254929   6.643   2.473  12.801  0.6703 -0.2419 -0.1396
11172TIP3   OH254930   6.580   5.733  11.388  0.1272 -0.2418  0.0763
11172TIP3    H154931   6.517   5.784  11.337 -1.5432 -0.9688  1.3880
11172TIP3    H254932   6.598   5.656  11.334 -0.4390 -0.2370 -0.1216
11173TIP3   OH254933   6.555   2.108  13.995 -0.3696 -0.7410  0.1039
11173TIP3    H154934   6.581   2.109  14.087  0.7814 -0.6976 -0.2192
11173TIP3    H254935   6.548   2.015  13.973  2.3084 -0.8135 -0.5772
11174TIP3   OH254936   5.591   2.862  16.847 -0.2611  0.1272  0.5005
11174TIP3    H154937   5.640   2.892  16.924  0.5998  2.3150 -0.8370
11174TIP3    H254938   5.598   2.935  16.785 -1.1146 -1.5145 -1.5691
11175TIP3   OH254939   0.096   0.918  12.878  0.2153 -0.1792  0.2716
11175TIP3    H154940   0.005   0.931  12.905 -0.0597 -0.1657 -0.6670
11175TIP3    H254941   0.108   0.973  12.801  0.6046 -1.2515 -0.4575
11176TIP3   OH254942   6.373   1.029  12.245  0.1010  0.2307  0.2284
11176TIP3    H154943   6.294   0.986  12.275  1.0594  1.1954  4.5425
11176TIP3    H254944   6.422   0.961  12.199 -0.5711 -2.0287  2.7262
11177TIP3   OH254945   0.583   1.996  12.753  0.3834  0.0451 -0.1976
11177TIP3    H154946   0.637   1.983  12.832  1.6069  1.3903 -0.7950
11177TIP3    H254947   0.643   2.036  12.690 -1.6046  2.6493 -0.5065
11178TIP3   OH254948   4.406   4.447   0.789 -0.0170 -0.1357  0.4442
11178TIP3    H154949   4.498   4.461   0.810  0.2947 -0.4341 -0.6790
11178TIP3    H254950   4.369   4.535   0.783  0.5897  0.0563 -0.7621
11179TIP3   OH254951   4.990   5.999  14.278 -0.1810 -0.1568 -0.6880
11179TIP3    H154952   5.061   6.060  14.297 -0.8594  0.6429 -0.6723
11179TIP3    H254953   4.993   5.986  14.184 -1.5235  1.8004 -1.0422
11180TIP3   OH254954   3.669   3.103  13.411  0.1034  0.4863 -0.3908
11180TIP3    H154955   3.723   3.132  13.337 -0.7385 -0.6686 -1.4747
11180TIP3    H254956   3.731   3.068  13.474  0.8418  1.5921 -0.4801
11181TIP3   OH254957   2.641   3.257   5.319  0.3407 -0.2165  0.6794
11181TIP3    H154958   2.652   3.352   5.314  1.5971 -0.4839 -2.6632
11181TIP3    H254959   2.579   3.236   5.250  1.4748 -2.0239  0.1824
11182TIP3   OH254960   4.893   0.696   1.960  0.2622 -0.1870 -0.3635
11182TIP3    H154961   4.854   0.611   1.981  0.8766 -0.3592  0.0901
11182TIP3    H254962   4.867   0.712   1.870 -0.2749 -0.6285 -0.2924
11183TIP3   OH254963   4.771   6.163   6.271  0.4823 -0.5642 -0.4094
11183TIP3    H154964   4.692   6.202   6.308 -0.1142  0.5910 -2.7861
11183TIP3    H254965   4.748   6.071   6.257  0.4942 -0.8527  1.4119
11184TIP3   OH254966   4.513   1.950  10.852  0.5860  0.6502  0.1839
11184TIP3    H154967   4.564   1.869  10.848  1.4118  1.2668 -2.8394
11184TIP3    H254968   4.521   1.979  10.943  3.6353 -0.5100  0.3337
11185TIP3   OH254969   6.134   4.067  14.873 -0.5823 -0.1005 -0.3957
11185TIP3    H154970   6.144   3.980  14.912 -2.5771  0.7338  2.0977
11185TIP3    H254971   6.102   4.051  14.784 -0.5111 -1.9184 -0.1004
11186TIP3   OH254972   0.732   5.227  11.801  0.0268  0.0818 -0.2328
11186TIP3    H154973   0.656   5.197  11.751 -1.3533  0.7065  1.4536
11186TIP3    H254974   0.715   5.319  11.820  0.8974  0.0656  0.7184
11187TIP3   OH254975   4.322   0.565  10.376 -0.1242 -0.5694 -0.8164
11187TIP3    H154976   4.398   0.508  10.391 -0.3836 -0.4789  1.0465
11187TIP3    H254977   4.247   0.510  10.399 -0.5312 -0.2469 -1.3831
11188TIP3   OH254978   4.871   2.877   3.922 -0.1112 -0.5752 -0.0982
11188TIP3    H154979   4.959   2.837   3.921  0.0677 -0.1790 -1.8954
11188TIP3    H254980   4.814   2.807   3.955  0.7302 -1.1471  0.1952
11189TIP3   OH254981   0.782   1.497   0.895 -1.0209  1.2133 -0.0456
11189TIP3    H154982   0.741   1.522   0.812  0.3214 -0.8081 -1.3467
11189TIP3    H254983   0.730   1.424   0.926  0.2865  0.0032 -0.6497
11190TIP3   OH254984   3.937   0.886  12.165  0.3536 -0.5254  0.0568
11190TIP3    H154985   3.890   0.802  12.164 -0.4722 -0.0646 -0.0548
11190TIP3    H254986   3.907   0.931  12.087  1.4970 -0.4984 -0.3762
11191TIP3   OH254987   3.760   4.684  16.195  0.3327 -0.4142  0.3420
11191TIP3    H154988   3.764   4.729  16.280  0.6836  1.7967 -0.8259
11191TIP3    H254989   3.836   4.716  16.147 -0.9215 -0.2243 -1.5304
11192TIP3   OH254990   0.166   5.475  16.783 -0.0599  0.0144  0.0365
11192TIP3    H154991   0.162   5.384  16.814  1.2773 -0.4533 -1.0725
11192TIP3    H254992   0.186   5.526  16.861  0.5460 -0.8073  0.4305
11193TIP3   OH254993   3.574   5.888   5.562 -0.0934  0.5206 -0.2435
11193TIP3    H154994   3.572   5.818   5.496 -0.6180 -1.0804  1.4057
11193TIP3    H254995   3.542   5.965   5.516 -1.1904 -0.7468 -1.6841
11194TIP3   OH254996   6.344   2.640   4.791 -0.3291 -0.0260  0.6947
11194TIP3    H154997   6.397   2.719   4.801  0.0581 -0.3055  0.9022
11194TIP3    H254998   6.267   2.668   4.742 -0.0153  0.4018  0.4374
11195TIP3   OH254999   4.440   4.870   1.531  0.1442 -0.0925 -0.2754
11195TIP3    H155000   4.491   4.824   1.598 -0.0643  1.0075  0.6488
11195TIP3    H255001   4.463   4.826   1.449  0.5173 -1.3485  0.4999
11196TIP3   OH255002   1.980   2.312   2.620 -0.3240 -0.3122 -0.9304
11196TIP3    H155003   2.047   2.267   2.670  1.6046  2.1529 -1.1844
11196TIP3    H255004   1.903   2.313   2.677  0.3945 -1.5791  0.0795
11197TIP3   OH255005   2.604   0.767   3.645 -0.6687 -0.6504 -0.5717
11197TIP3    H155006   2.653   0.846   3.666 -0.3195 -0.9808 -0.1286
11197TIP3    H255007   2.627   0.748   3.554 -0.8355 -0.1853 -0.7116
11198TIP3   OH255008   2.654   2.498  14.086 -0.3207  0.5009  0.0395
11198TIP3    H155009   2.646   2.478  14.180 -1.5870 -0.1585 -0.2049
11198TIP3    H255010   2.748   2.516  14.074  0.1627 -1.1435  1.0991
11199TIP3   OH255011   0.405   1.830   2.695  0.3286 -0.0467  0.1836
11199TIP3    H155012   0.364   1.908   2.657 -0.4371  0.3089  1.7117
11199TIP3    H255013   0.454   1.863   2.770  0.1355 -1.0254  0.7439
11200TIP3   OH255014   6.337   1.359   4.601  0.1507 -0.3650  0.3133
11200TIP3    H155015   6.330   1.266   4.578 -0.1793 -0.3970  0.5397
11200TIP3    H255016   6.266   1.373   4.664 -0.0942  0.1560 -0.0831
11201TIP3   OH255017   5.016   0.594  12.438 -0.0400  0.3641 -0.1607
11201TIP3    H155018   4.993   0.622  12.349 -2.2430 -0.0878  0.2428
11201TIP3    H255019   5.014   0.498  12.434  2.5016  0.2819 -0.2664
11202TIP3   OH255020   0.380   1.643   0.305 -0.1117  0.4528  0.1066
11202TIP3    H155021   0.430   1.720   0.331  0.7891  0.0427 -0.4043
11202TIP3    H255022   0.311   1.636   0.371  1.0356  0.4982  1.3179
11203TIP3   OH255023   1.637   2.142   0.827 -0.5339  0.6854 -0.2838
11203TIP3    H155024   1.732   2.156   0.830 -0.5821  1.7605 -2.6264
11203TIP3    H255025   1.607   2.163   0.916  1.2611  1.5605  0.1526
11204TIP3   OH255026   1.967   5.443  12.352 -0.1715  0.0742  0.3758
11204TIP3    H155027   1.970   5.445  12.448 -0.7557 -2.3956  0.4908
11204TIP3    H255028   2.051   5.404  12.327 -0.1657  0.3913 -0.0911
11205TIP3   OH255029   5.131   2.957  13.014  0.1432 -0.1953  0.6611
11205TIP3    H155030   5.200   3.020  13.036 -0.6198  0.3123  1.6493
11205TIP3    H255031   5.077   2.951  13.093 -1.9351  0.7275 -0.6194
11206TIP3   OH255032   1.038   4.264  13.466  0.5315  0.0329 -0.0153
11206TIP3    H155033   1.062   4.330  13.531  2.6363  1.0356 -1.7481
11206TIP3    H255034   1.038   4.181  13.514 -0.9230  1.0882  1.9137
11207TIP3   OH255035   1.382   4.973  13.794 -0.1597  0.0159  0.7783
11207TIP3    H155036   1.463   5.023  13.808 -0.2957  0.2020  0.8985
11207TIP3    H255037   1.322   5.035  13.754 -0.3643 -0.0198  1.0286
11208TIP3   OH255038   1.376   2.462  14.248 -0.1011 -0.8791 -0.4554
11208TIP3    H155039   1.464   2.424  14.242  0.5978  0.9692 -2.7698
11208TIP3    H255040   1.368   2.490  14.339  1.5134 -1.5925 -0.0794
11209TIP3   OH255041   0.503   5.727   2.395  0.0596 -0.1544 -0.4563
11209TIP3    H155042   0.433   5.792   2.398 -1.1206 -1.4235 -0.0780
11209TIP3    H255043   0.567   5.758   2.459  0.3805  1.6017 -1.6091
11210TIP3   OH255044   6.590   2.477   4.255  0.1392 -0.3659 -0.1154
11210TIP3    H155045   6.635   2.401   4.292 -0.5336 -0.0469  1.4219
11210TIP3    H255046   6.637   2.496   4.174  2.1810 -0.6422  0.9568
11211TIP3   OH255047   5.831   3.584  16.929 -0.1001  0.0407  0.5772
11211TIP3    H155048   5.751   3.609  16.976 -0.9206 -0.6611 -0.4307
11211TIP3    H255049   5.800   3.544  16.848  1.2568 -1.1076  0.6057
11212TIP3   OH255050   3.204   0.244  14.937  0.1896  0.2821 -0.2674
11212TIP3    H155051   3.230   0.221  14.847  0.1496 -0.9750  0.0336
11212TIP3    H255052   3.127   0.301  14.926 -0.3442 -0.5648 -1.0175
11213TIP3   OH255053   3.655   1.777   6.552  0.2345  0.0068  0.2534
11213TIP3    H155054   3.571   1.738   6.527  0.8172 -0.2355 -1.3712
11213TIP3    H255055   3.638   1.819   6.636 -0.9464 -1.9675  1.0426
11214TIP3   OH255056   0.704   6.652  16.963 -0.5912  0.0245  0.1546
11214TIP3    H155057   0.652   6.733  16.963  0.6742  0.8639 -0.5301
11214TIP3    H255058   0.755   6.657  17.044  0.8174  0.8270 -0.7483
11215TIP3   OH255059   2.331   1.976   0.292  0.3288  0.2555 -0.2714
11215TIP3    H155060   2.372   1.986   0.378 -0.1314  1.2544 -0.1575
11215TIP3    H255061   2.270   1.903   0.302  1.8241 -1.0360 -0.3524
11216TIP3   OH255062   5.599   3.258  12.004 -0.2977 -0.5202 -0.8230
11216TIP3    H155063   5.632   3.169  11.999  0.5116 -0.4735  2.4063
11216TIP3    H255064   5.662   3.305  12.059 -0.2844  2.2900 -3.0724
11217TIP3   OH255065   6.472   2.805   2.509 -0.1889  0.2544  0.2435
11217TIP3    H155066   6.482   2.727   2.563 -2.8482  0.1147  0.5864
11217TIP3    H255067   6.416   2.863   2.559 -0.8114  1.0945 -1.3683
11218TIP3   OH255068   2.366   1.913  11.755  0.3326 -0.0302  0.2245
11218TIP3    H155069   2.298   1.854  11.787  0.7051 -0.2817  0.5583
11218TIP3    H255070   2.446   1.886  11.802  1.2711 -1.5192 -2.1687
11219TIP3   OH255071   1.723   6.428  17.180 -0.3375  0.0155 -0.9478
11219TIP3    H155072   1.648   6.371  17.199 -1.8682  1.9017 -1.1322
11219TIP3    H255073   1.725   6.433  17.085 -2.3409  2.9414 -0.8886
11220TIP3   OH255074   6.561   5.664  16.326 -0.4127  0.2667 -0.0473
11220TIP3    H155075   6.630   5.618  16.278 -0.4553  0.4947 -0.3341
11220TIP3    H255076   6.556   5.749  16.283  1.3092  1.4452  2.0202
11221TIP3   OH255077   2.606   2.405  13.007 -0.1360 -0.3833 -0.6430
11221TIP3    H155078   2.643   2.483  12.965  0.5642  0.9767  2.3543
11221TIP3    H255079   2.680   2.364  13.051 -0.7359 -2.1138 -1.2253
11222TIP3   OH255080   4.776   3.262   5.758  0.2098  0.0606 -0.5401
11222TIP3    H155081   4.829   3.186   5.734  0.6140  0.5118 -1.0970
11222TIP3    H255082   4.838   3.322   5.799 -0.3084 -0.3374  0.8518
11223TIP3   OH255083   5.980   5.361  12.204  0.0277 -0.4538 -0.1583
11223TIP3    H155084   6.010   5.425  12.140 -2.2357  0.3626 -0.4473
11223TIP3    H255085   6.060   5.329  12.245  1.2217  2.6059  0.0504
11224TIP3   OH255086   2.064   5.535  17.184 -0.1447 -0.0515  0.0595
11224TIP3    H155087   2.023   5.552  17.100 -1.0482  0.4570  0.5971
11224TIP3    H255088   1.992   5.507  17.241  0.5213 -0.7968  0.5489
11225TIP3   OH255089   1.730   0.063   1.813  0.7566 -0.5026  0.0151
11225TIP3    H155090   1.800   0.016   1.767  0.9526 -0.7068  0.5161
11225TIP3    H255091   1.654   0.006   1.806  1.0185 -0.9444  0.7037
11226TIP3   OH255092   4.474   3.793   4.972 -0.2470  0.4096  0.8641
11226TIP3    H155093   4.506   3.868   5.021  0.2008  1.9792 -1.7493
11226TIP3    H255094   4.397   3.826   4.925 -0.5352 -0.9885  0.3273
11227TIP3   OH255095   0.979   0.133  12.263 -0.3887  0.0868 -0.1235
11227TIP3    H155096   0.901   0.139  12.318 -0.1841  0.4793  0.1202
11227TIP3    H255097   1.051   0.121  12.324 -0.2319 -0.0998 -0.3411
11228TIP3   OH255098   6.171   6.759  16.382  0.3149  0.6534 -0.3168
11228TIP3    H155099   6.194   6.667  16.394 -2.0032 -0.1381 -1.5359
11228TIP3    H255100   6.147   6.766  16.289 -3.6929  1.4317  0.6669
11229TIP3   OH255101   6.304   5.691   1.056  0.3145 -0.1856 -0.3963
11229TIP3    H155102   6.329   5.764   1.112  0.9788  0.4091 -1.4795
11229TIP3    H255103   6.307   5.615   1.114  0.7724  0.4602  0.4331
11230TIP3   OH255104   4.512   4.510   2.916  0.1654 -0.1472  0.0458
11230TIP3    H155105   4.521   4.559   2.834 -0.8993 -0.7697 -0.4437
11230TIP3    H255106   4.498   4.419   2.889  2.6139 -0.8374  0.9538
11231TIP3   OH255107   5.044   5.050  13.770 -0.6494 -0.2701  0.2347
11231TIP3    H155108   5.025   4.965  13.730 -0.4338 -0.8707  1.3754
11231TIP3    H255109   4.970   5.065  13.829  0.6577 -0.9765  2.0987
11232TIP3   OH255110   4.375   2.990  14.491  0.1410 -0.0574 -0.4442
11232TIP3    H155111   4.427   3.043  14.431 -0.5521 -1.1440 -2.0526
11232TIP3    H255112   4.285   3.019  14.477 -0.0236 -0.3271  0.0598
11233TIP3   OH255113   5.330   6.209   3.654  0.1393  0.1303  0.1512
11233TIP3    H155114   5.313   6.163   3.572 -0.9182  0.0656  0.4060
11233TIP3    H255115   5.396   6.155   3.698 -0.8399 -0.9857  0.2913
11234TIP3   OH255116   6.015   3.375   3.912  0.1922  0.1551  0.4094
11234TIP3    H155117   5.952   3.431   3.958  1.5212  0.1552  2.3249
11234TIP3    H255118   5.975   3.289   3.913  0.5596 -0.0259  2.4054
11235TIP3   OH255119   6.504   3.825   3.575  0.3886 -0.7736 -0.0825
11235TIP3    H155120   6.577   3.773   3.610  0.4466  0.2062  1.2978
11235TIP3    H255121   6.546   3.890   3.519  0.4441 -1.1602 -0.4952
11236TIP3   OH255122   0.895   3.641  10.753 -0.0887  0.0338  0.3373
11236TIP3    H155123   0.806   3.629  10.785  0.1299  1.7784  1.6633
11236TIP3    H255124   0.949   3.585  10.809 -0.5202 -2.2520 -1.4941
11237TIP3   OH255125   2.372   1.533  12.364 -0.1576 -0.4896  0.5349
11237TIP3    H155126   2.348   1.592  12.436  3.7793 -0.2168  1.7447
11237TIP3    H255127   2.385   1.448  12.405 -1.6302 -1.2494 -0.5245
11238TIP3   OH255128   3.019   0.469  13.945  0.0939 -0.3817  0.5743
11238TIP3    H155129   2.970   0.509  14.017  0.7419  0.0600  0.7726
11238TIP3    H255130   3.110   0.489  13.964  0.3809 -1.4260  0.3436
11239TIP3   OH255131   5.396   3.916  13.599  0.0146  0.8771 -0.3832
11239TIP3    H155132   5.347   3.910  13.681 -1.8913  0.8846 -1.4887
11239TIP3    H255133   5.433   4.005  13.600 -0.9992  1.3087 -0.0591
11240TIP3   OH255134   4.609   3.645   2.835  0.4247 -0.1652 -0.4768
11240TIP3    H155135   4.520   3.657   2.801  0.7346 -0.3153 -1.3776
11240TIP3    H255136   4.619   3.550   2.839  0.9249 -0.1679 -1.4558
11241TIP3   OH255137   3.385   3.077   1.800 -0.4371 -0.1000 -0.4389
11241TIP3    H155138   3.408   3.104   1.711  0.4348  4.5409  1.0693
11241TIP3    H255139   3.290   3.080   1.802 -0.4030  1.7208 -0.7116
11242TIP3   OH255140   3.270   0.447  13.673 -0.1643 -0.3191 -0.2383
11242TIP3    H155141   3.254   0.494  13.756  0.7287 -0.3965 -0.0110
11242TIP3    H255142   3.187   0.405  13.652 -0.8155  0.9078 -0.1449
11243TIP3   OH255143   4.555   2.330   3.702 -0.2454  0.3242  0.3510
11243TIP3    H155144   4.600   2.319   3.785  1.4621  0.7287 -0.5089
11243TIP3    H255145   4.542   2.242   3.669  2.1964  0.3058 -0.5956
11244TIP3   OH255146   0.848   3.794  16.697  0.0359  0.2135 -0.0135
11244TIP3    H155147   0.850   3.876  16.647  0.4121  0.7206  0.8159
11244TIP3    H255148   0.843   3.725  16.631  0.5407  0.8805 -0.7524
11245TIP3   OH255149   0.848   1.541  16.299 -0.1861  0.4116  0.0545
11245TIP3    H155150   0.831   1.619  16.350  0.5777 -0.6290  1.9746
11245TIP3    H255151   0.764   1.496  16.293 -0.4957  1.0710 -0.5183
11246TIP3   OH255152   1.702   1.894   0.329 -0.2905  0.6297 -0.4168
11246TIP3    H155153   1.750   1.811   0.333  1.5645  1.6540 -0.8842
11246TIP3    H255154   1.703   1.925   0.420 -2.0649 -0.4358 -0.0134
11247TIP3   OH255155   4.808   4.443   2.973  0.5368  0.0816 -0.2253
11247TIP3    H155156   4.767   4.390   3.041  1.2190 -0.0161  0.1084
11247TIP3    H255157   4.765   4.529   2.981  1.1876  0.3064  0.8548
11248TIP3   OH255158   3.762   4.828   3.526 -0.2548  0.0771  0.6142
11248TIP3    H155159   3.786   4.916   3.499 -0.4716 -0.3557 -0.9982
11248TIP3    H255160   3.831   4.802   3.587  0.7851  0.6572 -0.3119
11249TIP3   OH255161   5.387   0.150  12.061 -0.3373 -0.5897 -0.0600
11249TIP3    H155162   5.437   0.115  12.135  1.3989 -0.0145 -0.9066
11249TIP3    H255163   5.454   0.188  12.004 -1.9387  1.7544 -0.4196
11250TIP3   OH255164   3.026   2.984   2.029  0.5239  0.6465 -0.1816
11250TIP3    H155165   2.980   2.901   2.022 -0.8527  1.3988 -0.1096
11250TIP3    H255166   3.101   2.965   2.085 -0.1469 -0.3889  0.3747
11251TIP3   OH255167   3.970   0.334  15.102 -0.1124  0.0641 -0.2179
11251TIP3    H155168   3.943   0.422  15.126 -0.8275  0.1704 -1.3742
11251TIP3    H255169   4.061   0.343  15.072  0.5715  0.0312  1.7424
11252TIP3   OH255170   6.447   2.958  14.944  0.3077 -0.4245  0.1796
11252TIP3    H155171   6.422   2.877  14.987 -0.6225 -0.3979 -0.2839
11252TIP3    H255172   6.456   2.934  14.851  2.3638 -0.5008  0.3752
11253TIP3   OH255173   6.257   3.651  16.681 -0.2799 -0.4029 -0.5737
11253TIP3    H155174   6.180   3.599  16.663 -0.9075  0.2267  0.2403
11253TIP3    H255175   6.271   3.642  16.776  0.1427  0.1613 -0.5759
11254TIP3   OH255176   3.122   2.157  12.563  0.2922 -0.0007 -0.1335
11254TIP3    H155177   3.175   2.170  12.483  0.1272  0.5930 -0.1547
11254TIP3    H255178   3.038   2.199  12.542  0.5336  0.8979  0.6469
11255TIP3   OH255179   0.010   2.935   0.588  0.2611  0.5456  0.3004
11255TIP3    H155180   0.052   2.967   0.508 -2.1521  0.5510 -1.0132
11255TIP3    H255181   0.058   2.856   0.611  0.7338  0.3391 -1.3824
11256TIP3   OH255182   2.932   0.674   4.956  0.1825  1.0224  0.0795
11256TIP3    H155183   2.966   0.699   5.042 -0.9390  2.0273  0.2361
11256TIP3    H255184   2.863   0.611   4.975  1.7702 -0.8646 -0.2312
11257TIP3   OH255185   0.374   1.011  14.957 -0.2755 -0.1002  0.3107
11257TIP3    H155186   0.350   0.951  15.028 -0.5662 -1.1016 -0.6144
11257TIP3    H255187   0.470   1.016  14.961 -0.4102  1.4117  2.0141
11258TIP3   OH255188   4.589   1.443  13.598  0.1168 -0.4877  0.4441
11258TIP3    H155189   4.497   1.437  13.571  0.4557  1.1046 -1.1515
11258TIP3    H255190   4.625   1.356  13.581 -0.8786 -0.8679  0.2761
11259TIP3   OH255191   3.836   1.666   4.592  0.7160 -0.1096  0.1628
11259TIP3    H155192   3.876   1.609   4.526 -0.2706  2.0935 -2.4821
11259TIP3    H255193   3.743   1.662   4.573  0.2728 -0.4708  2.3431
11260TIP3   OH255194   0.789   2.289   3.328  0.2289  0.1875  0.6086
11260TIP3    H155195   0.767   2.197   3.340 -1.4022  0.4121 -0.5029
11260TIP3    H255196   0.733   2.336   3.390  1.4449  0.4186  1.5648
11261TIP3   OH255197   5.226   3.031   2.645 -0.1690 -0.0169 -0.0190
11261TIP3    H155198   5.315   3.025   2.681 -0.8248  0.9962  1.8670
11261TIP3    H255199   5.238   3.069   2.558  1.0994  2.2704  1.1063
11262TIP3   OH255200   1.923   5.248   6.511 -0.2288  0.2317 -0.2035
11262TIP3    H155201   1.907   5.316   6.446  1.8750 -0.4128 -1.4540
11262TIP3    H255202   1.997   5.280   6.562  1.3248 -1.4121 -1.3290
11263TIP3   OH255203   3.031   4.096   3.002 -0.0675  0.2404  0.3247
11263TIP3    H155204   3.028   4.109   2.907 -2.1774 -0.6309  0.2434
11263TIP3    H255205   3.125   4.095   3.023  0.3901  2.6570 -1.4153
11264TIP3   OH255206   6.257   2.952  12.749  0.0911 -0.4005  0.1678
11264TIP3    H155207   6.286   3.043  12.751  1.0454 -0.6583 -1.5235
11264TIP3    H255208   6.330   2.902  12.786 -0.0537 -0.5903  0.2023
11265TIP3   OH255209   6.528   1.970   6.140 -0.1184 -0.3302 -0.0367
11265TIP3    H155210   6.473   2.044   6.116  1.2462  1.1010  1.1938
11265TIP3    H255211   6.468   1.895   6.141 -1.7850  0.9746  0.0581
11266TIP3   OH255212   2.048   6.245  14.511 -0.3490 -0.8869 -0.1055
11266TIP3    H155213   1.984   6.316  14.505  0.8633  0.0621 -2.7142
11266TIP3    H255214   1.999   6.167  14.483 -1.1042 -0.6823  0.6296
11267TIP3   OH255215   5.776   3.838  11.415  0.2581 -0.2208 -0.2223
11267TIP3    H155216   5.781   3.882  11.330 -0.0869 -0.0962 -0.1810
11267TIP3    H255217   5.727   3.900  11.470 -0.0319 -0.5621 -0.0991
11268TIP3   OH255218   0.700   4.491  13.700  0.5201 -0.1871 -0.0766
11268TIP3    H155219   0.755   4.503  13.623  0.5748  0.4265  0.0562
11268TIP3    H255220   0.734   4.553  13.764  1.8548 -2.2286  1.2146
11269TIP3   OH255221   1.420   4.250  13.823 -0.8332  0.2971 -0.0004
11269TIP3    H155222   1.333   4.212  13.810 -0.0631 -1.7265  0.5775
11269TIP3    H255223   1.472   4.179  13.860  1.0696  1.4843 -0.3168
11270TIP3   OH255224   4.009   1.595   3.568  0.5205 -0.1339  0.5397
11270TIP3    H155225   4.003   1.678   3.522  0.4420 -0.3339  0.1825
11270TIP3    H255226   3.922   1.555   3.556  1.2040 -1.1993 -1.0807
11271TIP3   OH255227   5.313   2.213  16.602  0.4156 -0.5047 -0.3774
11271TIP3    H155228   5.406   2.211  16.622  0.6710 -1.0358 -1.5398
11271TIP3    H255229   5.300   2.292  16.551 -0.0354  0.2847  0.9270
11272TIP3   OH255230   5.346   2.823  17.006 -0.1116  0.1124 -0.3571
11272TIP3    H155231   5.399   2.876  16.946 -0.6538  0.2251 -0.7401
11272TIP3    H255232   5.386   2.837  17.092 -0.3072  1.2259 -0.4356
11273TIP3   OH255233   1.181   1.068   5.245 -0.4238  0.0198  0.4928
11273TIP3    H155234   1.095   1.091   5.279 -1.2097  2.4316 -2.8247
11273TIP3    H255235   1.243   1.111   5.304 -1.5805  0.3937  1.4310
11274TIP3   OH255236   6.704   0.388   6.139 -0.1747  0.3875 -0.3843
11274TIP3    H155237   6.617   0.348   6.139  0.5256 -1.2444  2.4462
11274TIP3    H255238   6.757   0.329   6.087  0.4481 -1.5346  2.3451
11275TIP3   OH255239   0.322   1.938   0.242  0.2542  0.0588  0.1291
11275TIP3    H155240   0.409   1.909   0.270  0.5115 -0.1770 -0.9031
11275TIP3    H255241   0.338   1.995   0.167 -0.6025 -1.8736 -1.5679
11276TIP3   OH255242   5.557   1.392  14.178  0.3678  0.2454  0.2703
11276TIP3    H155243   5.463   1.390  14.157  0.5157  0.4436 -0.4285
11276TIP3    H255244   5.578   1.301  14.201  0.2364 -0.0206 -0.6273
11277TIP3   OH255245   0.874   3.435  13.279 -0.3195 -0.0985  0.5639
11277TIP3    H155246   0.818   3.505  13.247  0.1028  0.0565  0.1689
11277TIP3    H255247   0.821   3.390  13.345 -1.4683 -0.8852 -0.8611
11278TIP3   OH255248   5.689   5.913  11.101  0.2079  0.3038 -0.2537
11278TIP3    H155249   5.635   5.990  11.116  0.0674  0.0570  0.5725
11278TIP3    H255250   5.754   5.940  11.037  0.0138  1.0346 -0.1384
11279TIP3   OH255251   0.134   3.773  14.884  0.1611  0.3579 -0.7976
11279TIP3    H155252   0.186   3.844  14.921 -0.4420  0.9817 -1.1336
11279TIP3    H255253   0.044   3.808  14.882  0.2602  0.5215 -3.2890
11280TIP3   OH255254   3.531   0.971  13.967 -0.0257 -0.0012 -0.3582
11280TIP3    H155255   3.596   0.929  14.024 -0.0167  0.6840  0.1485
11280TIP3    H255256   3.569   0.966  13.879 -0.5012 -1.9774 -0.4675
11281TIP3   OH255257   0.534   0.796   5.380  0.0247  0.0406  0.7166
11281TIP3    H155258   0.472   0.764   5.314  1.1202 -1.0762  0.2131
11281TIP3    H255259   0.601   0.842   5.329 -0.9261  2.1981  1.3409
11282TIP3   OH255260   5.085   6.669  16.605  0.2274  0.1562 -0.5258
11282TIP3    H155261   5.165   6.701  16.564 -0.4437  1.9151 -0.5155
11282TIP3    H255262   5.020   6.736  16.586 -0.9812 -0.7437  0.3578
11283TIP3   OH255263   2.390   4.218  14.705  0.2339  0.2615  0.3844
11283TIP3    H155264   2.397   4.154  14.776 -5.0668  0.2971  1.1296
11283TIP3    H255265   2.341   4.291  14.742 -0.4198  1.4312 -2.6117
11284TIP3   OH255266   4.961   2.505  12.542 -0.5521  0.1964 -0.3928
11284TIP3    H155267   4.878   2.483  12.500 -0.0099 -0.2469 -1.2651
11284TIP3    H255268   5.027   2.465  12.485  0.1382 -2.4319  2.0812
11285TIP3   OH255269   1.639   0.544  12.573 -0.7169  0.2044  0.3383
11285TIP3    H155270   1.715   0.599  12.553  1.1689 -2.3303  0.2459
11285TIP3    H255271   1.564   0.591  12.536  0.9891  2.0419 -0.8663
11286TIP3   OH255272   4.502   5.426  14.292 -0.0319 -0.0346 -0.1547
11286TIP3    H155273   4.594   5.429  14.267 -0.3591  1.4491 -1.2330
11286TIP3    H255274   4.455   5.422  14.209 -0.9580 -0.3726  0.3795
11287TIP3   OH255275   1.941   5.950  11.206  0.1677 -0.1211  0.0673
11287TIP3    H155276   1.903   6.012  11.144  1.4599  0.9834  0.3497
11287TIP3    H255277   1.900   5.866  11.185 -1.3434  0.7527 -0.5573
11288TIP3   OH255278   5.072   5.308  15.385 -0.1423 -0.1186 -0.5551
11288TIP3    H155279   5.133   5.381  15.397  0.1712 -0.1070 -2.1563
11288TIP3    H255280   5.107   5.259  15.311 -1.3842 -0.8296 -0.6848
11289TIP3   OH255281   1.146   3.942  15.856 -0.0091 -0.1659  0.0717
11289TIP3    H155282   1.148   3.852  15.822  2.1133 -0.2115  0.2680
11289TIP3    H255283   1.238   3.964  15.870 -0.5400  1.9183  0.3728
11290TIP3   OH255284   2.975   2.249  13.969  0.0302  0.5890  0.1141
11290TIP3    H155285   3.009   2.161  13.952 -1.3645  0.0912 -0.1415
11290TIP3    H255286   2.983   2.294  13.885 -1.3740 -0.0268 -0.3708
11291TIP3   OH255287   4.683   5.356   4.451 -0.4537  0.5652 -0.5193
11291TIP3    H155288   4.716   5.266   4.447 -0.6431  0.4661  0.1773
11291TIP3    H255289   4.689   5.387   4.360 -0.7302 -0.2686 -0.8311
11292TIP3   OH255290   6.313   4.597   3.123 -0.4397 -0.0202  0.0048
11292TIP3    H155291   6.248   4.575   3.189  1.2707 -0.8373  1.4489
11292TIP3    H255292   6.388   4.628   3.173 -0.1046  1.9805 -1.6826
11293TIP3   OH255293   1.330   0.065   3.571 -0.0010 -0.0870  0.4415
11293TIP3    H155294   1.403   0.051   3.631  0.6048 -1.5590 -0.5896
11293TIP3    H255295   1.363   0.037   3.486 -0.8574  1.9257 -0.5829
11294TIP3   OH255296   5.696   4.635   5.972  0.0695  0.1972  0.3268
11294TIP3    H155297   5.672   4.693   6.045 -3.2142  0.9899 -1.2651
11294TIP3    H255298   5.659   4.550   5.996 -2.3087  0.7982 -0.9436
11295TIP3   OH255299   0.458   2.753  15.043  0.1774 -0.0476 -0.0421
11295TIP3    H155300   0.481   2.845  15.053 -0.0772 -0.0834  1.0248
11295TIP3    H255301   0.410   2.748  14.961  0.0408  0.8024 -0.0142
11296TIP3   OH255302   6.093   1.960  15.560  0.6868 -0.3330  0.6695
11296TIP3    H155303   6.034   2.033  15.576 -1.3509 -2.0939  1.3837
11296TIP3    H255304   6.144   1.953  15.641 -0.9283 -1.3082  1.6321
11297TIP3   OH255305   5.857   0.409  12.249  0.1351 -0.0255 -0.0988
11297TIP3    H155306   5.852   0.350  12.173 -2.5164  1.0190 -0.7551
11297TIP3    H255307   5.830   0.354  12.323  2.1044 -0.8631  0.0514
11298TIP3   OH255308   1.999   3.091   5.875 -0.0274 -0.1247  0.7057
11298TIP3    H155309   1.949   3.038   5.812 -0.1112  0.2427  0.4616
11298TIP3    H255310   1.942   3.164   5.896 -0.5035 -0.8918  2.1760
11299TIP3   OH255311   0.678   3.587  12.379  0.4300  0.4145  0.0929
11299TIP3    H155312   0.741   3.538  12.433  0.6230  0.2800 -0.2567
11299TIP3    H255313   0.715   3.586  12.291 -0.3209 -0.1050 -0.2198
11300TIP3   OH255314   1.606   3.991  16.771  0.7166  0.1540 -0.3091
11300TIP3    H155315   1.681   3.966  16.717  1.0162  0.5599 -0.0840
11300TIP3    H255316   1.540   3.925  16.751  0.6824  0.5366 -1.4714
11301TIP3   OH255317   4.647   1.720  13.745 -0.4202  0.2289 -0.2015
11301TIP3    H155318   4.630   1.657  13.815  1.6317  0.9201  0.9820
11301TIP3    H255319   4.637   1.805  13.787 -0.7897  0.6755 -1.1762
11302TIP3   OH255320   5.151   4.127   0.539  0.1081 -0.6849  0.2281
11302TIP3    H155321   5.127   4.099   0.627  1.0839 -0.5086  0.5491
11302TIP3    H255322   5.085   4.193   0.517  0.4039 -0.0598  1.1896
11303TIP3   OH255323   6.213   1.332   1.901  0.1179  0.6226 -0.0654
11303TIP3    H155324   6.223   1.245   1.864 -1.8587  0.0715  0.6323
11303TIP3    H255325   6.168   1.318   1.985 -1.6204  2.3969 -0.6514
11304TIP3   OH255326   4.270   1.647   0.240 -0.5370  0.6382  0.2140
11304TIP3    H155327   4.220   1.603   0.309 -0.0499  0.9975  0.8006
11304TIP3    H255328   4.208   1.710   0.203 -0.7619  0.5347  0.4134
11305TIP3   OH255329   5.620   1.503   1.539 -0.1366 -0.1632 -1.0626
11305TIP3    H155330   5.604   1.488   1.632  1.4666 -1.1282 -0.9408
11305TIP3    H255331   5.540   1.473   1.496 -0.6049 -0.3723 -0.0624
11306TIP3   OH255332   6.589   2.092  16.001  0.3023 -0.0747  0.2982
11306TIP3    H155333   6.681   2.069  16.014  0.5925  1.3915  0.8988
11306TIP3    H255334   6.549   2.012  15.967  2.5512  0.3659 -3.7168
11307TIP3   OH255335   2.704   1.694  16.352  0.1037 -0.4251  0.6097
11307TIP3    H155336   2.754   1.773  16.332  0.5863 -0.8776  0.0295
11307TIP3    H255337   2.655   1.676  16.272  0.4138 -1.0281  0.5570
11308TIP3   OH255338   3.409   4.681   1.483  0.1462  0.4645  0.3521
11308TIP3    H155339   3.444   4.666   1.571  0.2455  1.4558  0.4849
11308TIP3    H255340   3.364   4.599   1.461  2.0722 -0.6417  0.3823
11309TIP3   OH255341   3.738   0.345  11.212  0.3883  0.5634 -0.8883
11309TIP3    H155342   3.666   0.401  11.183 -0.5933 -1.0063 -1.5283
11309TIP3    H255343   3.811   0.369  11.156  0.3758  2.1732 -0.2352
11310TIP3   OH255344   1.419   4.658   3.863  0.6981 -0.4848  0.5504
11310TIP3    H155345   1.410   4.614   3.947  0.1574 -1.3851  0.0352
11310TIP3    H255346   1.399   4.590   3.798 -1.0542  0.7536 -0.2512
11311TIP3   OH255347   4.726   5.527   3.955 -0.1746  0.0962  0.0833
11311TIP3    H155348   4.755   5.617   3.966 -1.1268  0.4656 -0.3720
11311TIP3    H255349   4.729   5.512   3.861  0.1447 -0.4085  0.1700
11312TIP3   OH255350   6.089   6.294  15.115  0.6811  0.7023  0.1014
11312TIP3    H155351   6.091   6.239  15.037  1.8956  0.5674  0.2153
11312TIP3    H255352   6.161   6.356  15.103 -1.1387  2.8136 -0.3834
11313TIP3   OH255353   0.121   4.888  12.686  0.0078  0.3137  0.6553
11313TIP3    H155354   0.198   4.942  12.701 -0.3399  1.3419 -1.1979
11313TIP3    H255355   0.145   4.802  12.722  2.0770  0.5540 -0.0830
11314TIP3   OH255356   4.181   3.085  14.788 -0.4614  0.4392  0.0604
11314TIP3    H155357   4.118   3.099  14.859 -0.2455  0.7999  0.1842
11314TIP3    H255358   4.139   3.122  14.711 -0.9415 -0.4626 -0.1268
11315TIP3   OH255359   1.322   5.080   5.273 -0.0926 -0.3564 -0.3481
11315TIP3    H155360   1.302   4.988   5.255  1.1529 -0.9536  1.1901
11315TIP3    H255361   1.271   5.101   5.352  1.4351 -0.4463  0.6870
11316TIP3   OH255362   1.719   3.259  16.991  0.3723 -0.0667 -0.0388
11316TIP3    H155363   1.653   3.248  16.923  0.7085  0.5696 -0.4756
11316TIP3    H255364   1.674   3.234  17.072 -0.2725 -0.0583 -0.3879
11317TIP3   OH255365   4.787   3.026   5.169  0.7264  0.0705  0.1746
11317TIP3    H155366   4.697   3.024   5.136  0.4770  0.0606  0.8582
11317TIP3    H255367   4.828   3.098   5.120  0.7226 -0.7632 -1.0812
11318TIP3   OH255368   3.299   4.831  13.143 -0.1468  0.1337  0.3325
11318TIP3    H155369   3.290   4.762  13.078 -1.7018  0.2984  0.3608
11318TIP3    H255370   3.393   4.846  13.149  0.1645 -1.5158 -0.1580
11319TIP3   OH255371   3.297   2.697  12.497 -0.3155  0.2637  0.6199
11319TIP3    H155372   3.336   2.627  12.550  0.1333  1.3256  1.7026
11319TIP3    H255373   3.312   2.777  12.547  1.6371  1.5361 -1.8704
11320TIP3   OH255374   4.855   0.088   4.470 -0.8853  0.1602 -0.5273
11320TIP3    H155375   4.915   0.061   4.400 -0.4629  1.7063 -0.7987
11320TIP3    H255376   4.770   0.094   4.427 -1.3569 -2.5130 -0.0285
11321TIP3   OH255377   3.370   4.406  15.465 -0.0082 -0.1426 -0.2025
11321TIP3    H155378   3.431   4.402  15.539 -0.9622 -1.3013  0.5288
11321TIP3    H255379   3.326   4.321  15.465  0.6600 -0.5274 -2.7051
11322TIP3   OH255380   0.234   6.259   1.931 -0.4836 -0.0059 -0.4178
11322TIP3    H155381   0.295   6.187   1.946 -1.9741 -1.3490 -0.6316
11322TIP3    H255382   0.183   6.232   1.854 -2.1894  0.4687  0.5079
11323TIP3   OH255383   1.537   3.544  17.128 -0.2696 -0.3054 -0.5985
11323TIP3    H155384   1.600   3.557  17.198 -0.3515  0.7375 -0.7089
11323TIP3    H255385   1.453   3.571  17.165 -0.6019 -1.3353 -0.5730
11324TIP3   OH255386   0.196   0.946  12.283  0.2691  0.0867  1.1355
11324TIP3    H155387   0.177   1.023  12.337  0.4080 -0.2656  1.6950
11324TIP3    H255388   0.225   0.880  12.346  1.1304 -0.1003  0.5470
11325TIP3   OH255389   2.299   0.247  11.027  0.0792  0.5495 -0.2009
11325TIP3    H155390   2.375   0.304  11.034  0.7822 -0.3229 -0.5714
11325TIP3    H255391   2.334   0.159  11.041 -1.4713  0.4383  3.3660
11326TIP3   OH255392   0.743   6.743   4.723 -0.0399 -0.0216  0.3018
11326TIP3    H155393   0.805   6.684   4.764 -0.9532 -0.1247  1.5642
11326TIP3    H255394   0.658   6.721   4.762 -0.9881 -0.2724 -1.7916
11327TIP3   OH255395   1.325   5.654  12.769  0.1394 -0.8133  0.1173
11327TIP3    H155396   1.297   5.720  12.707  2.1111 -0.1693 -0.1169
11327TIP3    H255397   1.311   5.694  12.855  0.7123 -0.3326 -0.0082
11328TIP3   OH255398   0.161   5.674  16.536 -0.3266  0.0205  0.1617
11328TIP3    H155399   0.226   5.614  16.500  0.3156  0.3331  0.7729
11328TIP3    H255400   0.092   5.617  16.569  0.0864 -0.3710  0.3639
11329TIP3   OH255401   0.423   3.959  12.994  0.0975 -0.0894 -0.7765
11329TIP3    H155402   0.380   3.905  12.927  0.9716 -1.3104 -0.3641
11329TIP3    H255403   0.361   3.959  13.068  0.0902 -0.5278 -0.7808
11330TIP3   OH255404   4.760   6.063   0.997  0.0464 -0.4718 -0.0780
11330TIP3    H155405   4.808   5.993   0.952  0.2772 -0.8650  0.7526
11330TIP3    H255406   4.747   6.029   1.086 -0.7428  0.1203  0.0392
11331TIP3   OH255407   6.178   4.115  11.621  0.0685 -0.8658  0.2230
11331TIP3    H155408   6.089   4.120  11.585 -0.5709  1.4374  1.9420
11331TIP3    H255409   6.211   4.205  11.613  2.0563 -1.6025  0.0635
11332TIP3   OH255410   0.002   3.272  15.593 -0.2698  0.0571  0.1653
11332TIP3    H155411   0.013   3.311  15.507  0.3454  0.6562  0.5111
11332TIP3    H255412  -0.084   3.304  15.623 -1.1722 -1.3661 -0.8435
11333TIP3   OH255413   6.165   1.175   3.245 -0.1879  0.1035  0.3029
11333TIP3    H155414   6.117   1.258   3.243 -0.4808  0.0029  2.1889
11333TIP3    H255415   6.235   1.186   3.181 -2.4658  0.4128 -2.2227
11334TIP3   OH255416   5.202   3.614   4.291 -0.0305  0.2264 -0.3543
11334TIP3    H155417   5.183   3.528   4.326  3.0273 -0.6370 -0.6735
11334TIP3    H255418   5.167   3.612   4.202  0.2414 -0.7892 -0.4455
11335TIP3   OH255419   3.689   0.603  14.824  0.7842 -0.1997  0.2877
11335TIP3    H155420   3.704   0.638  14.912 -0.5035  0.4984  0.2460
11335TIP3    H255421   3.637   0.670  14.781 -0.5784 -1.5857 -0.2499
11336TIP3   OH255422   4.110   5.489   5.046  0.3891 -0.3511 -0.1580
11336TIP3    H155423   4.190   5.444   5.018 -0.4897 -0.4448 -2.6002
11336TIP3    H255424   4.138   5.579   5.062  0.9889 -0.3767 -1.0282
11337TIP3   OH255425   1.943   2.411  14.220  0.3291  0.5411 -0.1417
11337TIP3    H155426   2.011   2.395  14.155  0.7226 -1.3623  0.7035
11337TIP3    H255427   1.985   2.391  14.304 -0.7506  1.0353  0.5239
11338TIP3   OH255428   5.049   4.409   6.579 -0.2507  0.2824 -0.4498
11338TIP3    H155429   5.106   4.339   6.547  1.4566  1.3162  0.2293
11338TIP3    H255430   5.101   4.489   6.567 -0.7225  1.0237  2.0586
11339TIP3   OH255431   2.569   3.333  14.202 -0.1026  0.1407  0.2064
11339TIP3    H155432   2.508   3.364  14.269 -1.3877  1.0600 -1.3648
11339TIP3    H255433   2.518   3.331  14.121  1.0679 -2.1631 -0.5504
11340TIP3   OH255434   0.527   5.142  11.617  0.0712  0.0875  0.4455
11340TIP3    H155435   0.568   5.058  11.637  0.5245 -0.2838 -1.8424
11340TIP3    H255436   0.433   5.127  11.631 -0.0997 -1.4984 -2.0484
11341TIP3   OH255437   5.292   4.861   1.859  0.1133 -0.3556  0.1360
11341TIP3    H155438   5.248   4.778   1.843 -0.0290 -0.1788 -0.4026
11341TIP3    H255439   5.321   4.856   1.950  0.6918 -1.2716 -0.0951
11342TIP3   OH255440   0.165   0.595   2.228  0.5346  0.0610 -0.3563
11342TIP3    H155441   0.120   0.679   2.217  0.9218  0.1925 -0.9537
11342TIP3    H255442   0.154   0.573   2.321 -1.0663 -0.0803 -0.5641
11343TIP3   OH255443   4.140   0.945  16.055  0.7212  0.3546  0.1665
11343TIP3    H155444   4.218   1.000  16.042  0.4175  1.7420  3.5598
11343TIP3    H255445   4.090   0.991  16.123 -1.3527 -2.2975  0.4900
11344TIP3   OH255446   4.924   3.557   0.569  0.4458 -0.6859  0.5782
11344TIP3    H155447   4.939   3.630   0.508 -2.8424 -0.7685 -0.4720
11344TIP3    H255448   4.921   3.480   0.512 -0.5520 -1.0369  1.1054
11345TIP3   OH255449   0.526   6.501   4.288 -0.4912  0.4439 -0.5335
11345TIP3    H155450   0.457   6.476   4.349  0.1919  1.5420  0.7125
11345TIP3    H255451   0.597   6.439   4.306 -0.3247  0.7104 -0.2572
11346TIP3   OH255452   0.439   3.554   2.993 -0.6630  0.1231  0.9554
11346TIP3    H155453   0.434   3.637   2.947 -0.1447  0.8206  2.1483
11346TIP3    H255454   0.361   3.552   3.049  0.2127  0.5941  2.2150
11347TIP3   OH255455   3.572   2.705   6.388  0.1800 -0.3989  0.0311
11347TIP3    H155456   3.490   2.661   6.410  0.5321 -1.4607 -0.7437
11347TIP3    H255457   3.549   2.798   6.382 -0.7247 -0.5676  0.9388
11348TIP3   OH255458   6.397   6.263  16.683  0.4312 -0.1861  0.0417
11348TIP3    H155459   6.483   6.226  16.662 -0.5582 -1.2300 -2.4328
11348TIP3    H255460   6.336   6.215  16.626 -1.4648  2.2362 -0.0496
11349TIP3   OH255461   2.216   2.914   5.153  0.5971 -0.3677 -0.4732
11349TIP3    H155462   2.259   2.982   5.204  0.2659  0.0625 -0.7648
11349TIP3    H255463   2.237   2.934   5.062  0.4453 -0.6178 -0.5651
11350TIP3   OH255464   3.337   2.868   5.965 -0.1933  0.2180  0.3340
11350TIP3    H155465   3.254   2.841   5.927 -0.4426 -0.3709  1.2698
11350TIP3    H255466   3.319   2.877   6.059  0.7215  0.3752  0.5022
11351TIP3   OH255467   5.346   4.443  16.976 -0.1137 -0.0163  0.1554
11351TIP3    H155468   5.293   4.478  17.048  1.0601  3.0650 -0.3861
11351TIP3    H255469   5.306   4.479  16.897 -1.0350 -2.9025 -0.7233
11352TIP3   OH255470   2.509   1.373   3.859  0.7601 -0.0653 -0.3179
11352TIP3    H155471   2.602   1.388   3.842  0.8518  0.4367  0.5885
11352TIP3    H255472   2.483   1.305   3.797  2.5837 -2.7512  1.7409
11353TIP3   OH255473   3.427   2.116   1.798  0.3466  0.3147  0.6644
11353TIP3    H155474   3.419   2.095   1.891  1.4788 -0.0755  0.6899
11353TIP3    H255475   3.354   2.071   1.757 -0.4814  0.9390  1.4329
11354TIP3   OH255476   5.362   0.954  10.828  0.2942 -0.1128  0.6467
11354TIP3    H155477   5.398   1.036  10.793  0.0518  0.0411  0.7590
11354TIP3    H255478   5.399   0.887  10.771  1.0334  0.0104  0.9715
11355TIP3   OH255479   2.486   2.942  11.460 -0.2515  0.2115 -0.0324
11355TIP3    H155480   2.521   3.018  11.507 -1.0870  1.6980 -1.7353
11355TIP3    H255481   2.392   2.946  11.476 -0.3239 -0.3239 -0.3261
11356TIP3   OH255482   4.930   2.335   3.974 -0.4807  0.6467  0.2405
11356TIP3    H155483   5.009   2.285   3.956 -0.4809  0.2728  1.2827
11356TIP3    H255484   4.872   2.274   4.019 -0.7326  1.3798  0.9254
11357TIP3   OH255485   4.842   3.486   3.121  0.1336  0.3684 -0.8814
11357TIP3    H155486   4.794   3.475   3.038 -2.2726  0.6991  0.4302
11357TIP3    H255487   4.777   3.469   3.189  1.7666  1.3616  0.9721
11358TIP3   OH255488   0.941   2.447  13.890 -0.3278  0.3918  0.6548
11358TIP3    H155489   0.943   2.415  13.980  2.2925 -0.0393  0.4819
11358TIP3    H255490   1.033   2.457  13.866 -0.9235 -0.8271 -2.4233
11359TIP3   OH255491   3.117   5.323  15.559  0.4178  0.0421  0.1808
11359TIP3    H155492   3.151   5.242  15.597  0.0287  0.6388  1.8765
11359TIP3    H255493   3.022   5.311  15.560  0.3901  0.2285 -0.2496
11360TIP3   OH255494   3.439   4.682  11.785  0.3869 -0.4777  0.8316
11360TIP3    H155495   3.407   4.726  11.706 -0.3943  1.7387  2.3428
11360TIP3    H255496   3.499   4.746  11.825  0.9677 -1.6830  1.9068
11361TIP3   OH255497   6.211   1.007  16.067  0.1404 -0.4799  0.5546
11361TIP3    H155498   6.193   1.067  16.139 -0.3074 -0.9021  0.7955
11361TIP3    H255499   6.293   0.964  16.091  0.3527 -0.1157  0.4822
11362TIP3   OH255500   0.372   0.189   6.358  0.4446  0.7133 -0.2512
11362TIP3    H155501   0.362   0.284   6.363  0.7425  0.6647  1.3297
11362TIP3    H255502   0.450   0.170   6.409 -0.5502 -0.5478  0.8276
11363TIP3   OH255503   2.950   2.979   3.130  0.2192 -0.3202 -0.4253
11363TIP3    H155504   2.993   3.034   3.196  1.9917 -1.7736 -0.3000
11363TIP3    H255505   2.869   3.025   3.108  0.7226  1.3334  1.0851
11364TIP3   OH255506   2.781   5.024  12.048 -0.2317  0.3210  0.1958
11364TIP3    H155507   2.736   5.027  11.963  0.4324 -0.9808 -0.2105
11364TIP3    H255508   2.714   4.994  12.110 -0.6712  1.1092  0.1113
11365TIP3   OH255509   6.537   3.525   0.496  0.4883 -0.2918  0.8105
11365TIP3    H155510   6.516   3.522   0.589 -0.3154 -0.3447  0.6312
11365TIP3    H255511   6.556   3.433   0.473  0.6051 -0.2908  0.9039
11366TIP3   OH255512   2.052   2.012  15.059  0.5869 -0.3884  0.2401
11366TIP3    H155513   2.128   1.961  15.032  2.2342  2.5650 -0.9166
11366TIP3    H255514   2.080   2.056  15.139 -0.2497  0.0074  0.3195
11367TIP3   OH255515   4.770   3.923  13.844  0.6351  0.2582 -0.0429
11367TIP3    H155516   4.803   3.980  13.914  2.7122 -1.1037  0.1276
11367TIP3    H255517   4.699   3.874  13.885  1.0820  0.2989  0.8065
11368TIP3   OH255518   5.849   4.538   0.553  0.0107 -0.8800  0.0692
11368TIP3    H155519   5.874   4.614   0.607 -0.1644  0.3514 -1.5430
11368TIP3    H255520   5.933   4.496   0.531  0.1690 -0.7070  0.3315
11369TIP3   OH255521   5.305   1.657   1.207  0.5194  0.0122  0.0778
11369TIP3    H155522   5.292   1.612   1.124  0.9434 -1.5195  0.8277
11369TIP3    H255523   5.299   1.589   1.274 -0.1623  1.2723  1.3493
11370TIP3   OH255524   1.527   1.559   4.430  0.1578 -0.1359 -0.2219
11370TIP3    H155525   1.448   1.550   4.483  0.4776 -0.2924  0.2333
11370TIP3    H255526   1.514   1.498   4.357  0.6594 -1.5349  0.8325
11371TIP3   OH255527   0.872   6.152   1.791 -0.6895  0.0165  0.0689
11371TIP3    H155528   0.777   6.162   1.791 -0.6030  0.9187  0.0571
11371TIP3    H255529   0.906   6.242   1.782  0.1503 -0.5026 -2.5650
11372TIP3   OH255530   6.440   3.167   1.449  0.1635 -0.1624 -0.2047
11372TIP3    H155531   6.498   3.237   1.478  0.3585 -0.0520 -0.8543
11372TIP3    H255532   6.354   3.191   1.482 -0.3224  1.8109 -2.7456
11373TIP3   OH255533   6.438   1.032  11.897 -0.6292 -0.0836 -0.4114
11373TIP3    H155534   6.353   1.074  11.909 -0.9127 -1.0064  0.9606
11373TIP3    H255535   6.501   1.092  11.935 -0.9529 -0.5379  0.8650
11374TIP3   OH255536   6.513   1.421   5.184  0.1640  0.2485 -0.5997
11374TIP3    H155537   6.511   1.450   5.275  1.1506 -0.0338 -0.4794
11374TIP3    H255538   6.541   1.499   5.135 -0.1253  0.3329 -0.6279
11375TIP3   OH255539   1.756   0.631   6.789 -0.0016  0.0346 -0.0872
11375TIP3    H155540   1.737   0.643   6.882 -0.0362 -0.6576 -0.0029
11375TIP3    H255541   1.731   0.714   6.748 -1.2813 -0.1463  0.3144
11376TIP3   OH255542   2.028   0.256   2.628 -0.0886  0.1267 -0.6862
11376TIP3    H155543   2.021   0.309   2.708  0.2222 -0.8545 -0.0078
11376TIP3    H255544   2.107   0.289   2.585  0.4821 -0.2209  0.0710
11377TIP3   OH255545   1.825   0.529  15.159 -0.0243 -0.2482  0.2239
11377TIP3    H155546   1.859   0.528  15.248  0.8434  0.0681 -0.0943
11377TIP3    H255547   1.879   0.464  15.112 -1.1334 -1.1382  0.1623
11378TIP3   OH255548   4.617   0.834   4.046  0.1489  0.0079 -0.1105
11378TIP3    H155549   4.673   0.912   4.045  1.5616 -1.0063 -0.7472
11378TIP3    H255550   4.618   0.805   4.137 -0.9357  1.1066  0.2724
11379TIP3   OH255551   5.461   4.911   2.084 -0.6061 -0.2268  0.0961
11379TIP3    H155552   5.511   4.830   2.097 -0.3524  0.0128  0.6468
11379TIP3    H255553   5.516   4.964   2.027 -1.2239 -0.8407 -1.0780
11380TIP3   OH255554   1.147   3.168   0.751  0.4815  0.0116 -0.0558
11380TIP3    H155555   1.170   3.097   0.691 -1.3923  1.4509 -2.5822
11380TIP3    H255556   1.067   3.140   0.793  0.1569  0.2723 -0.4901
11381TIP3   OH255557   6.301   1.975   0.887 -0.1369  0.6776  0.3411
11381TIP3    H155558   6.225   2.021   0.922 -1.0959 -0.3852 -0.3428
11381TIP3    H255559   6.375   2.008   0.940 -1.5315 -0.8229  3.3918
11382TIP3   OH255560   5.280   4.339   1.163  0.3545  0.2495  0.5788
11382TIP3    H155561   5.355   4.288   1.194  2.0502  1.9601 -0.5871
11382TIP3    H255562   5.226   4.276   1.115  0.6736 -1.1434  1.9925
11383TIP3   OH255563   0.687   1.610   4.606 -0.1636 -0.7677 -0.5291
11383TIP3    H155564   0.729   1.671   4.668  2.9213 -2.0983 -1.1938
11383TIP3    H255565   0.655   1.539   4.661 -1.8421  0.4020  0.0258
11384TIP3   OH255566   5.536   4.243  13.790  0.8769  0.0301 -0.3234
11384TIP3    H155567   5.569   4.160  13.825  0.9189 -0.0157 -0.4739
11384TIP3    H255568   5.540   4.303  13.864 -0.3434 -0.4399  0.1391
11385TIP3   OH255569   6.246   3.687   4.368 -0.0149 -0.0700 -1.0035
11385TIP3    H155570   6.194   3.662   4.292  0.4934 -0.7704 -1.1222
11385TIP3    H255571   6.337   3.672   4.342  0.2903  1.6125 -0.9679
11386TIP3   OH255572   1.576   5.656  14.512  0.0977 -0.2508  0.0340
11386TIP3    H155573   1.592   5.589  14.577 -0.5365 -1.1431 -0.7171
11386TIP3    H255574   1.528   5.724  14.559 -1.9745 -1.6992  0.0920
11387TIP3   OH255575   2.343   4.740   2.815  0.1572  0.3571 -0.1721
11387TIP3    H155576   2.275   4.734   2.883 -0.7543 -0.0035 -1.0940
11387TIP3    H255577   2.419   4.777   2.860 -0.6047  0.6287  0.9162
11388TIP3   OH255578   4.831   3.554  14.894  0.3431  0.2831  0.4183
11388TIP3    H155579   4.895   3.537  14.825 -0.0763 -0.2997  0.1699
11388TIP3    H255580   4.843   3.646  14.916 -0.1235  0.6966 -1.0452
11389TIP3   OH255581   4.125   3.175  17.071 -0.0719  0.5625 -0.4720
11389TIP3    H155582   4.194   3.227  17.029  0.9348 -1.2669 -1.1562
11389TIP3    H255583   4.168   3.092  17.094 -1.6371  0.0161  0.5642
11390TIP3   OH255584   2.315   6.231   0.654  0.2408 -0.5901  0.4271
11390TIP3    H155585   2.379   6.274   0.711 -0.3970 -0.5723  1.1373
11390TIP3    H255586   2.336   6.262   0.566 -0.0856  1.0037  0.9017
11391TIP3   OH255587   6.437   6.607   5.518  0.2533 -0.6925 -0.1672
11391TIP3    H155588   6.524   6.574   5.497 -0.1466 -3.3207  1.9882
11391TIP3    H255589   6.378   6.561   5.457  0.2577  0.3386 -0.9593
11392TIP3   OH255590   2.369   4.540  17.206 -0.7125 -0.0638 -0.4743
11392TIP3    H155591   2.318   4.604  17.256 -2.1587 -0.2992 -1.5911
11392TIP3    H255592   2.392   4.472  17.270 -1.8258  0.0433  0.0574
11393TIP3   OH255593   5.638   1.869   4.399 -0.1077 -0.9086  0.5023
11393TIP3    H155594   5.698   1.808   4.441 -0.3656  0.9487  3.6889
11393TIP3    H255595   5.694   1.931   4.353  0.2299 -1.8950 -0.4419
11394TIP3   OH255596   1.126   5.690   3.811 -0.0320  0.0072  0.0430
11394TIP3    H155597   1.068   5.685   3.735  1.4300 -2.2536 -0.9955
11394TIP3    H255598   1.132   5.599   3.842  3.0750  0.1637  0.0146
11395TIP3   OH255599   5.921   5.174   1.950  0.1572  0.1971  0.6722
11395TIP3    H155600   5.953   5.134   1.869  1.4882  1.8257  0.3687
11395TIP3    H255601   5.982   5.246   1.967 -1.6151  1.4888  1.7175
11396TIP3   OH255602   1.261   6.478   3.032  0.0748 -0.1796  0.3606
11396TIP3    H155603   1.306   6.559   3.008 -0.3913 -0.0349 -0.0347
11396TIP3    H255604   1.187   6.507   3.085  0.7775 -0.4590  1.5255
11397TIP3   OH255605   6.617   4.676   6.181 -0.0759  0.2319  0.0375
11397TIP3    H155606   6.627   4.696   6.274 -0.9195  0.3660  0.1056
11397TIP3    H255607   6.686   4.727   6.138  2.8714 -2.7813  0.9141
11398TIP3   OH255608   0.017   5.918   1.506 -0.2645 -0.3343  0.2699
11398TIP3    H155609   0.022   5.831   1.465 -1.5853 -0.0791 -0.4476
11398TIP3    H255610  -0.071   5.922   1.542  0.3456  0.0840  1.7450
11399TIP3   OH255611   2.391   5.428  12.701  0.1869 -0.2082 -0.8017
11399TIP3    H155612   2.398   5.459  12.791  0.7197 -1.5565 -0.3634
11399TIP3    H255613   2.438   5.494  12.649  1.2128 -0.2104  0.0945
11400TIP3   OH255614   3.813   2.621  16.942  0.2410 -0.0873  0.4341
11400TIP3    H155615   3.809   2.539  16.893 -0.5032  0.6785 -0.8320
11400TIP3    H255616   3.827   2.688  16.875  2.3322  0.6793  1.6024
11401TIP3   OH255617   3.186   0.605   2.764 -0.1892  0.2943  0.1073
11401TIP3    H155618   3.176   0.540   2.834  0.2533 -0.1798 -0.2635
11401TIP3    H255619   3.155   0.561   2.685 -1.9094  1.2705  0.2242
11402TIP3   OH255620   3.035   6.707   0.126  0.4966  0.7050  0.5929
11402TIP3    H155621   2.939   6.705   0.118  0.4977  1.8049  0.0955
11402TIP3    H255622   3.053   6.795   0.161  1.3112  0.4413  0.8331
11403TIP3   OH255623   1.759   0.618  16.297 -0.1335  0.9239  0.0781
11403TIP3    H155624   1.779   0.710  16.315 -2.1067  1.1648  1.1876
11403TIP3    H255625   1.680   0.601  16.347  0.0216 -1.2986 -0.4015
11404TIP3   OH255626   1.126   3.467  11.415  0.2797  0.0889 -0.5650
11404TIP3    H155627   1.080   3.546  11.441  1.0119  0.4315 -0.2912
11404TIP3    H255628   1.069   3.395  11.444 -0.6853  0.5091 -1.3743
11405TIP3   OH255629   2.036   3.267   1.123  0.2655 -0.2760 -0.2000
11405TIP3    H155630   1.942   3.250   1.135  0.1291  1.7800  2.0321
11405TIP3    H255631   2.041   3.315   1.041 -0.6259 -0.4051 -0.3406
11406TIP3   OH255632   4.857   1.428  14.861 -0.4784  0.3317 -0.1883
11406TIP3    H155633   4.792   1.399  14.924  0.4171 -0.9896  0.1356
11406TIP3    H255634   4.941   1.395  14.894  0.1640  0.6902 -1.4009
11407TIP3   OH255635   3.557   2.552  16.170  0.3473  0.2159 -0.3676
11407TIP3    H155636   3.473   2.523  16.135  1.0126 -3.2544  0.7525
11407TIP3    H255637   3.613   2.562  16.094 -0.0695 -0.9103 -0.8214
11408TIP3   OH255638   5.951   5.730  17.187  0.0177 -0.2375 -0.2771
11408TIP3    H155639   6.008   5.782  17.244 -1.1352  0.1651  0.5194
11408TIP3    H255640   5.898   5.796  17.141 -1.4223 -0.6791  0.7045
11409TIP3   OH255641   1.402   6.170  11.686  0.0612  0.2930  0.3424
11409TIP3    H155642   1.446   6.178  11.601  0.2387 -2.3141  0.1467
11409TIP3    H255643   1.442   6.238  11.740 -1.1365  3.0299 -2.0750
11410TIP3   OH255644   0.406   0.921  14.464 -0.2211  0.0602  0.1929
11410TIP3    H155645   0.475   0.871  14.508 -1.9643 -1.1614  1.6176
11410TIP3    H255646   0.325   0.876  14.489 -1.6538  2.3774 -0.1951
11411TIP3   OH255647   4.518   2.828  14.924  0.3527 -0.7109  0.3761
11411TIP3    H155648   4.505   2.837  14.829  0.5015 -0.8569  0.3432
11411TIP3    H255649   4.488   2.911  14.960  0.0737 -0.7414  0.2210
11412TIP3   OH255650   0.536   4.598   1.506 -0.2913 -0.2196 -0.3616
11412TIP3    H155651   0.497   4.514   1.530 -0.0084 -0.3646 -0.4144
11412TIP3    H255652   0.621   4.599   1.550 -0.1959 -0.0587 -0.5491
11413TIP3   OH255653   0.972   5.610   5.352 -0.1245 -0.1714  0.2010
11413TIP3    H155654   1.062   5.577   5.355  1.3822  3.5873  0.1605
11413TIP3    H255655   0.954   5.621   5.259 -0.0644  0.4167  0.2549
11414TIP3   OH255656   4.019   0.586   3.588  0.2167 -0.0693  0.7319
11414TIP3    H155657   3.998   0.532   3.512  2.2910  0.5392 -0.2964
11414TIP3    H255658   3.991   0.674   3.564  2.1893  0.4002  0.0732
11415TIP3   OH255659   0.660   4.363  13.997  0.5056  0.2898  0.5383
11415TIP3    H155660   0.571   4.372  13.965  0.9568  2.0024 -0.2779
11415TIP3    H255661   0.714   4.413  13.936  2.3329 -2.4472 -0.2270
11416TIP3   OH255662   4.382   4.108   2.289  0.8788 -0.7936 -0.1755
11416TIP3    H155663   4.379   4.013   2.295 -2.0847 -0.6590  1.2937
11416TIP3    H255664   4.459   4.134   2.339  0.4216 -2.2830  1.3057
11417TIP3   OH255665   5.896   5.664   2.498  0.1972  0.1113  0.4232
11417TIP3    H155666   5.820   5.702   2.455  0.2752 -0.2946 -0.0788
11417TIP3    H255667   5.878   5.570   2.501  0.9195 -0.0480 -0.1835
11418TIP3   OH255668   2.706   6.552  12.941  0.3338  0.5820 -0.5485
11418TIP3    H155669   2.648   6.527  12.869  0.4435  0.7352 -0.6935
11418TIP3    H255670   2.779   6.490  12.936 -0.4200 -0.3989  0.4129
11419TIP3   OH255671   4.987   3.077  15.855 -0.2596 -0.0234 -0.1105
11419TIP3    H155672   4.939   2.994  15.862 -1.1555  0.5377  0.3874
11419TIP3    H255673   5.068   3.053  15.809 -0.9915 -0.9783 -0.9241
11420TIP3   OH255674   3.235   3.317  16.568 -0.5770 -0.4438 -0.3713
11420TIP3    H155675   3.215   3.385  16.632  1.4041 -0.9789  0.8537
11420TIP3    H255676   3.273   3.364  16.494  1.8839 -0.2921  0.9513
11421TIP3   OH255677   5.283   3.009   3.027  0.0445  1.0526  0.0969
11421TIP3    H155678   5.229   3.042   2.956  0.5143 -0.5618 -1.0334
11421TIP3    H255679   5.354   3.072   3.035  0.0909  1.1462 -1.0003
11422TIP3   OH255680   4.566   2.338   1.654  0.1589 -0.0240  0.1014
11422TIP3    H155681   4.567   2.387   1.572 -3.0182  0.7885  0.5007
11422TIP3    H255682   4.648   2.362   1.697 -0.4111  3.4316 -0.6106
11423TIP3   OH255683   4.454   5.097  16.851 -0.5434 -0.1939 -0.6108
11423TIP3    H155684   4.501   5.179  16.869 -0.6804 -0.0784 -0.7853
11423TIP3    H255685   4.401   5.117  16.774 -0.9608 -0.2984 -0.3472
11424TIP3   OH255686   3.824   1.078  17.080  0.1432  0.6045 -0.1637
11424TIP3    H155687   3.856   1.166  17.061  1.4617 -0.2711 -2.1813
11424TIP3    H255688   3.899   1.033  17.118 -0.7034  0.5080  1.4424
11425TIP3   OH255689   6.572   6.712   6.493 -0.8810 -0.2105  0.4624
11425TIP3    H155690   6.578   6.620   6.466  0.3973  0.2820 -0.9780
11425TIP3    H255691   6.534   6.757   6.418 -1.4575  0.4696  1.1478
11426TIP3   OH255692   3.340   6.655   4.199  0.1806 -0.5913  0.6346
11426TIP3    H155693   3.414   6.595   4.187  0.2319 -0.6352  1.1478
11426TIP3    H255694   3.265   6.608   4.163  0.1372 -1.1616  1.4444
11427TIP3   OH255695   1.409   2.808   2.047  0.2211 -0.2199 -0.1092
11427TIP3    H155696   1.396   2.775   1.958  1.2997 -0.4685 -0.1811
11427TIP3    H255697   1.416   2.730   2.101  2.9629 -0.1541 -0.3060
11428TIP3   OH255698   0.141   5.917   3.847  0.2799  0.0546 -0.1203
11428TIP3    H155699   0.134   5.943   3.939  1.4453  1.3950 -0.3836
11428TIP3    H255700   0.053   5.930   3.812 -0.0613 -0.0018  0.6893
11429TIP3   OH255701   3.524   6.249   3.314 -0.0136 -0.7751  0.9489
11429TIP3    H155702   3.487   6.161   3.303 -0.0586 -0.4948 -1.4153
11429TIP3    H255703   3.474   6.287   3.386  1.7180 -3.5602  3.7305
11430TIP3   OH255704   5.082   4.836  15.354 -0.0808 -0.1300  0.3108
11430TIP3    H155705   5.099   4.927  15.330  1.4355 -0.2575  0.8524
11430TIP3    H255706   5.165   4.805  15.390 -0.0224 -2.3059 -1.6246
11431TIP3   OH255707   0.234   3.924   4.379  0.0613 -0.2204  0.1818
11431TIP3    H155708   0.183   3.843   4.386  0.4686 -0.6177 -1.2662
11431TIP3    H255709   0.318   3.896   4.343  0.5412  0.7247  0.5630
11432TIP3   OH255710   4.407   2.457   0.244 -0.5380  0.1872 -0.3450
11432TIP3    H155711   4.338   2.517   0.270  0.1986  1.2038 -0.6925
11432TIP3    H255712   4.390   2.377   0.294 -1.2115  0.8642  0.5226
11433TIP3   OH255713   5.116   0.079  13.002  0.1891  0.9341 -0.1274
11433TIP3    H155714   5.193   0.054  13.054 -0.8530 -0.7497  0.6555
11433TIP3    H255715   5.100   0.170  13.025 -0.6286  0.0490  3.0424
11434TIP3   OH255716   6.315   2.668  14.595  0.1672 -0.2531 -0.3474
11434TIP3    H155717   6.321   2.763  14.605 -1.2907  0.1052 -2.5140
11434TIP3    H255718   6.278   2.638  14.677 -0.6911  1.2203 -0.1785
11435TIP3   OH255719   0.267   0.388  10.938  0.5541 -0.5391 -0.1620
11435TIP3    H155720   0.283   0.296  10.956 -1.5619 -0.9795 -0.3988
11435TIP3    H255721   0.309   0.405  10.854  0.3893 -1.4572 -0.4285
11436TIP3   OH255722   3.959   5.467  15.350  0.3953 -0.2773 -0.5180
11436TIP3    H155723   3.920   5.553  15.335 -0.4930 -0.7488 -0.9914
11436TIP3    H255724   4.033   5.463  15.290  0.2638  0.0453 -0.7050
11437TIP3   OH255725   3.611   2.934   6.587  0.4810 -0.3211  0.2760
11437TIP3    H155726   3.574   2.943   6.499  0.3128  1.1082  0.4811
11437TIP3    H255727   3.552   2.875   6.632  0.8824 -1.5278 -0.7465
11438TIP3   OH255728   1.574   4.995  10.326 -0.1260 -0.5765  0.7589
11438TIP3    H155729   1.654   4.993  10.274 -0.3271 -1.8293  0.4614
11438TIP3    H255730   1.538   4.907  10.317 -1.4872 -0.0517  0.9628
11439TIP3   OH255731   2.249   0.225   0.832  0.2767 -0.6442 -0.1702
11439TIP3    H155732   2.209   0.268   0.757  1.9736 -0.8867 -1.2586
11439TIP3    H255733   2.301   0.154   0.794  0.8462 -1.0255  1.2609
11440TIP3   OH255734   3.789   3.924  15.100  0.9877 -0.1172  0.0196
11440TIP3    H155735   3.741   3.843  15.115  1.2059  0.0402  1.6814
11440TIP3    H255736   3.875   3.895  15.068  0.6644 -0.4922 -0.5105
11441TIP3   OH255737   3.795   6.362  14.250 -0.0482  0.5046 -0.5785
11441TIP3    H155738   3.730   6.393  14.187 -0.6150  0.1416 -0.1862
11441TIP3    H255739   3.778   6.268  14.257  2.1336 -0.0788 -2.3215
11442TIP3   OH255740   5.308   3.428   3.185  0.3489  0.3047  0.4278
11442TIP3    H155741   5.344   3.340   3.171  0.9569  0.4302  1.1602
11442TIP3    H255742   5.226   3.429   3.136  1.0837 -0.1672 -0.8287
11443TIP3   OH255743   0.593   4.839  12.770 -0.5228  0.1172  0.0666
11443TIP3    H155744   0.528   4.862  12.703 -0.0725 -0.0531 -0.4271
11443TIP3    H255745   0.565   4.888  12.847  0.5894  2.5857 -1.0558
11444TIP3   OH255746   1.750   4.851   5.189  0.1204 -0.1471  0.0175
11444TIP3    H155747   1.824   4.790   5.188  0.1857 -0.1227  2.3449
11444TIP3    H255748   1.680   4.802   5.232 -1.3592 -0.2968 -2.4636
11445TIP3   OH255749   0.447   0.670  15.918 -0.0304  0.2764 -0.5703
11445TIP3    H155750   0.394   0.737  15.877  0.7238  1.0027 -0.3600
11445TIP3    H255751   0.446   0.692  16.012  0.4369  0.1547 -0.5340
11446TIP3   OH255752   5.242   5.228   2.129 -0.0516  0.0474  0.1224
11446TIP3    H155753   5.147   5.223   2.123 -0.1642  1.8823  0.0956
11446TIP3    H255754   5.272   5.232   2.038 -0.0489  0.8507  0.1521
11447TIP3   OH255755   0.237   3.397  15.544 -0.0969 -0.1500 -0.0918
11447TIP3    H155756   0.184   3.389  15.623 -0.7024 -2.3046 -0.6888
11447TIP3    H255757   0.174   3.397  15.472  0.5882 -0.5931 -0.6994
11448TIP3   OH255758   5.839   4.384  16.468  0.6244 -0.3675  0.1689
11448TIP3    H155759   5.756   4.364  16.425  1.0448  0.5654 -1.1234
11448TIP3    H255760   5.822   4.371  16.561 -1.2692  0.8756  0.0109
11449TIP3   OH255761   0.890   1.351  11.749  0.2684 -0.2960 -0.0675
11449TIP3    H155762   0.862   1.260  11.763 -2.3363  0.3268 -0.9764
11449TIP3    H255763   0.828   1.386  11.685  2.9867  1.2962 -1.9216
11450TIP3   OH255764   5.251   1.186  13.628 -0.8225 -0.6340 -0.4260
11450TIP3    H155765   5.176   1.132  13.652 -0.0700 -1.5258 -0.0590
11450TIP3    H255766   5.321   1.123  13.610  0.6874  0.2606  2.0725
11451TIP3   OH255767   5.834   6.748  13.185  0.4315  0.4599 -0.2580
11451TIP3    H155768   5.842   6.815  13.118  0.1262  0.4209 -0.3312
11451TIP3    H255769   5.793   6.673  13.141  0.3450  0.3904 -0.0602
11452TIP3   OH255770   6.416   1.126   1.545 -0.1699  0.6839 -0.5480
11452TIP3    H155771   6.455   1.092   1.626  0.6767  0.5617 -0.9975
11452TIP3    H255772   6.427   1.221   1.552 -0.3148  0.6904 -0.4076
11453TIP3   OH255773   1.114   0.428   0.262  0.4613  0.4440 -0.1858
11453TIP3    H155774   1.077   0.361   0.203 -0.0083  0.3253  0.2397
11453TIP3    H255775   1.038   0.464   0.307  0.7666  0.9330 -0.0578
11454TIP3   OH255776   2.800   2.979   3.898 -0.1521 -0.9766  0.3524
11454TIP3    H155777   2.892   2.957   3.882  0.5443  0.5914  1.9905
11454TIP3    H255778   2.793   3.072   3.875 -1.4138 -1.1538 -0.0352
11455TIP3   OH255779   6.045   4.267   0.700  0.1748  0.1440  0.5092
11455TIP3    H155780   6.130   4.241   0.665 -0.9003 -1.8651 -0.6765
11455TIP3    H255781   5.990   4.189   0.693 -1.7735  1.3825  1.2995
11456TIP3   OH255782   2.218   6.618   2.193 -0.6547 -0.2395  0.4256
11456TIP3    H155783   2.145   6.678   2.179 -1.3819 -1.5720 -1.5914
11456TIP3    H255784   2.195   6.539   2.144  1.8215 -0.9310  0.3106
11457TIP3   OH255785   0.153   1.151  16.342 -0.4964  0.1006 -0.3068
11457TIP3    H155786   0.164   1.091  16.268 -0.4166  1.3559 -1.3328
11457TIP3    H255787   0.079   1.116  16.390  0.1069 -1.3285 -0.3836
11458TIP3   OH255788   6.338   0.604  12.439 -0.0907  0.4773  0.4456
11458TIP3    H155789   6.297   0.524  12.408 -1.2816  1.7224 -1.2824
11458TIP3    H255790   6.411   0.618  12.379 -0.8506  1.5296 -0.2431
11459TIP3   OH255791   4.137   1.876  15.655 -0.5127  0.4260 -0.9452
11459TIP3    H155792   4.180   1.870  15.570 -1.7075 -1.9224 -1.3957
11459TIP3    H255793   4.063   1.935  15.640  0.8496  2.2071 -0.8432
11460TIP3   OH255794   4.804   3.237   0.182  0.5347  0.7765  0.2630
11460TIP3    H155795   4.783   3.144   0.174  0.3388  0.9229 -1.0982
11460TIP3    H255796   4.722   3.278   0.210  0.7115  0.5048  1.2073
11461TIP3   OH255797   1.322   4.695   0.633  0.4860 -0.1007  0.2560
11461TIP3    H155798   1.389   4.761   0.613  0.4657  0.1503  0.9961
11461TIP3    H255799   1.255   4.743   0.680  0.9593 -0.8526  1.7164
11462TIP3   OH255800   3.468   6.637   5.395  0.1776  0.2502 -0.3454
11462TIP3    H155801   3.509   6.673   5.316  0.5122 -0.3231 -0.4319
11462TIP3    H255802   3.387   6.688   5.405  0.8543  1.3263 -0.2347
11463TIP3   OH255803   3.871   3.577  12.000 -0.1822 -0.0614 -0.0181
11463TIP3    H155804   3.898   3.574  11.908 -2.1012 -0.8950 -0.5765
11463TIP3    H255805   3.853   3.486  12.023 -0.1018  0.1859  1.0806
11464TIP3   OH255806   3.449   2.144  12.832  0.4052 -0.0730 -0.1052
11464TIP3    H155807   3.361   2.182  12.825  0.1889 -0.8151 -1.5304
11464TIP3    H255808   3.494   2.174  12.754  0.9867 -0.8207 -0.0602
11465TIP3   OH255809   4.256   5.598  11.715  0.2114 -0.6069  0.0685
11465TIP3    H155810   4.239   5.538  11.788 -0.3452 -1.6089 -0.8686
11465TIP3    H255811   4.347   5.581  11.691  0.6086  0.2106  0.9577
11466TIP3   OH255812   5.834   0.384   3.846 -0.0250 -0.1982 -0.3681
11466TIP3    H155813   5.884   0.424   3.917 -0.6930  0.8351 -0.4679
11466TIP3    H255814   5.777   0.455   3.814 -1.7342 -1.4067 -0.0757
11467TIP3   OH255815   1.273   5.800  11.610  0.5202 -0.4432  0.0085
11467TIP3    H155816   1.220   5.822  11.687 -0.8484 -1.1749 -0.7077
11467TIP3    H255817   1.210   5.793  11.538  1.7155 -0.2981 -1.0872
11468TIP3   OH255818   6.181   2.339   1.763 -0.3343 -0.5580  0.1915
11468TIP3    H155819   6.086   2.343   1.753 -0.2574 -2.2410 -1.4831
11468TIP3    H255820   6.204   2.422   1.805 -2.4051  0.4083 -0.5130
11469TIP3   OH255821   4.741   1.765   0.867 -0.3923 -0.1275 -0.0199
11469TIP3    H155822   4.655   1.748   0.905 -0.0008 -2.4584 -0.1345
11469TIP3    H255823   4.798   1.778   0.942 -0.3721 -0.9315  0.1032
11470TIP3   OH255824   1.130   0.737   4.220  0.0921 -0.0928  0.4114
11470TIP3    H155825   1.110   0.685   4.298  0.2014  1.1854  1.3212
11470TIP3    H255826   1.223   0.761   4.231 -0.2398  1.1783  0.5571
11471TIP3   OH255827   4.134   2.985  11.836 -0.3443 -0.6517  0.2057
11471TIP3    H155828   4.203   2.924  11.864 -0.5406 -0.9991 -0.0679
11471TIP3    H255829   4.054   2.949  11.873 -0.4925 -0.6820 -0.1447
11472TIP3   OH255830   0.136   5.549  17.090  0.3336 -0.3693  0.0398
11472TIP3    H155831   0.044   5.535  17.068 -0.4060  0.4461  2.4299
11472TIP3    H255832   0.138   5.636  17.129  2.2796 -0.0310 -0.7973
11473TIP3   OH255833   1.347   1.328  13.632 -0.3537  0.3492  0.1135
11473TIP3    H155834   1.440   1.348  13.627 -0.4870  1.2194  0.9411
11473TIP3    H255835   1.320   1.314  13.541  0.5859  0.0239 -0.1221
11474TIP3   OH255836   0.827   5.738  13.529 -0.0666  0.1238 -0.2655
11474TIP3    H155837   0.916   5.703  13.536  0.0094  0.2302 -0.6636
11474TIP3    H255838   0.792   5.734  13.618  0.2527 -0.1427 -0.1510
11475TIP3   OH255839   3.514   0.414  13.388 -0.5621 -0.9944  0.2249
11475TIP3    H155840   3.500   0.497  13.434 -0.9453 -0.7565 -0.3106
11475TIP3    H255841   3.583   0.371  13.437  2.9012  1.6513 -2.0874
11476TIP3   OH255842   4.843   6.244  13.049 -0.6832  0.2924  0.3936
11476TIP3    H155843   4.842   6.222  13.142 -1.9527  0.2909  0.3843
11476TIP3    H255844   4.835   6.160  13.004  0.4285  0.2464  0.2715
11477TIP3   OH255845   1.285   3.228   6.406  0.4268  0.2303  0.4393
11477TIP3    H155846   1.291   3.263   6.495 -1.4753  0.2759  0.5640
11477TIP3    H255847   1.191   3.225   6.388  0.7382 -1.2090 -1.0023
11478TIP3   OH255848   5.858   1.066  12.808  0.2878  0.0040  0.4111
11478TIP3    H155849   5.940   1.114  12.804  1.3708 -1.5869  2.7974
11478TIP3    H255850   5.803   1.107  12.740  3.0746  0.9371 -1.3576
11479TIP3   OH255851   1.431   1.499  15.567  0.6285 -0.4097 -0.2124
11479TIP3    H155852   1.421   1.470  15.476 -1.1714  1.6579 -0.7274
11479TIP3    H255853   1.464   1.589  15.561 -2.6434  0.9802  1.0062
11480TIP3   OH255854   6.728   3.656   1.412  0.1030  0.5105 -0.1615
11480TIP3    H155855   6.655   3.665   1.351 -1.4591  0.5399  1.6640
11480TIP3    H255856   6.688   3.662   1.499  2.1628 -0.3466  0.8916
11481TIP3   OH255857   1.143   5.019  12.265  1.2894 -0.0124 -0.1265
11481TIP3    H155858   1.063   5.072  12.261  1.1680 -0.2277 -0.7023
11481TIP3    H255859   1.114   4.930  12.244  1.4483 -0.3606  1.1086
11482TIP3   OH255860   3.236   3.495   5.787 -0.4017  0.4705 -0.1401
11482TIP3    H155861   3.324   3.525   5.810 -0.1796  0.4056 -0.8687
11482TIP3    H255862   3.178   3.541   5.847  0.1176  0.6419  0.2370
11483TIP3   OH255863   5.192   4.673  17.147  0.3135  0.1998  0.0163
11483TIP3    H155864   5.190   4.743  17.082  0.3854  0.9422  0.8099
11483TIP3    H255865   5.100   4.658  17.169  0.3683  0.8755  0.7277
11484TIP3   OH255866   1.637   2.640  14.515  0.7174 -0.1097 -0.7170
11484TIP3    H155867   1.629   2.733  14.535  4.6121  0.1837 -0.1619
11484TIP3    H255868   1.681   2.638  14.429  0.9440 -1.4018 -0.5832
11485TIP3   OH255869   6.160   6.714  11.798  0.2737  0.0972 -0.3090
11485TIP3    H155870   6.229   6.649  11.783 -0.5517 -1.0111  0.6145
11485TIP3    H255871   6.107   6.711  11.719 -0.2060 -0.9086  0.0504
11486TIP3   OH255872   4.992   6.479  15.423 -0.4631  0.0073 -0.0590
11486TIP3    H155873   4.967   6.406  15.479 -2.7055  0.0982 -0.9075
11486TIP3    H255874   5.013   6.438  15.339 -1.2523  0.2721 -0.3909
11487TIP3   OH255875   6.069   2.515  17.191 -0.0838 -0.6195  0.3653
11487TIP3    H155876   6.002   2.549  17.132  1.5231 -0.6695 -1.5248
11487TIP3    H255877   6.079   2.423  17.167  0.2660 -0.7654  1.0381
11488TIP3   OH255878   4.097   3.530  11.370 -0.1285 -0.1174  0.0064
11488TIP3    H155879   4.116   3.500  11.281 -1.5030 -3.1147  0.6500
11488TIP3    H255880   4.163   3.487  11.424 -0.8662 -0.3452  0.7298
11489TIP3   OH255881   3.689   3.259   1.513 -0.1894  0.8183 -0.2444
11489TIP3    H155882   3.763   3.285   1.568  0.3841 -1.4666  0.1330
11489TIP3    H255883   3.611   3.279   1.565  0.3464 -1.3229  1.4486
11490TIP3   OH255884   4.883   3.007  16.203  0.2922  0.7880 -0.2558
11490TIP3    H155885   4.871   3.099  16.224 -0.5325  0.7855 -0.6895
11490TIP3    H255886   4.823   2.991  16.131 -2.0343 -0.8845  1.9836
11491TIP3   OH255887   3.743   3.290   3.387 -0.0076 -0.1540 -0.6062
11491TIP3    H155888   3.828   3.247   3.386  1.1777  2.1105 -1.8307
11491TIP3    H255889   3.735   3.324   3.476 -0.0703 -1.1769 -0.2156
11492TIP3   OH255890   1.406   6.465  13.640  0.0117 -0.1397  0.0519
11492TIP3    H155891   1.501   6.459  13.638  0.1007  1.5034 -1.3613
11492TIP3    H255892   1.379   6.452  13.549 -1.0309  0.6602  0.2358
11493TIP3   OH255893   6.209   3.025  11.333  0.3368  0.4704 -0.0231
11493TIP3    H155894   6.214   3.042  11.427 -0.2266 -1.5928  0.4064
11493TIP3    H255895   6.211   3.112  11.293 -2.9139  1.5929  2.0509
11494TIP3   OH255896   1.427   4.202   0.189 -0.0350 -0.0651  0.1009
11494TIP3    H155897   1.452   4.219   0.098  0.3079 -0.1477  0.1818
11494TIP3    H255898   1.342   4.158   0.182 -0.2744  0.4340 -0.1576
11495TIP3   OH255899   4.804   0.594   4.517  0.0182 -0.0539 -0.1201
11495TIP3    H155900   4.877   0.543   4.553 -0.6805  0.6783  2.4309
11495TIP3    H255901   4.846   0.667   4.472  0.8732  0.2020  1.0710
11496TIP3   OH255902   5.103   1.359   0.782  0.0638 -0.1108  0.5969
11496TIP3    H155903   5.010   1.380   0.780  0.5927  2.4004  0.0804
11496TIP3    H255904   5.119   1.315   0.699 -0.8724 -1.5735  1.1800
11497TIP3   OH255905   2.622   3.950   3.430 -0.2744 -0.1669 -0.3719
11497TIP3    H155906   2.589   3.929   3.517  0.1709  0.6203 -0.0065
11497TIP3    H255907   2.548   3.992   3.386 -0.0785  0.7059  0.1120
11498TIP3   OH255908   3.262   0.297  17.037  0.4246  0.5001  0.2687
11498TIP3    H155909   3.219   0.314  16.953 -0.5686  1.7801  1.0090
11498TIP3    H255910   3.214   0.223  17.074  0.4634  0.3355 -0.0085
11499TIP3   OH255911   5.957   4.014   0.592 -0.7094 -0.6941  0.2463
11499TIP3    H155912   5.862   4.028   0.586 -0.7899 -1.0518  0.6941
11499TIP3    H255913   5.993   4.063   0.517 -1.3176 -1.2671 -0.4257
11500TIP3   OH255914   5.502   1.276   0.820 -0.1331  0.4160  0.2271
11500TIP3    H155915   5.455   1.193   0.812  1.4178 -0.3679 -0.9875
11500TIP3    H255916   5.463   1.332   0.753 -1.8902  1.0576  1.7245
11501TIP3   OH255917   2.399   0.791  11.185  0.1642  0.3798 -0.4014
11501TIP3    H155918   2.417   0.761  11.096 -1.3861  0.1294 -0.6450
11501TIP3    H255919   2.312   0.830  11.180 -0.3812 -0.5821  1.2347
11502TIP3   OH255920   0.156   6.674  13.376  0.5796  0.6234 -0.2295
11502TIP3    H155921   0.156   6.609  13.446  0.3418 -1.0478 -1.7236
11502TIP3    H255922   0.131   6.756  13.418  1.4787 -0.1244  1.8138
11503TIP3   OH255923   3.643   1.944  14.909  0.0772 -0.6558  0.5462
11503TIP3    H155924   3.595   2.000  14.970 -0.8900 -1.8544  0.9099
11503TIP3    H255925   3.638   1.991  14.825  0.3086  0.3749  1.0981
11504TIP3   OH255926   1.769   3.902  11.256  0.4350 -0.1886 -0.7341
11504TIP3    H155927   1.848   3.861  11.290  0.5748 -0.7096 -1.6689
11504TIP3    H255928   1.798   3.985  11.220  0.1488  0.7562  1.1781
11505TIP3   OH255929   6.274   5.184   3.433  0.1385  0.0585  0.5989
11505TIP3    H155930   6.342   5.242   3.397 -0.4044  0.9925  1.0388
11505TIP3    H255931   6.297   5.097   3.402  1.4365  0.3962  0.5852
11506TIP3   OH255932   6.182   0.075   4.856 -0.0245 -0.1475 -0.1418
11506TIP3    H155933   6.199   0.150   4.912  0.5755 -0.4427  0.0763
11506TIP3    H255934   6.269   0.037   4.840 -0.4177 -1.3400  0.5149
11507TIP3   OH255935   5.967   4.226   0.392 -0.4799 -0.0605  0.2688
11507TIP3    H155936   5.980   4.312   0.351  1.9767 -1.0891 -1.1832
11507TIP3    H255937   5.871   4.218   0.398 -0.7841  2.3560 -0.4228
11508TIP3   OH255938   1.358   0.105   1.350  0.6015  0.0824 -0.1048
11508TIP3    H155939   1.373   0.128   1.442 -3.6823  0.6600  0.5543
11508TIP3    H255940   1.357   0.190   1.305  0.9149 -0.0840 -0.4318
11509TIP3   OH255941   4.409   0.810  15.299  0.0084 -0.4508  0.3084
11509TIP3    H155942   4.317   0.783  15.301  0.4589 -2.0305  0.2807
11509TIP3    H255943   4.438   0.788  15.210  0.5705 -0.5274  0.5074
11510TIP3   OH255944   5.787   5.896   2.768 -0.1135 -0.1723  0.5550
11510TIP3    H155945   5.761   5.968   2.825  0.0604 -0.4726  1.0220
11510TIP3    H255946   5.784   5.932   2.680  0.2061  0.4764  0.8065
11511TIP3   OH255947   3.226   3.475   4.653 -0.2247  0.5213 -0.2367
11511TIP3    H155948   3.309   3.506   4.690 -0.5226  1.2171 -0.1592
11511TIP3    H255949   3.248   3.451   4.562 -0.1136  1.4309 -0.4483
11512TIP3   OH255950   6.536   0.695  12.766  0.4062 -0.3948 -0.1364
11512TIP3    H155951   6.484   0.624  12.805 -1.6451  0.1919 -1.7128
11512TIP3    H255952   6.609   0.649  12.722 -0.7595 -1.5207 -0.9275
11513TIP3   OH255953   6.148   5.580  13.714  0.1579 -0.2692 -0.2262
11513TIP3    H155954   6.146   5.493  13.674 -1.0496  0.8737 -2.7577
11513TIP3    H255955   6.199   5.633  13.654  0.1706  0.9937  0.8669
11514TIP3   OH255956   2.098   6.030  13.248  0.0353  0.7393 -0.2233
11514TIP3    H155957   2.152   6.083  13.307  1.5044  0.2447 -1.0908
11514TIP3    H255958   2.112   5.940  13.277 -1.7035  0.7292  0.6402
11515TIP3   OH255959   0.016   4.963  15.519 -0.1091  0.5466  0.3833
11515TIP3    H155960  -0.055   4.981  15.457 -0.4582 -0.0293  0.6029
11515TIP3    H255961   0.002   5.024  15.590  0.5693  1.5313 -0.3239
11516TIP3   OH255962   0.712   3.589  17.177  0.2997 -0.3591 -0.2949
11516TIP3    H155963   0.791   3.537  17.193  1.2172  1.2907  0.7649
11516TIP3    H255964   0.640   3.534  17.207  1.1984 -1.2254  0.3000
11517TIP3   OH255965   6.457   1.710  16.798  0.4850 -0.1984 -0.4642
11517TIP3    H155966   6.476   1.619  16.773 -0.7054 -0.0301 -2.0414
11517TIP3    H255967   6.362   1.716  16.794  0.4820  0.7400  1.0274
11518TIP3   OH255968   2.684   5.059   0.491  0.4233 -0.3213 -0.0181
11518TIP3    H155969   2.764   5.067   0.544 -0.2864  0.0803  0.9977
11518TIP3    H255970   2.690   5.130   0.428  1.6393 -1.2479 -0.9927
11519TIP3   OH255971   6.111   2.218  11.385  0.3344 -0.7033  0.2101
11519TIP3    H155972   6.123   2.307  11.418  0.3710 -0.5464 -0.2312
11519TIP3    H255973   6.070   2.229  11.300 -1.9516 -1.1867  1.2098
11520TIP3   OH255974   1.092   6.750   1.468 -0.1515 -0.0884 -0.5465
11520TIP3    H155975   1.116   6.825   1.523  0.8987 -0.3043 -0.7022
11520TIP3    H255976   1.162   6.744   1.403 -0.3193 -1.0875 -0.6519
11521TIP3   OH255977   4.335   3.377  14.400 -0.5588 -0.3095 -0.2283
11521TIP3    H155978   4.272   3.436  14.441  2.2312  2.9398 -0.4025
11521TIP3    H255979   4.373   3.328  14.473 -0.6112  0.4253  0.2986
11522TIP3   OH255980   6.573   0.849   1.022  0.4157  0.1410 -0.0216
11522TIP3    H155981   6.634   0.923   1.021  2.1761 -1.2540 -0.9360
11522TIP3    H255982   6.511   0.869   1.092  1.0108  2.3414 -0.0900
11523TIP3   OH255983   4.220   3.963  13.898  0.6270 -0.0033  0.7083
11523TIP3    H155984   4.301   4.012  13.910  0.2461  1.3028 -1.7545
11523TIP3    H255985   4.248   3.873  13.880  1.5032  0.3605  0.2499
11524TIP3   OH255986   2.151   0.732   4.855 -0.2263 -0.0930  0.0428
11524TIP3    H155987   2.136   0.819   4.893 -1.6937 -0.9364  1.4514
11524TIP3    H255988   2.207   0.688   4.919  1.3072  0.1087 -1.1255
11525TIP3   OH255989   1.810   5.459   1.418 -0.3575 -0.5298 -0.1505
11525TIP3    H155990   1.833   5.477   1.509 -1.2504 -0.2691  0.0291
11525TIP3    H255991   1.780   5.543   1.383 -0.5249 -0.7435 -0.5258
11526TIP3   OH255992   3.205   6.062  15.435 -0.0393 -0.2781 -0.0338
11526TIP3    H155993   3.276   6.032  15.379 -1.1843  0.1305 -1.7307
11526TIP3    H255994   3.231   6.035  15.523  2.1844 -0.1519 -0.6289
11527TIP3   OH255995   0.941   2.499   5.573  0.1035  0.2836 -0.1960
11527TIP3    H155996   0.890   2.526   5.497 -1.3651 -0.9565  0.3081
11527TIP3    H255997   0.989   2.422   5.544  1.8010  1.5187 -0.7012
11528TIP3   OH255998   2.336   5.375  14.285  0.2894  0.3497 -0.0324
11528TIP3    H155999   2.298   5.362  14.197  0.1936  2.3281 -0.2959
11528TIP3    H256000   2.364   5.466  14.285  0.1039  0.4112  2.0818
11529TIP3   OH256001   3.813   1.169  12.754 -0.4269  0.0791 -0.4583
11529TIP3    H156002   3.901   1.161  12.791 -1.3817  0.5635  2.0822
11529TIP3    H256003   3.784   1.256  12.782 -1.6187  0.0083 -1.4723
11530TIP3   OH256004   3.982   4.918   5.485 -0.0548  0.5500  0.3059
11530TIP3    H156005   3.923   4.915   5.560 -0.3712 -0.3989  0.0361
11530TIP3    H256006   4.068   4.898   5.521 -0.3645 -0.9266  0.2869
11531TIP3   OH256007   1.655   2.947   1.245  0.9864  0.2231 -0.0294
11531TIP3    H156008   1.683   2.872   1.193  1.8062  0.1071  0.5759
11531TIP3    H256009   1.562   2.958   1.223  0.9252 -0.8111 -0.3116
11532TIP3   OH256010   4.182   2.085  17.110  0.0401  0.0804  0.4028
11532TIP3    H156011   4.162   2.117  17.198  0.5019  2.5004 -0.3344
11532TIP3    H256012   4.271   2.115  17.092  0.2700 -1.1169 -0.5853
11533TIP3   OH256013   5.125   6.319   3.810 -0.4748 -0.2227 -0.1152
11533TIP3    H156014   5.200   6.271   3.774  1.1090  2.8805 -1.2083
11533TIP3    H256015   5.063   6.325   3.737  0.0153  0.6924 -0.4689
11534TIP3   OH256016   6.731   4.173   5.358  0.2356  0.1160  0.5574
11534TIP3    H156017   6.729   4.110   5.287 -0.1362 -0.1731  0.8235
11534TIP3    H256018   6.673   4.137   5.425 -2.0065  1.9701 -0.3357
11535TIP3   OH256019   1.289   3.680  10.955  0.6180  0.7265  0.0625
11535TIP3    H156020   1.227   3.724  11.014  1.0872  0.7810  0.5221
11535TIP3    H256021   1.257   3.590  10.949 -1.5939  1.6451 -2.5995
11536TIP3   OH256022   3.389   3.786  14.935 -0.2846 -0.0244 -0.1346
11536TIP3    H156023   3.300   3.759  14.956 -0.0902 -1.5352 -1.2071
11536TIP3    H256024   3.389   3.881  14.949 -1.4799 -0.2929  1.8639
11537TIP3   OH256025   2.390   1.382   1.964  1.0149  0.1962  0.1634
11537TIP3    H156026   2.409   1.407   2.055 -2.7361  1.3042  0.7037
11537TIP3    H256027   2.415   1.458   1.912  0.5390  0.6241  0.5606
11538TIP3   OH256028   0.416   0.665   1.361  0.6113  0.1688 -0.2450
11538TIP3    H156029   0.370   0.605   1.420  1.0358  0.6098  0.5480
11538TIP3    H256030   0.429   0.744   1.413  2.9713 -0.2395 -0.1623
11539TIP3   OH256031   3.726   1.209   3.336 -0.3439 -0.3849 -0.6047
11539TIP3    H156032   3.795   1.146   3.357  0.4599  0.6263 -0.1693
11539TIP3    H256033   3.769   1.275   3.283 -0.5901  1.0815  0.9726
11540TIP3   OH256034   6.013   1.996   0.065 -0.3353  0.1138  0.6275
11540TIP3    H156035   6.090   2.048   0.040 -0.8394  0.6636  0.2036
11540TIP3    H256036   6.038   1.906   0.043 -0.7049  0.5581 -1.8258
11541TIP3   OH256037   0.847   2.687   1.907  0.1360  0.1297  0.1938
11541TIP3    H156038   0.902   2.611   1.885  0.0564  0.7218 -2.1760
11541TIP3    H256039   0.846   2.740   1.827 -1.3898  1.6736  1.1991
11542TIP3   OH256040   0.777   5.978   0.654 -0.1670  0.1329  0.2006
11542TIP3    H156041   0.691   5.989   0.696 -1.4581  1.2513 -2.6383
11542TIP3    H256042   0.806   5.891   0.683 -1.8453  0.0867  1.8818
11543TIP3   OH256043   4.035   2.160   2.854  0.5696  0.6272 -0.1671
11543TIP3    H156044   4.037   2.096   2.783 -0.1841  0.4169 -0.0052
11543TIP3    H256045   4.028   2.108   2.934  0.1307  0.8994 -0.0246
11544TIP3   OH256046   1.639   4.096   2.361 -0.0145  0.0600 -0.6165
11544TIP3    H156047   1.620   4.103   2.268 -1.0832 -0.6075 -0.4526
11544TIP3    H256048   1.562   4.055   2.399  1.1061 -1.2879  0.2886
11545TIP3   OH256049   0.632   0.033   3.426 -0.3496 -0.2792  0.4080
11545TIP3    H156050   0.634   0.128   3.410 -0.5031 -0.2528  0.5433
11545TIP3    H256051   0.724   0.009   3.438 -0.2241 -0.3240 -0.6637
11546TIP3   OH256052   4.232   1.942  11.857  0.2755 -0.0000 -0.5463
11546TIP3    H156053   4.325   1.930  11.839  0.4964  0.2264  0.4116
11546TIP3    H256054   4.197   1.984  11.779  0.4297 -2.5238 -2.0388
11547TIP3   OH256055   2.750   1.278  14.962 -0.1469  0.2608  0.2356
11547TIP3    H156056   2.799   1.233  14.893  1.0168 -0.6477  1.6106
11547TIP3    H256057   2.818   1.312  15.021 -1.0471  3.0014 -0.2541
11548TIP3   OH256058   4.167   4.915   4.785  0.2060 -0.3207  0.0075
11548TIP3    H156059   4.188   5.007   4.768  1.1761 -0.5158  0.0915
11548TIP3    H256060   4.166   4.875   4.698 -0.7513 -0.1307 -0.0761
11549TIP3   OH256061   3.963   5.391  13.501  0.3481 -0.7453  0.9767
11549TIP3    H156062   4.016   5.400  13.421 -2.1493  1.8734 -0.4428
11549TIP3    H256063   3.970   5.298  13.523  3.4424 -0.9676 -0.6030
11550TIP3   OH256064   5.642   4.790  16.031 -0.2368 -0.1423  0.1268
11550TIP3    H156065   5.640   4.703  16.072 -2.7871  0.3689  1.1775
11550TIP3    H256066   5.651   4.850  16.105 -2.0081  0.6342 -0.2586
11551TIP3   OH256067   6.699   2.082  11.503  0.2686 -0.2236 -0.2193
11551TIP3    H156068   6.694   2.093  11.408  3.1098 -2.4323 -0.6999
11551TIP3    H256069   6.627   2.023  11.524 -2.2899  2.6897 -0.5007
11552TIP3   OH256070   5.476   2.541  11.344 -0.1457  0.1258 -0.2960
11552TIP3    H156071   5.558   2.516  11.302  0.0394 -0.6238  0.4962
11552TIP3    H256072   5.409   2.525  11.278  0.2804  0.1792 -0.7449
11553TIP3   OH256073   0.091   1.550  16.870 -0.2391  0.1661  0.7788
11553TIP3    H156074   0.019   1.613  16.870  1.0981  1.7451  0.9427
11553TIP3    H256075   0.112   1.537  16.778 -0.0099  0.5582  0.7762
11554TIP3   OH256076   3.903   0.291  17.044  0.3998 -0.1489  0.2322
11554TIP3    H156077   3.878   0.257  16.958 -1.4255 -0.6490  0.9330
11554TIP3    H256078   3.827   0.274  17.100  1.3000  0.7642  1.7910
11555TIP3   OH256079   3.717   4.090  16.944  0.2455  0.0458  0.5882
11555TIP3    H156080   3.701   3.996  16.939  0.9988  0.0191 -2.4882
11555TIP3    H256081   3.652   4.128  16.885  2.3678  1.1055 -1.1448
11556TIP3   OH256082   2.152   4.926  16.026  0.5457  0.7052 -0.0218
11556TIP3    H156083   2.059   4.937  16.047  0.2629  1.1769 -1.4992
11556TIP3    H256084   2.167   4.832  16.034 -0.3636  0.4618 -0.9837
11557TIP3   OH256085   2.538   6.591   5.442 -0.1390 -0.4128 -0.1525
11557TIP3    H156086   2.549   6.675   5.487  0.2870 -0.3862 -0.3064
11557TIP3    H256087   2.589   6.530   5.494  1.3348 -0.1515 -1.2676
11558TIP3   OH256088   6.411   6.579  12.250  0.2510  0.2808  0.1566
11558TIP3    H156089   6.319   6.553  12.253  0.3355 -0.3068 -1.5124
11558TIP3    H256090   6.410   6.665  12.206  0.3993  0.8607  1.2692
11559TIP3   OH256091   0.749   1.843  13.620 -0.1289  0.0886 -0.2163
11559TIP3    H156092   0.768   1.811  13.708  2.5014 -0.6807 -1.0105
11559TIP3    H256093   0.752   1.764  13.565  0.8806  0.9171 -1.3638
11560TIP3   OH256094   5.445   6.224  14.906 -0.0241 -0.3913  0.2910
11560TIP3    H156095   5.452   6.319  14.895 -0.6569 -0.4632 -0.7620
11560TIP3    H256096   5.524   6.190  14.864  1.4784 -0.1912  2.8744
11561TIP3   OH256097   1.023   1.961   6.347  0.2389 -0.3759 -0.4354
11561TIP3    H156098   1.099   1.996   6.394 -0.0983 -1.2022  0.7392
11561TIP3    H256099   0.968   2.037   6.330 -0.9783 -0.4170  2.9963
11562TIP3   OH256100   5.239   0.251  16.444 -0.5469 -0.1426  0.0609
11562TIP3    H156101   5.199   0.280  16.526  0.8005 -1.3434  1.1663
11562TIP3    H256102   5.296   0.324  16.419 -1.2171  0.3703 -0.0118
11563TIP3   OH256103   1.197   6.693  16.491  0.0368 -0.2253 -0.5852
11563TIP3    H156104   1.267   6.746  16.453 -1.5907  1.0511 -1.8609
11563TIP3    H256105   1.146   6.662  16.415 -0.7970 -1.1224  0.3194
11564TIP3   OH256106   2.744   1.658  12.975 -0.6253  0.0046 -0.3596
11564TIP3    H156107   2.671   1.622  12.924 -1.7108  2.2621 -0.4311
11564TIP3    H256108   2.706   1.681  13.059  0.5114 -0.8611  0.4118
11565TIP3   OH256109   0.419   1.587   2.583 -0.3142  0.6467 -0.2794
11565TIP3    H156110   0.344   1.531   2.604 -0.2141  0.6749  0.1602
11565TIP3    H256111   0.412   1.660   2.643  1.8123 -0.9099  1.9497
11566TIP3   OH256112   3.763   2.887  14.646 -0.5212 -0.4664 -0.6011
11566TIP3    H156113   3.817   2.856  14.574  0.1991  1.6663 -1.0192
11566TIP3    H256114   3.759   2.982  14.634 -1.3542 -0.2065  1.4930
11567TIP3   OH256115   0.483   4.202   1.103 -0.1834 -0.8371  0.3713
11567TIP3    H156116   0.568   4.228   1.139 -0.3028  0.9925 -0.6117
11567TIP3    H256117   0.496   4.203   1.008 -1.5826  0.5203  0.1783
11568TIP3   OH256118   0.768   6.543   3.169  0.3552  0.0532  0.2366
11568TIP3    H156119   0.763   6.535   3.265 -0.5331  0.3607  0.2218
11568TIP3    H256120   0.861   6.555   3.151  0.5899 -0.4751  1.0269
11569TIP3   OH256121   5.644   5.980  11.981 -0.4385  0.4877  0.4168
11569TIP3    H156122   5.736   5.996  12.000  0.3404 -0.7598 -2.0334
11569TIP3    H256123   5.644   5.903  11.924 -2.9076  1.0366 -0.4103
11570TIP3   OH256124   3.484   5.906   4.347 -0.2524  0.6834 -0.0649
11570TIP3    H156125   3.518   5.986   4.385 -0.0212  0.6045 -0.1046
11570TIP3    H256126   3.559   5.867   4.302 -0.5741  0.8827 -0.7827
11571TIP3   OH256127   3.689   2.292   4.279  0.0965 -1.2538 -0.6594
11571TIP3    H156128   3.771   2.269   4.324  0.2603 -2.6716 -1.6748
11571TIP3    H256129   3.634   2.330   4.348  0.8485 -2.1610  0.4608
11572TIP3   OH256130   3.537   2.644   4.917  0.5257  0.0797 -0.1798
11572TIP3    H156131   3.581   2.708   4.861 -0.8301  0.7552 -0.4856
11572TIP3    H256132   3.525   2.689   5.001 -0.8563  0.4109 -0.5424
11573TIP3   OH256133   5.855   1.222  16.012 -0.4203 -0.5516  0.5267
11573TIP3    H156134   5.777   1.224  15.957  0.1104 -0.2372 -0.2265
11573TIP3    H256135   5.901   1.304  15.992 -0.3992 -0.2703  1.6957
11574TIP3   OH256136   0.941   6.349   3.318  0.3144 -0.3927  0.2458
11574TIP3    H156137   0.881   6.380   3.385  0.2769 -0.8008  0.4013
11574TIP3    H256138   1.008   6.417   3.312  0.4712 -0.4909  0.8961
11575TIP3   OH256139   2.369   5.952   5.679 -0.1097 -0.3591 -0.5096
11575TIP3    H156140   2.361   5.889   5.750 -0.2938 -1.0882 -1.1776
11575TIP3    H256141   2.410   5.903   5.607 -0.6091  0.1700 -1.1642
11576TIP3   OH256142   4.442   6.701  16.576 -0.5927  0.6349 -0.1696
11576TIP3    H156143   4.387   6.778  16.588 -0.1620  0.9814 -0.4577
11576TIP3    H256144   4.452   6.692  16.481  1.1371  1.4763 -0.0853
11577TIP3   OH256145   1.881   2.954  15.300 -0.1539  0.3012  0.5068
11577TIP3    H156146   1.963   2.957  15.251  0.4567  0.2936  1.5164
11577TIP3    H256147   1.814   2.982  15.237  0.7438  1.1881 -0.0629
11578TIP3   OH256148   1.884   2.654  15.370  0.0910  0.6233 -0.2029
11578TIP3    H156149   1.973   2.660  15.405 -0.1738 -0.1654  0.6169
11578TIP3    H256150   1.884   2.713  15.295  0.0371  4.0536  2.4083
11579TIP3   OH256151   5.712   2.603  15.218  0.1018 -0.1614 -0.2194
11579TIP3    H156152   5.639   2.628  15.161 -0.0983 -1.5393 -0.5835
11579TIP3    H256153   5.790   2.638  15.174 -0.2080  0.1716 -0.5068
11580TIP3   OH256154   3.715   1.282  13.725  0.6417  0.1327  0.7654
11580TIP3    H156155   3.799   1.292  13.679  0.4266 -0.3533  0.2662
11580TIP3    H256156   3.738   1.291  13.818  1.2660 -0.0948  0.6389
11581TIP3   OH256157   4.680   0.921   2.661  0.5994 -0.0821  0.0781
11581TIP3    H156158   4.660   0.932   2.754 -0.5237  0.2492 -0.2028
11581TIP3    H256159   4.692   0.826   2.651 -1.9416 -0.4359  0.0354
11582TIP3   OH256160   2.167   3.182   5.018 -0.7026 -0.3513  0.2768
11582TIP3    H156161   2.228   3.140   4.958 -1.3103  0.5401 -0.9755
11582TIP3    H256162   2.087   3.129   5.012 -1.0690  0.2828 -0.3906
11583TIP3   OH256163   3.555   5.582  11.779  0.2131  0.0688  0.0969
11583TIP3    H156164   3.593   5.512  11.833 -0.9963 -1.1340 -0.5727
11583TIP3    H256165   3.629   5.618  11.730  0.6385 -1.7226 -0.6166
11584TIP3   OH256166   2.608   2.522  11.099  0.2467 -0.2346 -0.2183
11584TIP3    H156167   2.621   2.432  11.069 -0.0533 -0.5435  0.5396
11584TIP3    H256168   2.556   2.564  11.030  0.4476 -0.6235 -0.6064
11585TIP3   OH256169   4.174   1.091   2.275  0.0839  0.1424  0.2334
11585TIP3    H156170   4.144   1.001   2.262 -0.3139  0.4924 -1.3183
11585TIP3    H256171   4.170   1.130   2.188  0.9197  1.4613  0.7838
11586TIP3   OH256172   5.600   0.041   1.027 -0.0018  0.0190  0.6613
11586TIP3    H156173   5.572   0.103   0.960 -2.1661 -2.4163 -0.8138
11586TIP3    H256174   5.693   0.028   1.011 -0.2957  0.2141 -1.2742
11587TIP3   OH256175   3.417   6.143  15.913 -0.2753  0.3527 -0.2882
11587TIP3    H156176   3.427   6.160  15.819 -0.8327  1.3259 -0.1766
11587TIP3    H256177   3.322   6.135  15.926 -0.3341  2.0252  0.4800
11588TIP3   OH256178   3.873   4.210   3.968  0.0690  0.2167  0.1794
11588TIP3    H156179   3.917   4.294   3.956  0.9938 -0.3396 -0.4030
11588TIP3    H256180   3.814   4.224   4.042  0.0918  1.4206 -0.0117
11589TIP3   OH256181   4.507   6.602  17.131  0.4896  0.0406  0.6558
11589TIP3    H156182   4.600   6.609  17.109 -0.1505  0.3517 -2.0636
11589TIP3    H256183   4.500   6.645  17.217  2.6743  1.0003  0.3932
11590TIP3   OH256184   3.497   3.778   0.056 -0.1356  0.2438  0.2777
11590TIP3    H156185   3.524   3.749   0.143  2.1450  1.6734  0.0748
11590TIP3    H256186   3.529   3.709  -0.003 -0.9729 -0.3226  0.4778
11591TIP3   OH256187   6.048   1.853  13.693  0.3501  0.4901  0.0337
11591TIP3    H156188   6.010   1.933  13.728  1.2859  0.9876 -0.0796
11591TIP3    H256189   6.077   1.877  13.605  0.6268  0.0268 -0.0050
11592TIP3   OH256190   5.027   1.248   2.661 -0.0663 -0.4741 -1.3100
11592TIP3    H156191   5.075   1.245   2.743 -1.4402  2.4840 -0.3316
11592TIP3    H256192   4.941   1.213   2.681 -1.7315  3.7724 -0.3931
11593TIP3   OH256193   6.778   6.236   3.649 -0.0084 -0.0447 -0.4626
11593TIP3    H156194   6.865   6.275   3.636  1.2484 -2.9102 -1.0167
11593TIP3    H256195   6.722   6.282   3.588  1.1230  1.7998 -0.1691
11594TIP3   OH256196   3.044   6.094   4.583  0.4198  0.1754 -0.0533
11594TIP3    H156197   2.978   6.028   4.605  0.1850 -0.4180 -2.3755
11594TIP3    H256198   2.994   6.164   4.540  1.2257 -0.1736 -1.6190
11595TIP3   OH256199   1.606   4.962  15.587  0.3091  0.3191  0.0704
11595TIP3    H156200   1.658   5.011  15.651 -0.5592 -0.0543  1.0793
11595TIP3    H256201   1.518   4.959  15.625  0.1495 -1.2746 -0.3837
11596TIP3   OH256202   1.704   6.191  14.899  0.5660  0.1971 -0.5684
11596TIP3    H156203   1.624   6.193  14.952  1.1103  0.3791  0.2398
11596TIP3    H256204   1.775   6.186  14.962  1.2006 -0.0070 -1.2948
11597TIP3   OH256205   1.906   4.271  15.940 -0.3553  0.2029  0.1516
11597TIP3    H156206   1.966   4.203  15.909  0.0586  0.6862 -0.1072
11597TIP3    H256207   1.868   4.234  16.020 -0.4585 -0.5111 -0.2189
11598TIP3   OH256208   0.409   2.946  14.279 -0.3683  0.3058 -0.0456
11598TIP3    H156209   0.450   2.885  14.218 -0.9504 -0.6818  0.5400
11598TIP3    H256210   0.392   3.024  14.227  1.8258  0.5742 -0.4189
11599TIP3   OH256211   6.676   1.845  16.297  0.1784 -0.7476 -0.0020
11599TIP3    H156212   6.658   1.771  16.240 -1.4860  0.3026 -0.8710
11599TIP3    H256213   6.709   1.913  16.238 -1.6118  0.3636  0.2479
11600TIP3   OH256214   1.091   4.108   4.348 -0.3758  0.2025  0.0216
11600TIP3    H156215   1.160   4.140   4.406  0.0198  0.3464 -0.5298
11600TIP3    H256216   1.135   4.091   4.265 -0.8330 -0.5487 -0.0698
11601TIP3   OH256217   1.852   1.032   1.379 -0.7046 -0.6619 -1.2348
11601TIP3    H156218   1.903   0.980   1.317  1.0723  1.2369 -1.3986
11601TIP3    H256219   1.845   0.976   1.456 -0.2544 -1.8062 -1.9995
11602TIP3   OH256220   1.947   6.206  16.803 -0.4522  0.1583  0.2957
11602TIP3    H156221   1.893   6.256  16.864  0.1840  1.2349 -0.0197
11602TIP3    H256222   1.947   6.258  16.722  0.9020  0.0872  0.2395
11603TIP3   OH256223   0.513   3.625   5.673  0.0277  0.6911 -0.1322
11603TIP3    H156224   0.570   3.696   5.641  0.0808  1.7704  2.2674
11603TIP3    H256225   0.571   3.549   5.677  0.7206  1.2240  0.1144
11604TIP3   OH256226   4.876   3.444  16.104  0.1814 -0.3231 -0.4750
11604TIP3    H156227   4.935   3.515  16.077 -1.0943  0.8646 -0.2171
11604TIP3    H256228   4.798   3.456  16.050 -0.7125 -0.4967  0.7581
11605TIP3   OH256229   6.088   1.386  15.774 -0.0840 -0.0069 -0.1541
11605TIP3    H156230   6.020   1.367  15.709 -0.5483 -1.6250  0.7820
11605TIP3    H256231   6.058   1.466  15.817 -1.0339 -0.3224 -0.2230
11606TIP3   OH256232   2.361   1.733  14.165 -0.0059  0.0690 -0.0368
11606TIP3    H156233   2.327   1.796  14.229  0.7513  0.2136  0.2212
11606TIP3    H256234   2.282   1.696  14.124 -0.4650  1.1165 -0.1311
11607TIP3   OH256235   6.379   5.335   1.476 -0.1653  0.3128  0.4303
11607TIP3    H156236   6.299   5.305   1.520  0.0480 -0.3694  0.3610
11607TIP3    H256237   6.442   5.265   1.491 -0.0273  0.1600 -0.7952
11608TIP3   OH256238   4.493   3.166  16.768 -0.4550  0.0796  0.3597
11608TIP3    H156239   4.402   3.171  16.738 -0.5582  2.4699  0.9594
11608TIP3    H256240   4.542   3.213  16.701  0.5313 -2.2051 -0.5619
11609TIP3   OH256241   4.236   3.754   4.601  0.3878  0.5152 -0.1703
11609TIP3    H156242   4.321   3.712   4.587  0.7482  1.1322  0.1769
11609TIP3    H256243   4.213   3.790   4.515  0.6838  0.7382 -0.1552
11610TIP3   OH256244   5.531   5.417   1.208 -0.3506 -0.2640  0.2232
11610TIP3    H156245   5.534   5.321   1.210 -1.6715 -0.4202 -2.3270
11610TIP3    H256246   5.584   5.441   1.132 -1.8102  0.8529 -0.4819
11611TIP3   OH256247   6.474   4.767   4.474  0.4996  0.5176 -0.0864
11611TIP3    H156248   6.452   4.717   4.396  1.9343  0.0235 -0.1923
11611TIP3    H256249   6.555   4.814   4.451 -0.2429  2.0520  0.3712
11612TIP3   OH256250   0.901   5.139  12.234  0.0664  0.4701 -0.4869
11612TIP3    H156251   0.890   5.190  12.153  2.1071  0.3358 -0.8648
11612TIP3    H256252   0.854   5.057  12.216 -0.2993  0.8156 -1.1685
11613TIP3   OH256253   4.439   3.910  16.241  0.4398  0.0635  0.2055
11613TIP3    H156254   4.446   3.989  16.187  0.3159  0.2183  0.4142
11613TIP3    H256255   4.449   3.837  16.179  1.1052  0.2521  0.0917
11614TIP3   OH256256   5.089   3.607   5.845 -0.1172 -0.0089  0.5188
11614TIP3    H156257   5.087   3.526   5.795 -0.4721  0.0813  0.3883
11614TIP3    H256258   5.038   3.587   5.924 -1.5730  0.5788 -0.2547
11615TIP3   OH256259   2.519   5.526   4.796  0.2643  0.1060 -0.2010
11615TIP3    H156260   2.456   5.469   4.753  0.9565  0.5225 -1.8125
11615TIP3    H256261   2.469   5.571   4.864 -1.1257  0.2737 -1.3247
11616TIP3   OH256262   3.044   1.256   3.333 -0.1291  0.0987  0.0078
11616TIP3    H156263   3.101   1.297   3.268  0.3283 -1.2954 -0.4854
11616TIP3    H256264   2.960   1.299   3.321 -0.1519 -0.3856 -1.7674
11617TIP3   OH256265   5.582   5.598   4.086 -0.2997  0.2266 -0.3753
11617TIP3    H156266   5.658   5.540   4.089 -0.0806  0.4222 -1.7659
11617TIP3    H256267   5.509   5.540   4.065 -0.3661  0.1934 -0.0529
11618TIP3   OH256268   1.723   4.306   4.679  0.2715  0.5729 -0.4927
11618TIP3    H156269   1.684   4.385   4.716  0.2972 -0.2072  1.2829
11618TIP3    H256270   1.789   4.279   4.744 -0.7392 -1.6868 -0.3491
11619TIP3   OH256271   6.559   0.205   3.738  0.1997 -0.1801 -0.1044
11619TIP3    H156272   6.536   0.140   3.804 -1.0502 -0.3860 -0.7190
11619TIP3    H256273   6.649   0.229   3.758  1.2671 -3.3118 -0.8573
11620TIP3   OH256274   4.718   0.293  10.448 -0.4210  0.4996 -0.5228
11620TIP3    H156275   4.722   0.278  10.542  0.5967 -0.7403 -0.7532
11620TIP3    H256276   4.807   0.273  10.417 -0.4778  1.8408 -1.6087
11621TIP3   OH256277   0.327   6.012  12.751 -0.2120  0.2976 -0.0844
11621TIP3    H156278   0.248   6.066  12.759 -0.0895  0.7087 -1.6439
11621TIP3    H256279   0.373   6.026  12.834 -0.3538  2.3073 -0.3326
11622TIP3   OH256280   5.485   2.198  11.489 -0.1074  0.5090 -0.0453
11622TIP3    H156281   5.437   2.193  11.407 -0.7822  0.4807  0.3498
11622TIP3    H256282   5.571   2.232  11.464 -0.5505  1.1919 -0.6618
11623TIP3   OH256283   6.229   2.206   5.270  0.1840  0.4284  0.1416
11623TIP3    H156284   6.168   2.164   5.330 -0.7611  3.5666  1.4953
11623TIP3    H256285   6.175   2.234   5.196  0.5788  0.3310 -0.1855
11624TIP3   OH256286   1.577   1.935  11.816 -0.5760 -0.2632 -0.4379
11624TIP3    H156287   1.539   1.867  11.760 -0.9450  0.4994 -1.1278
11624TIP3    H256288   1.546   1.914  11.904 -0.2149 -1.3208 -0.5564
11625TIP3   OH256289   4.196   1.048   4.208 -0.0072  0.3148 -0.7969
11625TIP3    H156290   4.199   1.128   4.261  0.2667 -0.3623  0.2157
11625TIP3    H256291   4.288   1.028   4.189 -0.0680  0.1454 -0.9122
11626TIP3   OH256292   2.108   0.822   0.559 -0.0269 -0.0112 -0.6339
11626TIP3    H156293   2.072   0.823   0.470  0.6819 -0.4901 -0.9360
11626TIP3    H256294   2.155   0.739   0.564  1.9076  1.0593 -0.6085
11627TIP3   OH256295   6.326   1.484   3.611 -0.1737  0.4073  0.0224
11627TIP3    H156296   6.407   1.521   3.576  0.2859  0.6411  1.2845
11627TIP3    H256297   6.260   1.501   3.545  0.0825  3.2243  0.4541
11628TIP3   OH256298   1.086   0.268  13.128 -0.3073 -0.2307 -0.1105
11628TIP3    H156299   1.163   0.301  13.083 -0.4869  0.0021 -0.2514
11628TIP3    H256300   1.120   0.211  13.196  0.0430  0.7931  0.5928
11629TIP3   OH256301   5.219   0.465  11.929 -0.2090  0.1930  0.6237
11629TIP3    H156302   5.219   0.485  12.022  0.0739  1.2167  0.4113
11629TIP3    H256303   5.144   0.406  11.916 -1.4325  1.5894  1.1754
11630TIP3   OH256304   0.328   3.175   6.590 -0.2088  0.3755  0.5016
11630TIP3    H156305   0.251   3.232   6.595 -0.7331 -0.3346  0.6446
11630TIP3    H256306   0.366   3.177   6.677 -0.8821 -0.3826  0.8200
11631TIP3   OH256307   1.832   5.423  13.279 -0.9276 -0.1099  0.0631
11631TIP3    H156308   1.781   5.482  13.335  2.5392  2.9475  0.1992
11631TIP3    H256309   1.841   5.472  13.197  0.1784 -1.4077 -0.5961
11632TIP3   OH256310   3.134   2.598   1.695 -0.4625 -0.2578 -0.4164
11632TIP3    H156311   3.179   2.625   1.776  0.3106 -1.7304 -0.3345
11632TIP3    H256312   3.122   2.679   1.646  1.8666  0.2411 -0.2179
11633TIP3   OH256313   3.827   5.710  15.288  0.4985  0.6356  0.0878
11633TIP3    H156314   3.793   5.681  15.203 -0.2500  0.0192  0.5849
11633TIP3    H256315   3.766   5.779  15.316  0.4188  0.4522  0.3733
11634TIP3   OH256316   2.720   4.512   1.251 -0.3119  0.3284 -0.3843
11634TIP3    H156317   2.799   4.565   1.259  0.5564 -0.7926 -1.3989
11634TIP3    H256318   2.738   4.434   1.304 -1.3658  0.7967  0.6694
11635TIP3   OH256319   2.218   5.142  15.145  0.6496 -0.8112  0.2504
11635TIP3    H156320   2.289   5.197  15.177 -0.7171  0.1409  1.7715
11635TIP3    H256321   2.233   5.057  15.186  1.2583 -0.7922  0.0672
11636TIP3   OH256322   4.729   5.148  15.835 -0.2272 -0.0792 -0.3127
11636TIP3    H156323   4.804   5.099  15.802 -0.5563 -1.2287  0.6191
11636TIP3    H256324   4.756   5.240  15.830  2.0597 -0.5634  1.9014
11637TIP3   OH256325   1.495   3.105  15.978  0.5379 -0.4349  0.6193
11637TIP3    H156326   1.523   3.134  16.066 -1.7952 -0.3805  1.3743
11637TIP3    H256327   1.440   3.176  15.946 -0.0734 -1.2494 -0.1511
11638TIP3   OH256328   1.404   1.636  11.457  0.0702  0.0408  0.6129
11638TIP3    H156329   1.446   1.625  11.372  0.9199 -0.6771  1.1209
11638TIP3    H256330   1.416   1.728  11.478  1.3074 -0.1356  0.7109
11639TIP3   OH256331   0.795   5.378  12.799  0.4962 -0.2100  0.2479
11639TIP3    H156332   0.705   5.383  12.769  0.7633  0.7192 -0.4582
11639TIP3    H256333   0.840   5.446  12.749  1.5555 -0.5708  0.6901
11640TIP3   OH256334   4.380   2.196   4.449 -0.0697  0.4548  0.1108
11640TIP3    H156335   4.438   2.210   4.374  1.6092 -0.8814  1.1162
11640TIP3    H256336   4.439   2.183   4.523 -1.7018  1.7246  1.6885
11641TIP3   OH256337   5.638   4.360  12.305 -0.2698 -0.0188  0.3261
11641TIP3    H156338   5.634   4.371  12.210  0.9422 -1.0135  0.1396
11641TIP3    H256339   5.702   4.290  12.318 -0.5267  0.0143  1.8714
11642TIP3   OH256340   0.498   4.881  15.767  0.0486 -0.0334 -0.5334
11642TIP3    H156341   0.497   4.829  15.847 -0.8173  0.3871 -0.2650
11642TIP3    H256342   0.530   4.820  15.700  0.2315 -0.5507  0.0149
11643TIP3   OH256343   1.381   2.836  14.001 -0.5119  0.7011 -0.2798
11643TIP3    H156344   1.431   2.756  13.985 -1.3299  0.2328 -0.4767
11643TIP3    H256345   1.447   2.906  13.999  0.3000 -0.0256  0.5074
11644TIP3   OH256346   4.728   2.556  11.380 -0.1988 -0.2614  0.0767
11644TIP3    H156347   4.767   2.500  11.312  0.0196  0.2127 -0.1922
11644TIP3    H256348   4.714   2.497  11.454  1.6187 -0.3170  0.4059
11645TIP3   OH256349   1.783   0.535   3.828 -0.0547  0.2962  0.0060
11645TIP3    H156350   1.747   0.450   3.802 -0.8174  0.2901  1.0414
11645TIP3    H256351   1.858   0.548   3.770 -0.5701 -0.5876 -0.8798
11646TIP3   OH256352   3.927   3.330   1.641  0.2591  0.0522  0.1839
11646TIP3    H156353   3.952   3.347   1.731  1.5177  0.3836 -0.2218
11646TIP3    H256354   3.973   3.396   1.590 -1.2385  0.5116 -0.6132
11647TIP3   OH256355   2.654   1.742   2.278  0.4079 -0.6215  0.2973
11647TIP3    H156356   2.730   1.789   2.243 -1.0077  0.7396 -1.0591
11647TIP3    H256357   2.614   1.701   2.202 -0.8979 -0.3146  0.8034
11648TIP3   OH256358   5.588   1.590  13.813 -0.3095 -0.4516  0.0794
11648TIP3    H156359   5.500   1.554  13.813 -0.4826 -0.1074  2.0686
11648TIP3    H256360   5.587   1.660  13.748 -1.1077 -1.3680 -0.8919
11649TIP3   OH256361   4.909   1.866   6.027  0.2159  0.3222 -0.0847
11649TIP3    H156362   4.924   1.953   6.065  1.2918 -0.1724  0.6508
11649TIP3    H256363   4.814   1.855   6.027  0.1145  1.1675  0.5763
11650TIP3   OH256364   1.839   6.655   0.328  0.3102 -0.2456 -0.5348
11650TIP3    H156365   1.836   6.692   0.240 -1.2202 -2.0455 -1.2635
11650TIP3    H256366   1.806   6.566   0.318  0.3028 -0.5383  1.8323
11651TIP3   OH256367   6.525   6.545   5.986  0.5317  0.1861 -0.6241
11651TIP3    H156368   6.433   6.524   5.970  0.3608 -0.7391  1.3852
11651TIP3    H256369   6.524   6.596   6.067  1.7776  0.3375 -0.6999
11652TIP3   OH256370   1.329   6.608   0.869  0.2207 -0.2360 -0.1366
11652TIP3    H156371   1.388   6.544   0.829 -0.4679 -0.2924 -1.0602
11652TIP3    H256372   1.248   6.602   0.819 -0.4827  0.0663  0.9337
11653TIP3   OH256373   3.345   2.732  15.190  0.3500 -0.4961  0.6961
11653TIP3    H156374   3.391   2.653  15.216  2.1251 -0.0025 -0.8694
11653TIP3    H256375   3.378   2.753  15.103 -0.9992  1.2752  0.5631
11654TIP3   OH256376   4.202   6.324   6.444  0.0981  0.0481 -0.4913
11654TIP3    H156377   4.270   6.273   6.488  0.9290  0.4836 -1.2476
11654TIP3    H256378   4.122   6.273   6.455  0.2292  0.2806  1.7586
11655TIP3   OH256379   4.625   1.244   1.791 -0.4161 -0.7039 -0.5192
11655TIP3    H156380   4.649   1.223   1.701 -0.8777  0.3938 -0.9041
11655TIP3    H256381   4.654   1.169   1.842  2.1043 -0.2445 -1.2280
11656TIP3   OH256382   1.363   2.371   5.363  0.3035 -0.1049  0.1075
11656TIP3    H156383   1.401   2.367   5.275  2.4282 -1.5350  1.0290
11656TIP3    H256384   1.291   2.433   5.356 -1.3305 -2.2842 -3.2738
11657TIP3   OH256385   3.363   0.759   1.945 -0.3670  0.0467  0.5775
11657TIP3    H156386   3.305   0.696   1.989  0.3553 -0.7945  0.3266
11657TIP3    H256387   3.348   0.744   1.852  0.3514 -0.2650  0.5094
11658TIP3   OH256388   0.822   0.505   4.180  0.5832  0.6818  0.5070
11658TIP3    H156389   0.901   0.459   4.209  1.6713  2.7658  0.9347
11658TIP3    H256390   0.823   0.587   4.229 -1.1402  1.3176 -0.4912
11659TIP3   OH256391   5.660   4.937   5.730 -0.4759 -0.0324 -0.4785
11659TIP3    H156392   5.628   4.957   5.818 -0.0856  0.1700 -0.3811
11659TIP3    H256393   5.642   4.844   5.718  1.5214 -0.5864  0.6840
11660TIP3   OH256394   3.207   1.699   1.297 -0.5055  0.5861  0.5326
11660TIP3    H156395   3.300   1.718   1.289  0.0259 -2.1245 -0.2148
11660TIP3    H256396   3.200   1.641   1.373 -1.0013 -2.4291 -1.6920
11661TIP3   OH256397   4.092   0.580   1.870 -0.0938 -0.2816 -0.1026
11661TIP3    H156398   3.999   0.599   1.859 -0.1708 -0.4488  0.2519
11661TIP3    H256399   4.100   0.548   1.959  0.3716  0.1251  0.0086
11662TIP3   OH256400   0.945   2.506  15.407 -0.2319 -0.4034 -0.5230
11662TIP3    H156401   0.857   2.524  15.374 -0.3945  1.0665  0.6801
11662TIP3    H256402   0.957   2.412  15.391 -2.3703 -0.8189  0.1224
11663TIP3   OH256403   1.209   2.848   0.175  0.5351 -0.1449 -0.1756
11663TIP3    H156404   1.292   2.893   0.187  1.4696 -1.3265 -2.0081
11663TIP3    H256405   1.225   2.759   0.206  0.1196 -0.5224 -1.0345
11664TIP3   OH256406   1.395   0.801   3.906  0.1237 -0.3174 -0.2326
11664TIP3    H156407   1.382   0.876   3.964 -0.6898 -0.6855  0.0653
11664TIP3    H256408   1.307   0.768   3.890  0.4575 -1.0367 -0.5897
11665TIP3   OH256409   0.957   2.854  11.371 -0.0842  0.1003  0.2742
11665TIP3    H156410   0.946   2.860  11.466  0.5312 -1.0209  0.4138
11665TIP3    H256411   0.941   2.944  11.340 -0.1620  0.4990  1.4377
11666TIP3   OH256412   1.092   6.477  14.787 -0.6907 -0.1273 -0.4511
11666TIP3    H156413   1.120   6.545  14.727  0.6070 -0.1915  0.0810
11666TIP3    H256414   1.066   6.523  14.866  0.6136 -0.2815  0.0694
11667TIP3   OH256415   4.686   3.946   4.090  0.3695 -0.4809 -0.0327
11667TIP3    H156416   4.752   3.884   4.060 -1.4893 -1.6539 -1.8923
11667TIP3    H256417   4.710   4.029   4.048  0.2511 -1.0896 -1.3474
11668TIP3   OH256418   6.210   0.659   4.779  0.3154  0.1142 -0.0990
11668TIP3    H156419   6.190   0.643   4.687 -0.2620 -0.2453  0.0875
11668TIP3    H256420   6.305   0.671   4.781  0.4837 -1.0680 -0.5650
11669TIP3   OH256421   0.253   0.010  13.859 -0.0098  0.6605  0.0689
11669TIP3    H156422   0.183   0.072  13.841  0.3661  1.6093  1.8574
11669TIP3    H256423   0.227  -0.069  13.811 -0.7233  2.0157 -1.8328
11670TIP3   OH256424   1.503   2.247  13.039 -0.3084 -0.2004 -0.0252
11670TIP3    H156425   1.502   2.322  12.979  1.8132  0.5279  0.8310
11670TIP3    H256426   1.585   2.202  13.019 -2.0735 -2.9888 -1.3234
11671TIP3   OH256427   4.621   2.803   1.511 -0.0770 -0.3781 -0.1213
11671TIP3    H156428   4.698   2.858   1.523 -0.7609  0.8136 -1.1299
11671TIP3    H256429   4.600   2.773   1.600 -1.0458  2.8646  0.8218
11672TIP3   OH256430   6.377   3.267   3.900  0.0411  0.3160  0.0194
11672TIP3    H156431   6.332   3.347   3.876 -2.0838 -0.5648  0.8878
11672TIP3    H256432   6.418   3.236   3.820  0.5615  2.0726 -0.3922
11673TIP3   OH256433   3.402   1.621   2.322  0.1108 -0.1577 -0.6650
11673TIP3    H156434   3.408   1.645   2.414  0.3815 -0.9746 -0.4695
11673TIP3    H256435   3.345   1.688   2.284 -0.1725  0.0645  0.1349
11674TIP3   OH256436   6.139   0.078   4.551 -0.2932 -0.1310 -0.4994
11674TIP3    H156437   6.228   0.065   4.517 -0.0590 -3.2796  1.1626
11674TIP3    H256438   6.152   0.093   4.645 -1.5548 -0.8654 -0.2089
11675TIP3   OH256439   4.282   4.374   6.167  0.3967 -0.0545  0.8034
11675TIP3    H156440   4.193   4.360   6.199  0.2619  1.7851  1.2838
11675TIP3    H256441   4.319   4.440   6.226  1.0549  1.3857 -1.1502
11676TIP3   OH256442   5.378   1.696   2.083 -0.3595 -0.6655  0.7356
11676TIP3    H156443   5.332   1.774   2.114  4.2370  2.1598  0.9758
11676TIP3    H256444   5.352   1.687   1.992 -2.3537  0.0421  1.2153
11677TIP3   OH256445   2.386   3.189  16.662 -0.6670 -0.3774  0.0694
11677TIP3    H156446   2.380   3.095  16.678 -0.8540 -0.5718 -1.1069
11677TIP3    H256447   2.301   3.224  16.689 -0.6721 -0.5758  0.3133
11678TIP3   OH256448   2.375   2.999   3.270  0.1810 -0.6886 -0.3629
11678TIP3    H156449   2.349   3.012   3.361 -0.3391  0.9462 -0.7409
11678TIP3    H256450   2.345   2.910   3.250 -1.4282 -0.3632  0.4872
11679TIP3   OH256451   1.557   1.501  16.315 -0.0625 -0.5484 -0.2697
11679TIP3    H156452   1.626   1.448  16.275  1.0321  1.7060 -1.4236
11679TIP3    H256453   1.582   1.507  16.407 -0.3835 -2.2754 -0.0391
11680TIP3   OH256454   0.043   5.311  12.176  0.2822 -0.2214 -0.5983
11680TIP3    H156455   0.068   5.222  12.150  0.3616 -0.4867  0.3424
11680TIP3    H256456  -0.018   5.298  12.248 -1.1939  0.4667 -1.7116
11681TIP3   OH256457   2.675   4.062   1.589 -0.0040 -0.5023 -0.5052
11681TIP3    H156458   2.624   4.000   1.642 -0.0142 -0.0528  0.0129
11681TIP3    H256459   2.687   4.017   1.505 -2.3793 -0.0844 -1.1135
11682TIP3   OH256460   6.302   4.944  15.893 -0.2144  0.1742  0.2284
11682TIP3    H156461   6.252   5.025  15.889 -0.9255 -0.2973 -0.5147
11682TIP3    H256462   6.239   4.878  15.923  0.0107 -0.3747 -0.4858
11683TIP3   OH256463   5.274   5.364   6.215  0.8455  0.3198  0.4196
11683TIP3    H156464   5.267   5.326   6.303  2.3444 -0.8560  0.0530
11683TIP3    H256465   5.364   5.395   6.209  1.1521 -0.8122 -1.1649
11684TIP3   OH256466   6.181   3.438   1.274  0.1747 -0.7491 -0.1282
11684TIP3    H156467   6.158   3.531   1.267  0.0318 -1.0037 -3.6616
11684TIP3    H256468   6.210   3.428   1.365 -1.7872  2.2845  0.9272
11685TIP3   OH256469   5.362   4.226   0.766 -0.4462  0.6767  0.5902
11685TIP3    H156470   5.430   4.211   0.700 -0.2652  0.8395  0.7405
11685TIP3    H256471   5.395   4.181   0.844 -0.5155  0.7487  0.6601
11686TIP3   OH256472   0.855   1.361   3.265 -0.3169 -0.6270 -0.0151
11686TIP3    H156473   0.813   1.438   3.226  2.0713  0.1749 -1.0787
11686TIP3    H256474   0.851   1.378   3.359 -0.4672  0.4605 -0.2031
11687TIP3   OH256475   3.305   4.990  12.419 -0.3196  0.4518 -0.3254
11687TIP3    H156476   3.229   5.047  12.433  0.0063  0.9482 -0.5775
11687TIP3    H256477   3.363   5.040  12.362  0.1353  0.0117 -0.2527
11688TIP3   OH256478   4.457   4.348   5.302  0.1813 -0.6617 -0.2708
11688TIP3    H156479   4.448   4.411   5.230  1.9974  0.2357  0.2600
11688TIP3    H256480   4.426   4.395   5.379 -0.3752 -1.1247 -0.2053
11689TIP3   OH256481   4.521   1.961  15.163  0.7999  0.3312  0.2624
11689TIP3    H156482   4.551   2.051  15.151  0.9726  0.6579  2.8360
11689TIP3    H256483   4.467   1.943  15.086  1.6976  2.2207 -0.8513
11690TIP3   OH256484   1.668   0.513   0.654 -0.3417  0.2072 -1.0206
11690TIP3    H156485   1.680   0.462   0.734 -0.0772  1.8730  0.0252
11690TIP3    H256486   1.718   0.466   0.587 -0.5728 -1.2009 -0.2189
11691TIP3   OH256487   5.657   5.103  16.607 -0.1847 -0.5396  0.5553
11691TIP3    H156488   5.744   5.076  16.578  0.2692 -0.3309  1.7212
11691TIP3    H256489   5.666   5.118  16.701 -2.0528 -2.8751  1.1581
11692TIP3   OH256490   1.095   0.866  17.178 -0.0589 -0.0022 -0.2611
11692TIP3    H156491   1.166   0.906  17.127 -0.5054  1.9425  0.5917
11692TIP3    H256492   1.135   0.787  17.216  1.2898  0.4077 -0.7830
11693TIP3   OH256493   5.200   3.136  11.000  0.0096 -0.1627  0.1642
11693TIP3    H156494   5.249   3.110  10.923  1.0862 -0.8548  1.0673
11693TIP3    H256495   5.267   3.157  11.065 -0.8836 -0.3058  1.1443
11694TIP3   OH256496   4.339   0.970  13.823  0.2973 -0.5247 -0.3417
11694TIP3    H156497   4.294   0.917  13.888  0.3607  0.7426  0.7381
11694TIP3    H256498   4.390   0.906  13.772  0.4588 -1.4851  1.0040
11695TIP3   OH256499   3.314   0.512  14.884  0.6094  0.4552  0.0393
11695TIP3    H156500   3.220   0.496  14.884  0.6419  0.2668 -0.0647
11695TIP3    H256501   3.346   0.471  14.804  0.6951  1.0196 -0.2210
11696TIP3   OH256502   6.170   3.484   2.993 -0.1411 -0.2377  0.0984
11696TIP3    H156503   6.145   3.443   2.910 -0.7603  2.6460 -1.1872
11696TIP3    H256504   6.234   3.551   2.969  1.1326 -0.6585  2.1895
11697TIP3   OH256505   1.962   0.817  15.492 -0.1260 -0.6185  0.2210
11697TIP3    H156506   2.008   0.871  15.428 -1.9374  1.3974  0.5748
11697TIP3    H256507   1.964   0.729  15.455 -0.1821  0.3132 -2.0554
11698TIP3   OH256508   2.889   3.686  11.790  0.0415  0.2053 -0.9763
11698TIP3    H156509   2.957   3.753  11.781  0.2423  0.0050 -0.9735
11698TIP3    H256510   2.938   3.604  11.804 -0.1822 -0.0236 -1.4791
11699TIP3   OH256511   4.141   4.606   5.437  0.0114  0.0379  0.0770
11699TIP3    H156512   4.170   4.647   5.356  1.0874 -1.2949 -0.2169
11699TIP3    H256513   4.211   4.624   5.500 -0.7621  0.9639  0.6865
11700TIP3   OH256514   1.842   0.255   1.162  0.2347  0.6400 -0.5765
11700TIP3    H156515   1.923   0.293   1.126  0.5072  2.4030  1.7986
11700TIP3    H256516   1.870   0.210   1.242 -1.3090  2.5222  1.0732
11701TIP3   OH256517   5.077   1.362   2.304 -0.5191 -0.7106  0.0546
11701TIP3    H156518   5.113   1.398   2.223  1.6944  0.4621  1.5146
11701TIP3    H256519   5.002   1.418   2.323 -1.8884 -1.8186 -1.8577
11702TIP3   OH256520   1.549   3.585  12.326 -0.6182 -0.1904 -0.6471
11702TIP3    H156521   1.460   3.595  12.358 -0.5206  1.0126 -0.7266
11702TIP3    H256522   1.569   3.492  12.337 -1.5582 -0.2891  0.1996
11703TIP3   OH256523   6.187   5.668   3.032 -0.9865 -0.0830 -0.4387
11703TIP3    H156524   6.223   5.596   2.979  1.7598  1.8784 -1.3871
11703TIP3    H256525   6.140   5.723   2.969 -2.1344 -0.4682  0.0840
11704TIP3   OH256526   1.783   2.533   0.808 -0.1148 -0.1329  0.3311
11704TIP3    H156527   1.755   2.612   0.853  3.0660  0.5686  1.2168
11704TIP3    H256528   1.815   2.475   0.878 -0.9299 -1.5641 -0.4485
11705TIP3   OH256529   6.411   5.369   5.532 -0.2094  0.5745 -0.1276
11705TIP3    H156530   6.391   5.438   5.596 -1.6637 -1.6033  1.8608
11705TIP3    H256531   6.498   5.338   5.556 -0.3352  0.4531  0.1772
11706TIP3   OH256532   4.169   0.458  12.921  0.0863 -0.0547 -0.3734
11706TIP3    H156533   4.203   0.377  12.958  1.4852  0.4252 -0.5903
11706TIP3    H256534   4.246   0.504  12.887 -0.7524  1.1129 -0.7467
11707TIP3   OH256535   6.632   6.664   0.833  0.3576 -0.0808  0.6099
11707TIP3    H156536   6.589   6.745   0.860  0.8691  0.9994 -1.6687
11707TIP3    H256537   6.573   6.594   0.861 -2.2070  1.3157 -1.1668
11708TIP3   OH256538   5.365   6.064   1.523 -0.3609 -0.8532  0.1124
11708TIP3    H156539   5.413   5.990   1.486  1.6795  1.0218 -1.1325
11708TIP3    H256540   5.427   6.104   1.584 -1.0177  0.5248 -0.1139
11709TIP3   OH256541   3.947   3.481  14.827  0.0787 -0.2218 -0.1044
11709TIP3    H156542   3.871   3.431  14.798 -0.6637  0.6062  0.3748
11709TIP3    H256543   3.968   3.538  14.753 -0.4445  0.3270  0.1724
11710TIP3   OH256544   4.183   1.262   3.196 -0.1052  0.0202  0.4966
11710TIP3    H156545   4.162   1.169   3.206 -0.6101  0.3297  2.7298
11710TIP3    H256546   4.164   1.300   3.282  1.3328  1.9559  0.0047
11711TIP3   OH256547   0.830   3.360   4.183  0.1916 -0.2606  0.3179
11711TIP3    H156548   0.740   3.379   4.156  0.1214 -0.1063  0.6568
11711TIP3    H256549   0.840   3.267   4.166  0.7357  0.1716 -1.9304
11712TIP3   OH256550   6.781   5.223  12.456  0.0579 -0.4331  0.5256
11712TIP3    H156551   6.715   5.208  12.523  1.2784  0.3302  1.9179
11712TIP3    H256552   6.819   5.137  12.440 -0.4536 -0.6705  0.5769
11713TIP3   OH256553   0.882   1.048   5.948 -0.2796  0.6189  0.1472
11713TIP3    H156554   0.920   1.003   6.023  0.5787  0.3435 -0.4383
11713TIP3    H256555   0.788   1.030   5.954 -0.0437 -0.5646  0.3883
11714TIP3   OH256556   3.582   2.627  14.650 -0.1636  0.2365 -0.6418
11714TIP3    H156557   3.496   2.664  14.667  0.4361  1.3689 -0.0464
11714TIP3    H256558   3.618   2.680  14.578 -0.6745 -1.3671 -2.1211
11715TIP3   OH256559   6.320   2.025  12.119  0.1774  0.0991 -0.2437
11715TIP3    H156560   6.328   2.078  12.040 -0.0114  1.9960  0.9867
11715TIP3    H256561   6.243   2.061  12.164  0.6872 -0.5147  1.1428
11716TIP3   OH256562   6.219   1.069  13.387 -0.6042 -0.7437 -0.3479
11716TIP3    H156563   6.273   1.071  13.307  0.5569 -1.6769  0.3831
11716TIP3    H256564   6.134   1.036  13.358 -0.0402 -1.5394 -1.1291
11717TIP3   OH256565   0.711   6.188   1.464 -0.3420 -0.2075 -0.3651
11717TIP3    H156566   0.722   6.151   1.377  3.2498 -0.5391  0.1500
11717TIP3    H256567   0.724   6.113   1.523 -0.2698  0.4696  0.4809
11718TIP3   OH256568   4.068   4.535   4.542 -0.0703 -0.0079  0.7145
11718TIP3    H156569   4.037   4.513   4.630 -0.6788 -1.0005  0.2644
11718TIP3    H256570   4.102   4.453   4.508  0.9205  0.5627  0.3220
11719TIP3   OH256571   0.197   2.871  12.516  0.1663 -0.1304 -0.1535
11719TIP3    H156572   0.246   2.953  12.504 -0.7149  0.5993  1.1557
11719TIP3    H256573   0.137   2.869  12.442  0.6180  0.0894 -0.5316
11720TIP3   OH256574   6.065   5.804   0.891 -0.5285 -0.3469 -0.1472
11720TIP3    H156575   6.083   5.872   0.827 -1.9243  0.2617  0.0923
11720TIP3    H256576   6.097   5.839   0.974 -1.2294  0.0336 -0.0276
11721TIP3   OH256577   6.590   2.521   2.361  0.2488  0.0341 -0.3469
11721TIP3    H156578   6.630   2.525   2.447 -1.3281  0.5813  0.3809
11721TIP3    H256579   6.536   2.442   2.362  0.7607 -0.3334 -1.0787
11722TIP3   OH256580   1.434   4.261   1.888 -0.0257  0.7422  0.1337
11722TIP3    H156581   1.352   4.215   1.871 -0.7471  1.7998  0.6993
11722TIP3    H256582   1.461   4.295   1.803  1.2642 -1.8951 -0.5717
11723TIP3   OH256583   5.620   5.372   4.936  0.4770 -0.7009  0.0119
11723TIP3    H156584   5.592   5.332   4.854 -0.9675 -0.4917  0.3817
11723TIP3    H256585   5.557   5.340   5.001  1.6221 -0.8935  1.0448
11724TIP3   OH256586   6.141   4.193   3.987 -0.0320  0.2789  0.0869
11724TIP3    H156587   6.171   4.222   4.073 -1.4961 -0.5273  0.8927
11724TIP3    H256588   6.141   4.097   3.992  2.2014  0.1219 -1.6528
11725TIP3   OH256589   0.000   4.169  12.455  0.0138  0.3180 -0.0140
11725TIP3    H156590   0.060   4.217  12.397  0.1434  1.8784  1.3697
11725TIP3    H256591  -0.021   4.232  12.524 -0.5915 -1.3339  1.3249
11726TIP3   OH256592   2.919   3.545   5.221  0.7086 -0.1526  0.0447
11726TIP3    H156593   2.927   3.450   5.212  0.4884 -0.0402 -1.4906
11726TIP3    H256594   2.927   3.579   5.131 -0.6157  1.1663  0.3891
11727TIP3   OH256595   2.973   1.614   4.477  0.4197  0.2188  0.4262
11727TIP3    H156596   2.943   1.575   4.395  1.4861 -1.0537  0.6356
11727TIP3    H256597   2.894   1.654   4.514  0.2755  2.3498 -2.0482
11728TIP3   OH256598   3.842   6.369   3.644 -0.0188  0.5293  0.1279
11728TIP3    H156599   3.938   6.373   3.646 -0.0267  0.1885  1.1298
11728TIP3    H256600   3.813   6.420   3.719 -0.5306 -2.0762  1.7389
11729TIP3   OH256601   0.514   6.188   2.936 -0.0253 -0.4276 -0.3417
11729TIP3    H156602   0.535   6.123   3.003  0.5765  1.4441  1.3692
11729TIP3    H256603   0.419   6.190   2.933 -0.0480 -0.9855  0.0051
11730TIP3   OH256604   2.366   3.773  14.999  0.0117  0.0293  0.4617
11730TIP3    H156605   2.439   3.796  15.057 -0.4771  1.1551  0.6392
11730TIP3    H256606   2.390   3.688  14.964  0.6502 -0.3454  1.7694
11731TIP3   OH256607   3.020   1.168   2.542  0.0419 -0.3728  0.6031
11731TIP3    H156608   3.079   1.244   2.543  0.2595 -0.5272 -0.4102
11731TIP3    H256609   3.012   1.145   2.450 -0.3435 -1.3438  0.8750
11732TIP3   OH256610   0.602   1.453   5.491  0.0916 -0.3149  0.1142
11732TIP3    H156611   0.545   1.392   5.444 -0.6256  0.6254 -0.2575
11732TIP3    H256612   0.574   1.540   5.462  0.8598  0.2159  0.9074
11733TIP3   OH256613   5.476   0.388   3.663  0.1035 -0.4046 -0.3252
11733TIP3    H156614   5.449   0.455   3.725 -0.5851  0.1503 -1.2174
11733TIP3    H256615   5.554   0.424   3.621 -0.7028  0.1728 -1.3430
11734TIP3   OH256616   3.914   3.860  14.668 -0.0976  0.0875  0.2158
11734TIP3    H156617   3.968   3.878  14.591 -1.5162  0.7365 -0.6576
11734TIP3    H256618   3.927   3.937  14.724  2.4185 -1.2512  1.5146
11735TIP3   OH256619   6.422   1.796  11.301  0.1598 -0.1022 -0.1210
11735TIP3    H156620   6.506   1.765  11.333  0.7980  1.4399 -0.2514
11735TIP3    H256621   6.373   1.716  11.279  0.7975 -1.0834  1.9088
11736TIP3   OH256622   4.321   3.608  15.715  0.4465  0.0870  0.4682
11736TIP3    H156623   4.347   3.580  15.628  0.1395  1.6816 -0.1488
11736TIP3    H256624   4.228   3.585  15.722 -0.0325  1.6749 -0.3655
11737TIP3   OH256625   6.633   1.693  14.845 -0.5371 -0.2680 -0.3772
11737TIP3    H156626   6.633   1.778  14.890  0.7409  0.3697 -1.5428
11737TIP3    H256627   6.556   1.696  14.788 -0.5968  0.0356 -0.2789
11738TIP3   OH256628   4.023   5.327  15.823  0.2815 -0.3232  0.0912
11738TIP3    H156629   3.987   5.335  15.735 -2.1573  1.2518  1.1566
11738TIP3    H256630   4.008   5.236  15.847 -0.3613 -0.4043 -0.5974
11739TIP3   OH256631   6.352   3.646   5.811  0.0039 -0.2450  0.4979
11739TIP3    H156632   6.356   3.708   5.738 -0.2683  0.4630  1.0677
11739TIP3    H256633   6.303   3.693   5.879  1.5195 -0.3104  1.6679
11740TIP3   OH256634   2.353   4.284  12.888 -0.7359 -0.0278  0.0988
11740TIP3    H156635   2.338   4.192  12.867 -1.6221  0.0820  0.2142
11740TIP3    H256636   2.440   4.303  12.853 -0.2940 -1.0724  0.6238
11741TIP3   OH256637   1.519   6.085  12.723  0.2781  0.7763 -0.3585
11741TIP3    H156638   1.491   6.166  12.681 -0.7915 -0.2763 -1.7363
11741TIP3    H256639   1.455   6.071  12.793  0.2040  0.9050 -0.3987
11742TIP3   OH256640   3.168   3.530   5.528  0.4426  0.0835 -0.0792
11742TIP3    H156641   3.215   3.545   5.611  0.4870  1.2012 -0.3026
11742TIP3    H256642   3.199   3.445   5.498  1.2822  0.1863  0.4894
11743TIP3   OH256643   3.573   3.254   0.328  0.2152 -0.1067 -0.2062
11743TIP3    H156644   3.631   3.328   0.346  2.0286 -1.4545 -0.4878
11743TIP3    H256645   3.511   3.254   0.402 -1.2244  3.0187 -1.3031
11744TIP3   OH256646   2.296   4.265  17.094  0.4137  0.5209 -0.3304
11744TIP3    H156647   2.313   4.212  17.016  0.1644 -0.2161  0.1119
11744TIP3    H256648   2.380   4.270  17.139  0.0724 -0.9415  0.5062
11745TIP3   OH256649   6.001   5.807  16.859 -0.2431 -0.1749  0.0008
11745TIP3    H156650   6.064   5.863  16.814 -1.0622  0.1716 -0.7296
11745TIP3    H256651   5.950   5.868  16.913  0.5060 -0.5428  1.1333
11746TIP3   OH256652   3.657   3.332  14.061  0.4998 -0.6029 -0.7486
11746TIP3    H156653   3.578   3.379  14.033  0.5636  0.8385  1.3658
11746TIP3    H256654   3.626   3.244  14.082 -0.5743 -0.0541  0.0257
11747TIP3   OH256655   6.518   1.124   4.790 -0.7127 -0.0865  0.8316
11747TIP3    H156656   6.538   1.032   4.805  0.7213 -0.0614 -0.7244
11747TIP3    H256657   6.454   1.123   4.718  0.9894  0.1966 -0.7102
11748TIP3   OH256658   3.118   1.320   0.326 -0.3699 -0.1788  0.0985
11748TIP3    H156659   3.213   1.320   0.336 -0.2860  0.1905 -0.6467
11748TIP3    H256660   3.101   1.378   0.251 -1.1812 -0.2150  0.2427
11749TIP3   OH256661   0.217   5.894  13.777  0.0517  0.8193 -0.0740
11749TIP3    H156662   0.129   5.861  13.763  0.0147  1.6653 -1.8959
11749TIP3    H256663   0.272   5.815  13.781 -0.1393  0.4459 -3.6370
11750TIP3   OH256664   3.278   1.669   4.836  0.1589 -0.7990  0.1590
11750TIP3    H156665   3.213   1.713   4.780  0.3276 -2.0357 -1.0326
11750TIP3    H256666   3.352   1.730   4.838 -0.2228 -0.3110 -0.1630
11751TIP3   OH256667   4.598   6.077   4.799  0.0602  0.0303 -0.3460
11751TIP3    H156668   4.541   6.099   4.726 -0.5666  2.7281  0.8895
11751TIP3    H256669   4.538   6.058   4.871  0.6928  1.1698  0.4973
11752TIP3   OH256670   3.428   4.488   5.928  0.1866 -0.1217 -0.3202
11752TIP3    H156671   3.448   4.551   5.998  0.2742 -1.4057  0.8235
11752TIP3    H256672   3.341   4.514   5.898  1.1191  1.9179 -1.3893
11753TIP3   OH256673   2.808   5.895   5.607  0.3379 -0.2686 -0.0258
11753TIP3    H156674   2.755   5.822   5.640  1.9909 -1.6533 -0.3593
11753TIP3    H256675   2.885   5.897   5.664  1.7009 -0.6864 -1.7837
11754TIP3   OH256676   0.638   5.907  11.247  0.8237 -0.6728  0.2585
11754TIP3    H156677   0.616   5.878  11.158  1.8534 -0.1274 -0.1835
11754TIP3    H256678   0.595   5.843  11.304 -1.4800  0.0730 -0.5577
11755TIP3   OH256679   0.323   2.323  16.642 -0.4419 -0.5396  0.3904
11755TIP3    H156680   0.341   2.304  16.550  0.1569  1.8493 -0.0214
11755TIP3    H256681   0.248   2.268  16.664  0.3521 -2.2520 -1.0844
11756TIP3   OH256682   5.601   1.791   1.461  0.1147  0.5488  0.4461
11756TIP3    H156683   5.665   1.721   1.475  2.1196  1.8751 -1.6715
11756TIP3    H256684   5.568   1.776   1.373 -0.8206  1.1957  0.6801
11757TIP3   OH256685   0.845   3.471   2.538 -0.1333 -0.0092  0.2713
11757TIP3    H156686   0.904   3.399   2.559 -0.5385 -0.2109  0.7058
11757TIP3    H256687   0.898   3.529   2.482  1.2941  1.0286  2.5866
11758TIP3   OH256688   1.328   5.851   5.745  0.5218 -0.1380  0.1070
11758TIP3    H156689   1.345   5.843   5.839 -0.2553 -0.9480  0.1844
11758TIP3    H256690   1.410   5.886   5.709  0.3453  1.5633  1.2746
11759TIP3   OH256691   1.842   6.446  15.742  0.4128  0.3586 -0.1136
11759TIP3    H156692   1.918   6.504  15.746  0.6976  0.1356 -1.7278
11759TIP3    H256693   1.829   6.431  15.648 -0.8448 -0.6252  0.2054
11760TIP3   OH256694   1.437   2.748  13.439  0.2706  0.1033  0.4526
11760TIP3    H156695   1.487   2.797  13.505 -0.4734 -0.3141  1.3339
11760TIP3    H256696   1.346   2.763  13.462  0.0176 -0.6545 -0.0447
11761TIP3   OH256697   6.595   5.304  16.226 -0.1769 -0.5132  0.2646
11761TIP3    H156698   6.575   5.379  16.171  1.7387  2.0346  2.8882
11761TIP3    H256699   6.647   5.246  16.171  2.0128  2.1415 -0.5427
11762TIP3   OH256700   4.855   5.748  14.181 -0.3650 -0.6932  0.1932
11762TIP3    H156701   4.825   5.839  14.180  1.0534 -0.2188 -0.3826
11762TIP3    H256702   4.776   5.697  14.200 -1.5362  0.5087 -1.3661
11763TIP3   OH256703   4.697   5.857  16.504  0.6268  0.4556 -0.2165
11763TIP3    H156704   4.626   5.841  16.442  0.1915  1.0093  0.1343
11763TIP3    H256705   4.702   5.952  16.510  2.9736  0.4849 -2.0364
11764TIP3   OH256706   5.154   0.710  16.730  0.3959 -0.0093  0.1644
11764TIP3    H156707   5.213   0.684  16.801  0.7114 -3.2554 -1.1835
11764TIP3    H256708   5.212   0.745  16.662  0.3632  0.5526  0.4242
11765TIP3   OH256709   1.318   3.467  11.804  0.0678  0.1613  0.5261
11765TIP3    H156710   1.243   3.520  11.828 -2.1208 -2.5762 -0.0736
11765TIP3    H256711   1.347   3.426  11.886  0.3069  0.4364  0.5824
11766TIP3   OH256712   2.898   5.797  16.024  0.1270  0.1744 -0.4965
11766TIP3    H156713   2.985   5.764  16.048  0.0267  2.1230  2.9783
11766TIP3    H256714   2.841   5.721  16.030  1.1294 -0.5526  0.0393
11767TIP3   OH256715   1.819   4.134  12.921 -0.2176  0.2454 -0.3373
11767TIP3    H156716   1.862   4.217  12.941  1.6306 -0.7863  0.1371
11767TIP3    H256717   1.740   4.134  12.975  0.6890  0.9103  1.0116
11768TIP3   OH256718   3.977   5.599   4.680 -0.4366  0.1306  0.4614
11768TIP3    H156719   3.994   5.692   4.670  0.6047 -0.0807  0.2049
11768TIP3    H256720   4.058   5.556   4.652 -0.2130 -0.7732  2.3717
11769TIP3   OH256721   3.250   5.163   2.677  0.1679  0.1785  0.1783
11769TIP3    H156722   3.198   5.243   2.687 -0.6139 -0.1680 -0.9320
11769TIP3    H256723   3.267   5.158   2.582  2.3800  0.3755  0.5358
11770TIP3   OH256724   5.523   6.336   5.877  0.8717  1.1285  0.5807
11770TIP3    H156725   5.517   6.335   5.782  1.4902 -0.1894  0.5403
11770TIP3    H256726   5.588   6.403   5.896 -0.5552  2.6609  0.1769
11771TIP3   OH256727   1.248   3.723   2.012 -0.3621  0.6827  0.4219
11771TIP3    H156728   1.325   3.777   1.994  1.2371 -1.1307  1.6321
11771TIP3    H256729   1.224   3.744   2.103  1.0620 -1.5219  1.3532
11772TIP3   OH256730   3.101   2.826   1.026 -0.3376 -0.2776  0.1633
11772TIP3    H156731   3.097   2.919   1.047 -1.4442 -0.1948 -0.3944
11772TIP3    H256732   3.012   2.794   1.039  0.1899 -1.4161  1.0466
11773TIP3   OH256733   6.504   6.721   1.765  0.5019  0.1667 -0.1193
11773TIP3    H156734   6.543   6.661   1.702  0.1821 -0.2426  0.0723
11773TIP3    H256735   6.575   6.782   1.787 -0.0622  1.8158 -2.6904
11774TIP3   OH256736   6.168   4.801  11.758  0.1581  0.1845 -0.7531
11774TIP3    H156737   6.152   4.835  11.670 -1.3637 -0.3690 -0.6998
11774TIP3    H256738   6.097   4.837  11.812  1.7246  1.4611  0.5107
11775TIP3   OH256739   3.916   2.790  15.652 -0.0066  0.3601  0.1807
11775TIP3    H156740   3.824   2.806  15.676 -0.1754 -0.5678  0.1805
11775TIP3    H256741   3.964   2.798  15.735  0.0998  2.1444 -0.0353
11776TIP3   OH256742   1.663   5.526  15.462  0.2326 -0.3210 -0.0192
11776TIP3    H156743   1.653   5.434  15.438 -0.1474 -0.2468 -0.1540
11776TIP3    H256744   1.700   5.524  15.550 -0.6018 -0.6107  0.3341
11777TIP3   OH256745   5.254   1.273   3.211 -0.4618  0.1503 -0.5414
11777TIP3    H156746   5.312   1.197   3.219  0.0823  0.7051  0.8025
11777TIP3    H256747   5.312   1.345   3.187 -0.9006  0.2920 -1.2111
11778TIP3   OH256748   0.947   1.310  14.837  0.3666  0.0053 -0.2589
11778TIP3    H156749   1.005   1.368  14.887 -0.4975  0.5542  0.1345
11778TIP3    H256750   0.989   1.300  14.752  0.3010  1.6206 -0.5014
11779TIP3   OH256751   3.201   6.741  17.160 -0.6004  0.4231  0.5973
11779TIP3    H156752   3.120   6.740  17.108  0.1779 -3.8979 -0.6923
11779TIP3    H256753   3.171   6.735  17.250 -1.7706  0.4727  0.2193
11780TIP3   OH256754   2.537   3.394   0.702 -0.1068  0.7098 -0.1968
11780TIP3    H156755   2.510   3.304   0.681 -1.0260  1.1420 -0.9019
11780TIP3    H256756   2.595   3.418   0.630  0.5569  0.5029  0.2639
11781TIP3   OH256757   6.223   2.866  14.783  0.1302 -0.2301  0.1519
11781TIP3    H156758   6.228   2.777  14.818  1.1882 -0.5279 -0.7409
11781TIP3    H256759   6.205   2.921  14.859 -0.6734 -1.2177  0.6854
11782TIP3   OH256760   2.920   2.137  15.073  0.5579  0.4418 -0.9199
11782TIP3    H156761   2.873   2.128  15.156  1.5735  0.6519 -0.3141
11782TIP3    H256762   2.898   2.225  15.043  0.3014  0.4213 -0.7946
11783TIP3   OH256763   3.223   6.005   2.234 -0.0567 -0.6294  0.2790
11783TIP3    H156764   3.185   6.020   2.148  2.0557  0.4040 -0.5038
11783TIP3    H256765   3.176   6.066   2.291  0.7492  0.9987 -0.7713
11784TIP3   OH256766   5.419   5.363  12.153  0.2358  0.0440  0.8406
11784TIP3    H156767   5.509   5.330  12.144  0.3597  1.0056 -1.9913
11784TIP3    H256768   5.421   5.448  12.111 -2.0835 -0.0117  0.5656
11785TIP3   OH256769   3.064   4.885   5.238 -0.2606 -0.1873 -0.3267
11785TIP3    H156770   3.036   4.976   5.227 -0.6925 -0.1895  0.7543
11785TIP3    H256771   3.100   4.882   5.327  0.3758 -0.9174 -0.6057
11786TIP3   OH256772   3.545   6.622  16.372 -0.5746 -0.2414  0.6838
11786TIP3    H156773   3.478   6.668  16.421 -2.3246 -0.6216 -1.3014
11786TIP3    H256774   3.540   6.531  16.404 -0.6205 -0.1656  0.8958
11787TIP3   OH256775   5.135   0.503  16.135 -0.1257  0.1549 -0.1619
11787TIP3    H156776   5.201   0.494  16.066 -1.2166 -1.3207 -1.0452
11787TIP3    H256777   5.175   0.561  16.199  1.1166  1.1476 -1.7933
11788TIP3   OH256778   2.514   5.174   6.115  0.0768 -0.1323 -0.0682
11788TIP3    H156779   2.475   5.242   6.169 -2.7725 -0.6028 -1.4326
11788TIP3    H256780   2.582   5.136   6.170 -1.5528  0.5570  2.5208
11789TIP3   OH256781   4.143   6.636  13.330 -0.1911 -0.2638 -0.5422
11789TIP3    H156782   4.150   6.583  13.251 -1.1538 -0.6949 -0.3482
11789TIP3    H256783   4.050   6.638  13.350 -0.3416  2.5479 -1.2393
11790TIP3   OH256784   4.197   0.426   4.435 -0.0174  0.1084  0.2240
11790TIP3    H156785   4.171   0.344   4.393 -0.7871 -0.3023  1.4778
11790TIP3    H256786   4.292   0.432   4.420 -0.2632 -0.1096 -1.4039
11791TIP3   OH256787   5.316   3.977   3.142 -0.2652  0.2903 -0.0091
11791TIP3    H156788   5.311   3.884   3.165  0.6137  0.0515 -0.7561
11791TIP3    H256789   5.228   4.010   3.158 -0.1504 -0.2706  1.9627
11792TIP3   OH256790   6.564   5.563   1.944 -0.7089 -0.1956  0.0459
11792TIP3    H156791   6.629   5.631   1.958 -0.6117  0.0141 -1.2925
11792TIP3    H256792   6.491   5.586   2.000  0.4160 -0.5031  1.6694
11793TIP3   OH256793   5.753   2.266  15.280  0.1550 -0.0892 -0.0437
11793TIP3    H156794   5.806   2.326  15.333  0.7004  1.1597 -1.9643
11793TIP3    H256795   5.674   2.316  15.258  1.0351  0.3151 -2.4455
11794TIP3   OH256796   2.839   0.636  16.838 -0.6057 -0.1075 -0.0989
11794TIP3    H156797   2.862   0.574  16.907 -0.3053 -0.3615 -0.4248
11794TIP3    H256798   2.910   0.629  16.774  0.2279  1.6912  0.5774
11795TIP3   OH256799   5.539   1.278  11.409 -0.6132 -0.4822 -0.2236
11795TIP3    H156800   5.555   1.238  11.323 -1.4764  0.9705 -1.0923
11795TIP3    H256801   5.532   1.372  11.390 -1.4664 -0.2187  1.3430
11796TIP3   OH256802   3.185   6.479   1.716 -0.2661  0.5432 -0.2880
11796TIP3    H156803   3.187   6.493   1.811 -3.0728  1.0677 -0.2737
11796TIP3    H256804   3.191   6.567   1.679  0.1540  0.3838 -0.6092
11797TIP3   OH256805   0.094   3.717  15.265  0.3515  0.0135 -0.3839
11797TIP3    H156806   0.177   3.765  15.274  0.9079 -1.0332  0.2011
11797TIP3    H256807   0.111   3.652  15.197  0.6406 -1.4936  1.1020
11798TIP3   OH256808   4.331   5.668  12.108 -0.8134  0.4585 -0.6802
11798TIP3    H156809   4.327   5.752  12.061 -1.7264 -0.3021 -2.0075
11798TIP3    H256810   4.261   5.616  12.069 -0.8283 -0.6146  0.7504
11799TIP3   OH256811   2.380   1.704   4.869 -0.0441 -0.2062 -0.0739
11799TIP3    H156812   2.366   1.674   4.779 -0.8192  0.6407 -0.2378
11799TIP3    H256813   2.339   1.636   4.923  1.3315 -1.2562 -0.2981
11800TIP3   OH256814   0.636   2.748   2.419  0.1814 -0.2778 -0.0143
11800TIP3    H156815   0.716   2.700   2.439  1.6617  1.3089 -1.8762
11800TIP3    H256816   0.622   2.806   2.494 -0.1349 -1.7127  1.0405
11801TIP3   OH256817   4.179   0.120  11.005 -0.0464 -0.2684 -0.3312
11801TIP3    H156818   4.247   0.097  11.070 -1.1602  0.4603  1.1159
11801TIP3    H256819   4.135   0.037  10.987 -0.8286 -0.1907  1.1436
11802TIP3   OH256820   2.029   3.693  14.005  0.1556  0.2080  0.1773
11802TIP3    H156821   2.017   3.679  13.911  1.6830  0.0433 -0.0062
11802TIP3    H256822   2.021   3.606  14.043 -2.1636  0.4914  0.4212
11803TIP3   OH256823   2.435   0.431  14.326 -0.0892  0.2829  0.1641
11803TIP3    H156824   2.454   0.355  14.272 -0.8487 -0.5071  1.0004
11803TIP3    H256825   2.498   0.497  14.297  0.6381 -0.6911 -0.5022
11804TIP3   OH256826   0.969   6.680   2.700 -0.3642  0.4572 -0.1192
11804TIP3    H156827   0.916   6.709   2.626  0.0379  1.5197 -0.0024
11804TIP3    H256828   0.919   6.609   2.740 -2.0866  1.9581  0.4724
11805TIP3   OH256829   5.985   0.512   4.032 -0.1316  0.7456 -0.3485
11805TIP3    H156830   6.050   0.561   3.981  0.6644  0.6371  0.5513
11805TIP3    H256831   6.037   0.456   4.089 -1.0352 -0.2131 -0.4594
11806TIP3   OH256832   2.333   2.588   2.064  0.5840  0.4646 -0.1235
11806TIP3    H156833   2.293   2.530   2.129 -0.6117  0.1922 -1.0786
11806TIP3    H256834   2.280   2.667   2.066  1.1784  0.8687 -0.0383
11807TIP3   OH256835   2.884   4.240  14.035 -0.6966 -0.4286  0.4038
11807TIP3    H156836   2.913   4.149  14.025  3.0282  0.9264 -1.9284
11807TIP3    H256837   2.939   4.275  14.105 -0.5052  0.6870 -0.3008
11808TIP3   OH256838   4.426   0.364  14.571  0.1696  0.2780  0.2960
11808TIP3    H156839   4.467   0.422  14.635 -2.5994  2.6012  0.0994
11808TIP3    H256840   4.452   0.399  14.486 -0.2952  0.3262  0.1730
11809TIP3   OH256841   2.231   4.524   5.277  0.1271  0.0353 -0.8783
11809TIP3    H156842   2.314   4.565   5.253  0.8268 -1.6708 -1.4283
11809TIP3    H256843   2.245   4.492   5.366 -0.3301  0.7187 -0.5530
11810TIP3   OH256844   2.332   6.409   3.414 -0.4446  0.1262  0.0123
11810TIP3    H156845   2.393   6.358   3.467 -0.0678 -0.4263 -0.9448
11810TIP3    H256846   2.381   6.489   3.392 -0.5650  0.3101  0.4040
11811TIP3   OH256847   3.766   0.283   3.731  0.2705  0.2512  0.1110
11811TIP3    H156848   3.735   0.233   3.654  0.7445 -1.7192  1.1652
11811TIP3    H256849   3.846   0.238   3.758 -0.4864  0.2599  2.4249
11812TIP3   OH256850   0.020   1.198   1.178  0.3259 -0.1118 -0.3811
11812TIP3    H156851  -0.013   1.259   1.244 -0.0282  0.9331 -1.4920
11812TIP3    H256852   0.031   1.115   1.224  2.8932  1.3218  1.7010
11813TIP3   OH256853   4.867   2.086  15.714  0.2753  0.1001 -0.1253
11813TIP3    H156854   4.895   2.004  15.672 -0.6235  0.0678 -0.6779
11813TIP3    H256855   4.795   2.118  15.659 -1.4232 -0.3105  1.7808
11814TIP3   OH256856   1.125   3.900   1.655  0.2134 -0.0051  0.3386
11814TIP3    H156857   1.152   3.812   1.628  0.1042  0.2304 -0.5584
11814TIP3    H256858   1.057   3.924   1.591 -0.4865  0.3164  1.1988
11815TIP3   OH256859   5.389   3.752   4.760  0.4855  0.1017 -0.5764
11815TIP3    H156860   5.443   3.694   4.814 -0.4429  0.0500  0.3330
11815TIP3    H256861   5.306   3.757   4.808 -0.5077 -0.2851 -2.2481
11816TIP3   OH256862   1.068   5.713  15.878 -0.2549 -0.0130  0.4179
11816TIP3    H156863   1.029   5.709  15.791  0.7474  0.6947 -0.0685
11816TIP3    H256864   1.022   5.785  15.921  0.0489  0.3977  0.0652
11817TIP3   OH256865   2.331   1.672  12.600  0.7353  0.0134  0.2490
11817TIP3    H156866   2.425   1.677  12.617  0.8910 -1.4113 -0.1394
11817TIP3    H256867   2.294   1.744  12.650  2.2047  1.5682 -0.8236
11818TIP3   OH256868   4.578   2.648  13.793 -0.6524  0.1912 -0.8079
11818TIP3    H156869   4.603   2.692  13.712  0.1607 -0.8388 -1.1163
11818TIP3    H256870   4.486   2.625  13.780 -0.7846  0.8467 -1.0654
11819TIP3   OH256871   5.925   2.793   0.896  0.0156 -0.5803 -0.4787
11819TIP3    H156872   5.985   2.814   0.967 -1.1123 -0.2993  0.4127
11819TIP3    H256873   5.848   2.847   0.914 -0.8904 -1.6594 -1.0557
11820TIP3   OH256874   3.267   2.105   4.856 -0.0075 -0.0514  0.4979
11820TIP3    H156875   3.196   2.057   4.813 -1.9559  0.6484  2.8332
11820TIP3    H256876   3.240   2.197   4.851  1.5945  0.3999 -0.1309
11821TIP3   OH256877   5.813   6.303  10.915 -0.6374  0.3265  0.0021
11821TIP3    H156878   5.875   6.257  10.972 -0.4846 -0.5273 -0.8478
11821TIP3    H256879   5.829   6.267  10.828 -0.8652  1.6323 -0.5872
11822TIP3   OH256880   6.386   3.920  12.748 -0.1979  0.6252 -0.6127
11822TIP3    H156881   6.314   3.930  12.810  0.0524  2.2124 -0.5392
11822TIP3    H256882   6.346   3.934  12.663 -0.0327  1.2194 -0.5930
11823TIP3   OH256883   5.993   1.334  15.317 -0.1713  0.4640  0.1038
11823TIP3    H156884   6.018   1.273  15.247  1.4800  2.2140 -0.8837
11823TIP3    H256885   6.075   1.373  15.345 -1.1654  1.9695  0.9919
11824TIP3   OH256886   5.761   3.851  14.235 -0.1417 -0.2251  0.2194
11824TIP3    H156887   5.739   3.763  14.205  0.3592 -0.3747  0.2851
11824TIP3    H256888   5.821   3.838  14.308  0.5758  0.1834 -0.2943
11825TIP3   OH256889   6.629   6.434   3.476  0.1834  0.3901  0.6138
11825TIP3    H156890   6.550   6.485   3.457  1.2194  1.5712 -0.7101
11825TIP3    H256891   6.700   6.499   3.473  1.7526 -1.3430 -2.6833
11826TIP3   OH256892   1.880   0.137   1.393 -0.2120 -0.4849  0.1288
11826TIP3    H156893   1.791   0.100   1.393 -0.6260  0.5091 -0.0493
11826TIP3    H256894   1.869   0.227   1.424  1.0535 -1.0975  2.5270
11827TIP3   OH256895   4.532   1.381   1.487  0.0682 -0.1054 -0.3510
11827TIP3    H156896   4.626   1.392   1.498  0.6329 -0.4539 -4.0710
11827TIP3    H256897   4.497   1.470   1.497  1.0536  0.3489 -0.7942
11828TIP3   OH256898   2.644   3.969   6.398 -0.3277 -0.0109 -0.4279
11828TIP3    H156899   2.728   3.990   6.438  0.4316 -0.8052 -1.5554
11828TIP3    H256900   2.579   3.981   6.468  0.6554  1.1426  0.2931
11829TIP3   OH256901   0.448   3.325  12.408 -0.2846 -0.7396 -0.3024
11829TIP3    H156902   0.352   3.335  12.407 -0.4073 -1.8763 -0.3909
11829TIP3    H256903   0.465   3.273  12.487  0.3189 -0.0172  0.0474
11830TIP3   OH256904   1.216   2.191  14.490  0.4590 -0.1096 -0.3920
11830TIP3    H156905   1.207   2.221  14.581 -0.2060 -2.3975  0.3138
11830TIP3    H256906   1.128   2.194  14.454  0.3991 -1.1603 -0.3362
11831TIP3   OH256907   0.429   1.222  16.442 -0.3629  0.0294 -0.0532
11831TIP3    H156908   0.337   1.228  16.418 -0.2412  0.8114 -0.3815
11831TIP3    H256909   0.444   1.131  16.464 -0.5946 -0.6690 -2.6025
11832TIP3   OH256910   2.228   6.514   0.171  0.4447 -0.5716 -0.2070
11832TIP3    H156911   2.209   6.441   0.112  2.4426  0.4558 -2.2097
11832TIP3    H256912   2.323   6.525   0.165  0.4099  0.9558  1.5657
11833TIP3   OH256913   1.753   2.444   1.589 -0.7504 -0.2413 -0.8435
11833TIP3    H156914   1.693   2.402   1.527 -2.5978  0.7240  0.2379
11833TIP3    H256915   1.702   2.451   1.670  0.1219  2.4483 -0.4898
11834TIP3   OH256916   4.009   6.137  13.578 -0.1531 -0.2742 -0.8708
11834TIP3    H156917   3.978   6.195  13.510  0.1119 -0.6262 -1.3004
11834TIP3    H256918   3.935   6.126  13.637  0.0421  1.1312 -0.3424
11835TIP3   OH256919   6.397   0.316  13.313 -0.0420  0.3607 -0.1237
11835TIP3    H156920   6.423   0.373  13.241 -0.6713  1.2198  0.3215
11835TIP3    H256921   6.444   0.234  13.297  2.4375  1.6658  0.3503
11836TIP3   OH256922   1.270   0.675  16.908  0.1509 -0.0928  0.1668
11836TIP3    H156923   1.316   0.706  16.986 -0.9395 -0.4671  0.9735
11836TIP3    H256924   1.198   0.738  16.897  0.0111 -0.3250 -0.2446
11837TIP3   OH256925   4.774   1.625  13.105  0.3798 -0.2724 -0.1506
11837TIP3    H156926   4.725   1.639  13.024  1.2753 -0.5591 -0.7354
11837TIP3    H256927   4.728   1.554  13.149  0.2458 -0.5142 -0.6831
11838TIP3   OH256928   2.526   0.430   2.148  0.0096  0.1682  0.3599
11838TIP3    H156929   2.523   0.347   2.196  1.3184  0.5421  1.0914
11838TIP3    H256930   2.557   0.494   2.211  1.2778  0.7573 -0.8159
11839TIP3   OH256931   5.712   6.524   5.947  0.3264  0.1146 -0.2247
11839TIP3    H156932   5.723   6.566   5.862  1.5681  0.9596  0.3390
11839TIP3    H256933   5.700   6.596   6.008 -0.4591 -0.4828  0.3370
11840TIP3   OH256934   1.481   4.739  10.299 -0.5394 -0.4719  0.0838
11840TIP3    H156935   1.529   4.657  10.312 -0.8418 -0.5106  1.0001
11840TIP3    H256936   1.391   4.712  10.282 -0.6224 -0.3378  0.3026
11841TIP3   OH256937   5.896   0.606   1.022  0.1776 -0.2409 -0.3214
11841TIP3    H156938   5.858   0.678   0.971  0.4421 -0.0759 -0.2902
11841TIP3    H256939   5.978   0.586   0.977  0.3798 -0.1412 -0.0002
11842TIP3   OH256940   5.935   0.019   5.800 -0.5014  0.0818 -0.2808
11842TIP3    H156941   5.864  -0.031   5.759 -1.9332  0.6571  1.4097
11842TIP3    H256942   5.949  -0.025   5.884  1.0958  0.0381 -0.5580
11843TIP3   OH256943   6.653   4.209   1.320  0.3160  0.3446  0.1155
11843TIP3    H156944   6.629   4.132   1.370  0.2699  0.2890  0.0077
11843TIP3    H256945   6.642   4.183   1.228 -0.8612  0.8445  0.0932
11844TIP3   OH256946   2.385   1.676  14.930 -0.1315  0.0374 -0.2286
11844TIP3    H156947   2.464   1.630  14.905 -0.8376 -0.8611 -0.8431
11844TIP3    H256948   2.347   1.622  15.000 -0.6980 -0.0504 -0.6008
11845TIP3   OH256949   0.169   0.429  12.909 -0.4110 -0.2497  0.1828
11845TIP3    H156950   0.198   0.485  12.981  0.6528 -1.5926  0.8289
11845TIP3    H256951   0.169   0.341  12.946 -1.7087 -0.7306 -0.9227
11846TIP3   OH256952   6.313   3.861   4.030 -0.1152 -0.0836 -0.3309
11846TIP3    H156953   6.354   3.884   3.946  0.3294  0.2042 -0.0363
11846TIP3    H256954   6.219   3.869   4.013 -0.1057 -1.6855 -1.2881
11847TIP3   OH256955   0.037   0.272   5.518 -0.1840  0.3256  0.1804
11847TIP3    H156956   0.035   0.187   5.474  0.1962 -0.3813  1.4916
11847TIP3    H256957  -0.051   0.282   5.555 -0.3699  0.7154 -0.3698
11848TIP3   OH256958   2.842   4.531   6.314 -0.5138 -0.7171  0.6167
11848TIP3    H156959   2.803   4.451   6.351 -3.2567  0.6668  0.8305
11848TIP3    H256960   2.917   4.549   6.370 -0.1816 -2.8382  0.8979
11849TIP3   OH256961   4.291   5.149  16.657  0.0462  0.1101  0.0931
11849TIP3    H156962   4.211   5.172  16.703 -1.3549 -2.4421 -1.0010
11849TIP3    H256963   4.283   5.192  16.571 -0.7063 -1.0848 -0.4445
11850TIP3   OH256964   6.080   5.078  12.118  0.1098 -0.0583  0.0985
11850TIP3    H156965   6.071   5.023  12.196 -0.3027 -0.4442 -0.2144
11850TIP3    H256966   5.992   5.112  12.103  0.6374  1.7667  1.0626
11851TIP3   OH256967   3.033   2.373  12.234  0.3254  0.1776  0.4024
11851TIP3    H156968   3.003   2.415  12.314 -1.9800  0.3421 -0.5239
11851TIP3    H256969   3.064   2.445  12.179  0.0791  0.2552  0.3672
11852TIP3   OH256970   3.530   5.000   4.602  0.3129  0.2493  0.3320
11852TIP3    H156971   3.530   5.091   4.574 -2.3474  0.0554 -0.4863
11852TIP3    H256972   3.563   5.001   4.691  0.5071  1.9766  0.2484
11853TIP3   OH256973   6.316   4.316  12.654  0.3045  0.4667 -0.0628
11853TIP3    H156974   6.309   4.262  12.576  1.6143  0.0231  0.1158
11853TIP3    H256975   6.230   4.356  12.664 -0.2789 -0.5713 -0.9349
11854TIP3   OH256976   0.497   4.155   0.062 -0.6024  0.1066 -0.1285
11854TIP3    H156977   0.525   4.192  -0.021 -2.0578  0.2191 -0.5905
11854TIP3    H256978   0.537   4.068   0.065 -2.0540 -0.6488 -1.8310
11855TIP3   OH256979   2.333   5.541  15.290 -0.2997  0.0544 -0.2241
11855TIP3    H156980   2.267   5.509  15.229 -0.3647  0.8024 -0.5563
11855TIP3    H256981   2.339   5.635  15.272  2.3990 -0.3488 -1.7180
11856TIP3   OH256982   0.878   4.431  14.648  0.0507  0.0805  0.0932
11856TIP3    H156983   0.785   4.427  14.629  0.1429  1.3399 -0.7629
11856TIP3    H256984   0.918   4.371  14.585 -0.2369 -0.9757  0.9145
11857TIP3   OH256985   5.288   6.176  15.537  0.3992  0.3038 -0.6556
11857TIP3    H156986   5.295   6.223  15.620  2.2049 -0.5117 -0.3283
11857TIP3    H256987   5.195   6.182  15.514  0.4028  3.0743 -0.0910
11858TIP3   OH256988   3.023   1.458   2.463 -0.3525 -0.0118 -0.1381
11858TIP3    H156989   3.041   1.415   2.546  2.4464 -0.1249 -0.7634
11858TIP3    H256990   2.989   1.544   2.487  1.1000  0.2145  1.1286
11859TIP3   OH256991   1.809   0.701  16.632  0.0151  0.1090 -0.2652
11859TIP3    H156992   1.756   0.649  16.572 -0.6026  0.1815  0.2200
11859TIP3    H256993   1.748   0.761  16.674 -0.6095 -3.5054  4.3972
11860TIP3   OH256994   4.027   3.092   4.270 -0.9393 -0.2972  0.3417
11860TIP3    H156995   3.998   3.105   4.360 -0.1400 -2.5214  0.9494
11860TIP3    H256996   3.962   3.034   4.231 -0.3712 -0.7158  0.0059
11861TIP3   OH256997   4.057   1.839  13.775 -0.8448 -0.6030  0.8721
11861TIP3    H156998   4.152   1.832  13.760 -0.8041 -0.2030  0.9246
11861TIP3    H256999   4.050   1.892  13.854 -1.1176 -0.5476  0.8099
11862TIP3   OH257000   3.820   4.723   0.364 -0.0031  0.0905  0.0966
11862TIP3    H157001   3.735   4.731   0.406  0.6544  0.2465  1.4362
11862TIP3    H257002   3.817   4.786   0.292 -0.8827  0.3780  0.3753
11863TIP3   OH257003   6.548   2.885   1.390  0.2986  0.7033  0.3656
11863TIP3    H157004   6.616   2.844   1.443 -1.6960 -1.6557  1.1641
11863TIP3    H257005   6.505   2.946   1.450  1.0130  1.4576  0.1322
11864TIP3   OH257006   4.520   2.729   4.948  0.7835 -0.3781 -1.0541
11864TIP3    H157007   4.550   2.648   4.907  1.0095  0.4878 -2.6440
11864TIP3    H257008   4.511   2.707   5.041 -0.4730 -2.6048 -1.6568
11865TIP3   OH257009   4.256   5.430  12.354  0.1404  0.3335  0.4308
11865TIP3    H157010   4.256   5.350  12.303  0.3886 -0.2169  1.2806
11865TIP3    H257011   4.206   5.493  12.301  1.1690  0.0500 -0.8920
11866TIP3   OH257012   1.678   0.697  13.581 -0.2924  0.5428  0.3485
11866TIP3    H157013   1.694   0.729  13.492  0.2682  0.8166  0.5514
11866TIP3    H257014   1.585   0.673  13.581 -0.2629  0.4181 -0.3492
11867TIP3   OH257015   4.316   5.658   2.890  0.2227 -0.2410  0.2581
11867TIP3    H157016   4.303   5.748   2.860  1.9178 -0.0914 -0.0622
11867TIP3    H257017   4.411   5.646   2.891  0.0988 -1.2846  2.5089
11868TIP3   OH257018   0.664   2.823   0.355  0.3210  0.0218  0.2478
11868TIP3    H157019   0.693   2.747   0.303  1.7853 -0.5131  1.7965
11868TIP3    H257020   0.741   2.848   0.406 -0.6491  1.5085  1.0141
11869TIP3   OH257021   3.257   3.846   5.068  0.5106 -0.2082  0.4029
11869TIP3    H157022   3.210   3.868   5.148  0.9597 -0.3783  0.7207
11869TIP3    H257023   3.338   3.806   5.099  1.2381  0.8366 -0.1247
11870TIP3   OH257024   2.579   0.994   0.319 -0.0358  0.8373  0.4600
11870TIP3    H157025   2.654   1.018   0.265  0.3386 -0.5879  0.3229
11870TIP3    H257026   2.512   0.968   0.256 -0.7260  2.3198  0.5730
11871TIP3   OH257027   1.839   6.554  10.643  0.3571  0.0053  0.2484
11871TIP3    H157028   1.833   6.461  10.667 -0.4188  0.3217  1.3292
11871TIP3    H257029   1.933   6.572  10.639  0.5140 -0.8383 -0.0468
11872TIP3   OH257030   4.809   1.495  10.555  0.1025 -0.2789 -0.4474
11872TIP3    H157031   4.853   1.413  10.532 -1.5493 -1.5131  0.6729
11872TIP3    H257032   4.880   1.557  10.569  1.5759 -2.3469  1.8061
11873TIP3   OH257033   6.286   1.434   1.368  0.3585 -0.0721 -0.3466
11873TIP3    H157034   6.231   1.406   1.442  1.8018 -1.2896  0.3050
11873TIP3    H257035   6.359   1.372   1.368  1.7175  1.4827 -1.2130
11874TIP3   OH257036   6.736   1.262   2.573  0.4188  0.0364 -0.1944
11874TIP3    H157037   6.722   1.348   2.533 -0.8642 -0.4290 -0.7799
11874TIP3    H257038   6.707   1.273   2.664 -0.5819 -0.0101 -0.5040
11875TIP3   OH257039   1.386   5.194  14.537  0.7150  0.2283 -0.3876
11875TIP3    H157040   1.452   5.132  14.507  1.5485  0.4621  0.8949
11875TIP3    H257041   1.408   5.277  14.494  0.6300  0.0461 -0.7765
11876TIP3   OH257042   2.162   4.175   0.868 -0.2308  0.7319  0.0652
11876TIP3    H157043   2.255   4.167   0.887  0.2665  0.1008 -2.3705
11876TIP3    H257044   2.124   4.093   0.897  0.5787 -0.3983 -1.9628
11877TIP3   OH257045   4.526   1.692  14.022 -0.0892 -0.2711  0.3655
11877TIP3    H157046   4.522   1.787  14.011 -1.2196 -0.5927 -2.1666
11877TIP3    H257047   4.436   1.662  14.010 -0.0878 -1.5281  2.9502
11878TIP3   OH257048   0.467   6.675  11.393 -0.1454  0.9385 -0.2074
11878TIP3    H157049   0.485   6.633  11.309 -1.8719 -0.3947  0.0864
11878TIP3    H257050   0.391   6.731  11.377  0.0535  1.3571  0.2628
11879TIP3   OH257051   3.324   2.873   4.767  0.0783 -0.2281 -0.0459
11879TIP3    H157052   3.268   2.907   4.697  0.5288  0.6026 -0.0168
11879TIP3    H257053   3.308   2.779   4.768 -0.0169 -0.2302 -1.2045
11880TIP3   OH257054   3.691   5.063  15.593  0.0789  0.4442 -0.0481
11880TIP3    H157055   3.643   5.139  15.562  0.6813  1.0647  0.5135
11880TIP3    H257056   3.783   5.090  15.592  0.4187 -0.6815 -0.9871
11881TIP3   OH257057   2.316   5.278  14.655  0.4152  0.1607 -0.1292
11881TIP3    H157058   2.306   5.313  14.743 -0.8279 -1.2149  0.2969
11881TIP3    H257059   2.389   5.216  14.661  0.7760  0.5796 -0.2217
11882TIP3   OH257060   0.444   4.766   2.722  0.4228 -0.1963 -0.1721
11882TIP3    H157061   0.404   4.719   2.648 -0.7626 -0.4427  0.6109
11882TIP3    H257062   0.428   4.858   2.704 -1.2910 -0.3326  0.5652
11883TIP3   OH257063   0.670   6.721  15.757  0.2285  0.0856  0.1455
11883TIP3    H157064   0.682   6.789  15.823  1.4728 -0.0767  0.0908
11883TIP3    H257065   0.741   6.659  15.772 -0.9258 -1.2649  0.2565
11884TIP3   OH257066   5.990   3.023   0.726  0.1323  0.1537  0.4604
11884TIP3    H157067   5.911   3.058   0.683  0.3919 -0.1419 -0.2640
11884TIP3    H257068   5.959   2.945   0.773  0.0138 -0.0158  0.1018
11885TIP3   OH257069   4.584   5.779  15.827  0.0352  0.3935 -0.2934
11885TIP3    H157070   4.544   5.779  15.740 -0.7313  1.0982  0.0478
11885TIP3    H257071   4.609   5.870  15.842  1.2634  0.0569 -0.2630
11886TIP3   OH257072   6.199   0.280   5.041  0.3368 -0.5023  0.1812
11886TIP3    H157073   6.261   0.350   5.062  0.5219 -1.2809  2.3361
11886TIP3    H257074   6.189   0.231   5.123 -1.2759 -1.8416 -0.7826
11887TIP3   OH257075   5.302   6.054  13.757 -0.4574 -0.0292 -0.4237
11887TIP3    H157076   5.360   5.984  13.726  1.2456  0.4421  1.5536
11887TIP3    H257077   5.342   6.135  13.727 -0.2503  0.2822  0.6455
11888TIP3   OH257078   3.019   0.183  14.658 -0.2833  0.0400 -0.4162
11888TIP3    H157079   2.933   0.180  14.699 -0.3510  1.4658 -0.4547
11888TIP3    H257080   3.015   0.257  14.597  1.4173  0.9964  0.6056
11889TIP3   OH257081   0.273   3.627  13.894 -0.2991 -0.1615  0.2365
11889TIP3    H157082   0.278   3.538  13.858  1.6111 -0.6591  1.6602
11889TIP3    H257083   0.229   3.678  13.825  1.7641 -1.4235 -2.1010
11890TIP3   OH257084   2.758   5.165   2.126 -0.6233  0.8096  0.2148
11890TIP3    H157085   2.714   5.250   2.136 -1.4750  0.3900  0.1437
11890TIP3    H257086   2.747   5.123   2.212  1.0999  1.3700  0.7175
11891TIP3   OH257087   1.960   2.087  13.801  0.2041  0.8299  0.5607
11891TIP3    H157088   1.898   2.109  13.870  0.9434  1.0983  1.1571
11891TIP3    H257089   2.025   2.158  13.804  0.4283  0.6580 -0.1766
11892TIP3   OH257090   2.233   3.340  15.248 -0.2013  0.0656  0.0426
11892TIP3    H157091   2.156   3.323  15.303 -0.4777 -0.1537 -0.4100
11892TIP3    H257092   2.202   3.324  15.158  0.5639 -0.7164 -0.0891
11893TIP3   OH257093   0.288   2.618   0.287 -0.3323 -0.1255  0.6469
11893TIP3    H157094   0.345   2.574   0.224  0.3332 -0.3369  1.3850
11893TIP3    H257095   0.328   2.704   0.298 -1.3370  0.4861 -0.4006
11894TIP3   OH257096   0.133   1.857   3.711  0.3094 -0.1099 -0.5394
11894TIP3    H157097   0.109   1.765   3.706  0.0793 -0.1108  0.5335
11894TIP3    H257098   0.227   1.857   3.729 -0.1823 -0.1656  2.1267
11895TIP3   OH257099   3.517   6.461   4.187 -0.7285 -0.0851 -0.5692
11895TIP3    H157100   3.527   6.387   4.126 -0.7829 -1.1373  0.6842
11895TIP3    H257101   3.555   6.430   4.269  1.3521  2.1040 -0.6528
11896TIP3   OH257102   4.389   1.293  13.470 -0.0566  0.1095  0.3553
11896TIP3    H157103   4.477   1.265  13.444 -0.0490  0.9511 -0.5807
11896TIP3    H257104   4.333   1.217  13.454  0.3500 -0.1382  0.1099
11897TIP3   OH257105   6.662   6.538  14.797 -0.5565 -0.0038 -0.2912
11897TIP3    H157106   6.605   6.465  14.820  0.5064 -0.4380  0.9955
11897TIP3    H257107   6.741   6.496  14.763  0.3272  0.5330  1.0939
11898TIP3   OH257108   5.139   3.864   2.799  0.1990 -0.6250  0.2449
11898TIP3    H157109   5.087   3.937   2.767  1.2880  0.8007  1.5965
11898TIP3    H257110   5.080   3.814   2.855 -1.0479 -1.8149 -2.0908
11899TIP3   OH257111   0.380   6.135  12.380  0.5169  0.1863 -0.2286
11899TIP3    H157112   0.408   6.132  12.289  0.8133 -0.6946 -0.1133
11899TIP3    H257113   0.461   6.147  12.429  0.3287  0.9400 -0.0912
11900TIP3   OH257114   6.734   2.819  14.781 -0.4716 -0.1694  0.0012
11900TIP3    H157115   6.723   2.880  14.708  2.6518 -0.8564 -1.1051
11900TIP3    H257116   6.719   2.732  14.742 -2.5019 -0.3312  1.0432
11901TIP3   OH257117   1.886   3.637   4.203  0.6556 -0.6297  0.2834
11901TIP3    H157118   1.954   3.698   4.230  0.2012 -0.3707  0.8504
11901TIP3    H257119   1.910   3.613   4.114  0.4360  0.9462 -0.2184
11902TIP3   OH257120   6.317   1.245   3.009 -0.0145 -0.8324 -0.2724
11902TIP3    H157121   6.316   1.287   2.923  0.9673 -0.4653 -0.1113
11902TIP3    H257122   6.335   1.153   2.991  4.9050 -0.0282 -0.2177
11903TIP3   OH257123   2.584   4.965   1.181 -0.7336  0.1805 -0.0476
11903TIP3    H157124   2.640   5.005   1.248 -0.9871 -0.5580  0.6107
11903TIP3    H257125   2.537   5.039   1.143  0.1029  0.7167 -0.0579
11904TIP3   OH257126   5.317   1.004   2.632  0.9904 -0.0132 -0.1767
11904TIP3    H157127   5.273   1.029   2.551  2.9739  0.3728 -1.1541
11904TIP3    H257128   5.310   1.082   2.687 -0.5251 -0.3398  0.1307
11905TIP3   OH257129   6.178   3.011  17.059 -0.6383  0.3451 -0.2950
11905TIP3    H157130   6.263   3.041  17.028 -0.0449  0.8605  1.7845
11905TIP3    H257131   6.194   2.922  17.092 -0.6444  0.8609  1.1355
11906TIP3   OH257132   6.167   0.566  11.441 -0.6096  0.1408 -0.2926
11906TIP3    H157133   6.245   0.548  11.389 -1.1214  0.7584 -1.2818
11906TIP3    H257134   6.202   0.592  11.527  0.3183  1.1514 -0.9494
11907TIP3   OH257135   1.817   6.036   4.214  0.3471  0.2238  0.4659
11907TIP3    H157136   1.817   5.998   4.302  1.6907 -1.5221 -0.2739
11907TIP3    H257137   1.864   6.119   4.224 -0.7867  0.7496  1.6677
11908TIP3   OH257138   1.306   2.127  13.622  0.0323  0.5349 -0.1061
11908TIP3    H157139   1.215   2.115  13.647  0.5525  0.3425  1.8137
11908TIP3    H257140   1.321   2.063  13.552 -1.3976  0.8752 -0.7302
11909TIP3   OH257141   0.103   6.146  14.155  0.3743  0.0268  0.7895
11909TIP3    H157142   0.148   6.158  14.072 -0.4118 -0.1194  0.3389
11909TIP3    H257143   0.043   6.221  14.161  2.3670  1.5477  2.5067
11910TIP3   OH257144   6.482   4.644   3.323 -0.7745  0.5489 -0.0239
11910TIP3    H157145   6.497   4.692   3.405  0.1988  1.4262 -0.7012
11910TIP3    H257146   6.432   4.567   3.349 -0.3676  0.7558  1.4236
11911TIP3   OH257147   5.335   3.541  16.948 -0.3542 -0.3966 -0.5455
11911TIP3    H157148   5.375   3.581  16.871  0.6609 -1.7378 -0.7322
11911TIP3    H257149   5.248   3.514  16.919 -1.4098  2.4574 -0.1637
11912TIP3   OH257150   2.840   4.053  12.683  0.3030  0.0883 -0.0310
11912TIP3    H157151   2.929   4.072  12.653  1.6480 -1.7757  2.5199
11912TIP3    H257152   2.853   4.011  12.768 -3.0049 -1.0815 -0.0539
11913TIP3   OH257153   0.994   5.423   4.242  0.3745 -0.0948  0.1272
11913TIP3    H157154   1.035   5.496   4.286  0.1885  0.7196 -1.0281
11913TIP3    H257155   0.950   5.462   4.166 -0.9754 -1.1835  0.3233
11914TIP3   OH257156   1.990   5.649  15.033  0.1649 -0.4619  0.1813
11914TIP3    H157157   1.938   5.727  15.054  0.3163 -0.3448  0.1215
11914TIP3    H257158   1.955   5.581  15.091  0.2595 -0.2606  0.4755
11915TIP3   OH257159   5.044   2.309  12.889  0.7130 -0.0416 -0.1448
11915TIP3    H157160   5.077   2.395  12.914  1.3556 -0.2580 -0.2393
11915TIP3    H257161   5.117   2.249  12.906  0.0201 -0.6810  0.6470
11916TIP3   OH257162   2.695   3.754  14.520 -0.0551 -0.3296  0.5853
11916TIP3    H157163   2.634   3.827  14.515 -0.3792 -0.6350  0.0314
11916TIP3    H257164   2.774   3.791  14.559  0.1491  0.5508 -0.6451
11917TIP3   OH257165   6.181   3.434   5.905  0.2103  0.0843  0.0603
11917TIP3    H157166   6.167   3.527   5.887  1.1430  0.1529 -0.3155
11917TIP3    H257167   6.148   3.389   5.827  1.6516  0.2188 -0.6281
11918TIP3   OH257168   3.591   3.192  11.526  0.3424 -0.2399  0.1187
11918TIP3    H157169   3.682   3.189  11.557  1.6083  2.2666 -3.1211
11918TIP3    H257170   3.542   3.230  11.599  1.6323 -2.7112  2.3515
11919TIP3   OH257171   5.891   5.311   5.043 -0.0409 -0.0934  0.0893
11919TIP3    H157172   5.801   5.299   5.012 -0.0844  0.1191  0.1337
11919TIP3    H257173   5.922   5.388   4.996  0.9813 -1.6391 -1.8433
11920TIP3   OH257174   0.699   5.144  11.364 -0.3143  0.3563 -0.5701
11920TIP3    H157175   0.626   5.114  11.417  0.1366 -0.0242 -0.1502
11920TIP3    H257176   0.743   5.063  11.336 -1.7500  0.4424 -3.2927
11921TIP3   OH257177   2.736   1.155   2.903  0.2277 -0.1837  0.3299
11921TIP3    H157178   2.828   1.131   2.918  0.1825  0.6103  2.0002
11921TIP3    H257179   2.695   1.147   2.989 -1.2096 -0.2586 -0.3557
11922TIP3   OH257180   4.552   2.430  17.166  0.1534  0.2320  0.6865
11922TIP3    H157181   4.565   2.336  17.157 -0.8195  0.0143  1.5184
11922TIP3    H257182   4.532   2.443  17.258 -0.6837  1.1344  0.3916
11923TIP3   OH257183   4.525   5.819   1.047 -0.5902 -0.1204  0.0327
11923TIP3    H157184   4.467   5.896   1.048 -1.1453 -0.5301 -0.5618
11923TIP3    H257185   4.465   5.745   1.039 -0.2321 -0.7719  2.7882
11924TIP3   OH257186   3.332   5.690   4.368  0.4785 -0.1093  0.4993
11924TIP3    H157187   3.406   5.630   4.360  0.4516  0.1820 -2.5410
11924TIP3    H257188   3.372   5.776   4.379  0.5684 -0.1472  0.4668
11925TIP3   OH257189   3.936   5.543   2.220 -0.0378 -0.1902 -0.1446
11925TIP3    H157190   3.969   5.474   2.277 -0.4861 -1.1847 -1.0677
11925TIP3    H257191   3.848   5.515   2.196 -1.2606  1.9906  1.5532
11926TIP3   OH257192   3.715   0.306  15.237  0.3076  0.1419 -0.3027
11926TIP3    H157193   3.734   0.390  15.195 -1.6001  2.7364  3.5937
11926TIP3    H257194   3.623   0.290  15.216 -0.2166  0.6827  1.4672
11927TIP3   OH257195   4.258   3.713  17.016  0.0398  0.0079 -0.0666
11927TIP3    H157196   4.228   3.800  16.990 -1.4746 -0.7728 -1.0567
11927TIP3    H257197   4.352   3.721  17.028 -0.1974  1.9617  0.6132
11928TIP3   OH257198   1.623   1.965  15.791  0.2253  0.2317 -0.7370
11928TIP3    H157199   1.644   2.012  15.871  0.0335  1.1472 -1.2224
11928TIP3    H257200   1.574   1.888  15.821  0.4776  0.3745  0.0493
11929TIP3   OH257201   4.751   5.546  11.175 -0.3110 -0.0437  0.0965
11929TIP3    H157202   4.698   5.616  11.137  1.2172  1.8105  1.2782
11929TIP3    H257203   4.785   5.498  11.099 -0.7461  0.9812 -0.7663
11930TIP3   OH257204   5.100   5.359  11.790 -0.3110  0.3975 -0.0740
11930TIP3    H157205   5.101   5.433  11.851  0.8981  1.9122 -1.8974
11930TIP3    H257206   5.008   5.352  11.762 -0.1682  2.1487 -1.0107
11931TIP3   OH257207   4.071   5.210  14.334  0.6388  0.0019 -0.2650
11931TIP3    H157208   4.090   5.171  14.248  3.1931 -0.6417  0.5704
11931TIP3    H257209   4.013   5.146  14.376 -1.7836  0.9756 -2.0003
11932TIP3   OH257210   0.100   6.155  12.508  0.3498 -0.2672 -0.0016
11932TIP3    H157211   0.192   6.162  12.484 -0.0970 -1.0629 -2.0781
11932TIP3    H257212   0.053   6.168  12.426 -1.3923  0.3352  1.0767
11933TIP3   OH257213   3.654   1.061   0.586  0.5982 -0.0512 -0.1220
11933TIP3    H157214   3.611   1.146   0.579 -0.2911 -0.4948 -0.0028
11933TIP3    H257215   3.741   1.081   0.621  0.6993  0.8956 -0.9009
11934TIP3   OH257216   3.900   6.775  12.670  0.0807 -0.2787 -0.1576
11934TIP3    H157217   3.965   6.735  12.727 -0.3138 -0.8105 -0.0712
11934TIP3    H257218   3.940   6.776  12.583  0.0605 -0.9391 -0.1749
11935TIP3   OH257219   1.706   5.472   5.550  0.1444 -0.8080 -0.2392
11935TIP3    H157220   1.792   5.484   5.590  0.8117  0.3137 -1.9655
11935TIP3    H257221   1.707   5.529   5.474 -1.7980 -1.4990 -0.8058
11936TIP3   OH257222   4.248   3.897   4.867  0.1402 -0.2899 -0.3258
11936TIP3    H157223   4.216   3.850   4.791 -1.2403  1.0960 -0.6087
11936TIP3    H257224   4.257   3.988   4.838  1.5050 -0.1130  0.5951
11937TIP3   OH257225   0.072   3.528  15.050  0.2995  0.5053  0.4699
11937TIP3    H157226   0.001   3.575  15.007 -0.8781 -1.3754  0.2862
11937TIP3    H257227   0.145   3.533  14.988 -0.3838  0.5521 -0.3417
11938TIP3   OH257228   3.335   1.073  14.398 -0.4286 -0.0255  0.0425
11938TIP3    H157229   3.243   1.098  14.387 -0.9373 -2.5740 -2.0076
11938TIP3    H257230   3.384   1.138  14.347 -1.3327 -0.3436 -1.2543
11939TIP3   OH257231   2.355   3.743  11.595 -0.1325 -1.2129  0.4622
11939TIP3    H157232   2.437   3.702  11.624 -0.1597 -1.1740  0.5947
11939TIP3    H257233   2.302   3.670  11.563  1.2116 -0.8532 -2.6888
11940TIP3   OH257234   3.417   4.664   3.496  0.5067 -0.3906 -0.1474
11940TIP3    H157235   3.504   4.697   3.521  0.3692  0.5188 -0.8579
11940TIP3    H257236   3.370   4.655   3.579  0.8423  0.3699  0.1236
11941TIP3   OH257237   2.224   5.513   3.919 -0.1647 -0.0287 -0.2191
11941TIP3    H157238   2.149   5.462   3.888 -1.0707 -0.5920  2.8021
11941TIP3    H257239   2.298   5.455   3.909 -1.0338 -1.6219  2.1852
11942TIP3   OH257240   4.848   1.025   0.959  0.4986 -0.0900 -0.2624
11942TIP3    H157241   4.775   0.967   0.936  0.3116 -0.7607  1.8863
11942TIP3    H257242   4.807   1.097   1.006  0.9078  1.0583 -1.6423
11943TIP3   OH257243   0.438   6.088  10.348  0.0713 -0.6933  0.7008
11943TIP3    H157244   0.359   6.134  10.319  1.2237 -1.0246 -3.2550
11943TIP3    H257245   0.410   5.998  10.362 -0.2771 -0.8051 -0.6856
11944TIP3   OH257246   4.911   6.761   5.968 -0.0174  0.4944  0.1113
11944TIP3    H157247   4.853   6.743   5.894  1.0253 -1.0599 -0.3457
11944TIP3    H257248   4.859   6.741   6.045 -0.1595 -0.7273 -0.2895
11945TIP3   OH257249   0.483   6.446  16.988  0.5082 -0.3563 -0.1090
11945TIP3    H157250   0.570   6.458  17.027 -0.7657  1.2437  2.4099
11945TIP3    H257251   0.428   6.418  17.061 -1.1467 -1.2080 -1.6405
11946TIP3   OH257252   5.346   3.759   1.188  0.7125 -0.5782  0.7639
11946TIP3    H157253   5.301   3.827   1.238  2.3927 -1.3795  3.5055
11946TIP3    H257254   5.284   3.686   1.185  0.3925 -0.3308  1.2745
11947TIP3   OH257255   0.058   0.402   4.093 -0.0575 -0.2943 -0.5102
11947TIP3    H157256   0.141   0.439   4.122  0.5417 -0.9536 -1.3595
11947TIP3    H257257   0.033   0.341   4.163 -1.4769  2.2867  1.3003
11948TIP3   OH257258   5.761   1.044  16.282  0.3483  0.0402  0.0212
11948TIP3    H157259   5.705   1.085  16.216 -1.0496 -0.1253  1.0822
11948TIP3    H257260   5.721   1.067  16.365 -0.0606 -2.8721  0.6775
11949TIP3   OH257261   6.106   3.976   5.193 -0.3026  0.2871 -0.2629
11949TIP3    H157262   6.045   4.048   5.179 -0.6644  0.1733  0.6722
11949TIP3    H257263   6.162   3.975   5.115  1.5049  3.3204  0.9242
11950TIP3   OH257264   2.454   6.339   5.173  0.1462 -0.3727  0.0067
11950TIP3    H157265   2.396   6.344   5.249  0.4144  0.5352  0.1581
11950TIP3    H257266   2.521   6.276   5.198 -1.1307 -1.9194 -0.4184
11951TIP3   OH257267   5.043   0.786   4.615  0.1442  0.0479 -0.0609
11951TIP3    H157268   5.025   0.694   4.632  1.3673 -0.3760 -1.0123
11951TIP3    H257269   5.048   0.793   4.520 -2.7472  1.6620 -0.1603
11952TIP3   OH257270   1.087   3.157   6.061  0.0600 -0.4395 -0.4471
11952TIP3    H157271   1.051   3.184   6.146 -0.2791 -0.2906 -0.6387
11952TIP3    H257272   1.072   3.063   6.057  0.7385 -0.5692 -0.0205
11953TIP3   OH257273   4.174   4.969   6.426 -0.2090 -0.6500  0.1677
11953TIP3    H157274   4.198   5.061   6.418 -0.1169 -0.4841  2.1930
11953TIP3    H257275   4.257   4.922   6.419 -0.3159 -0.6363 -1.4068
11954TIP3   OH257276   4.994   0.640  14.254 -0.2054 -0.0949  0.1571
11954TIP3    H157277   5.036   0.619  14.171  0.2837  1.6021 -0.0353
11954TIP3    H257278   5.004   0.735  14.263 -1.5794 -0.0553  1.4332
11955TIP3   OH257279   2.932   5.010  15.541 -0.0536 -0.2929 -0.0189
11955TIP3    H157280   2.958   4.962  15.462  0.8904  1.7819 -0.9880
11955TIP3    H257281   3.010   5.010  15.596 -0.3364 -0.6507  0.3889
11956TIP3   OH257282   2.919   4.206  16.101 -0.6845 -0.2441 -0.1552
11956TIP3    H157283   2.860   4.142  16.140 -1.4282  0.6696  0.2365
11956TIP3    H257284   2.866   4.252  16.036 -0.8751  1.6648  1.3117
11957TIP3   OH257285   1.734   2.182  16.371  0.9479 -0.4571 -0.1373
11957TIP3    H157286   1.760   2.266  16.332  2.4532 -0.0196  1.7663
11957TIP3    H257287   1.707   2.204  16.460 -1.6254 -1.5843 -0.5891
11958TIP3   OH257288   1.156   2.781  12.432 -0.4759 -0.2122  0.3104
11958TIP3    H157289   1.215   2.783  12.356 -2.1976 -2.2558 -1.1304
11958TIP3    H257290   1.074   2.818  12.400 -1.2390 -1.1524  1.1546
11959TIP3   OH257291   4.882   6.157   0.668  0.3115  0.0709  0.4542
11959TIP3    H157292   4.825   6.168   0.744  1.0124  0.1089  0.9885
11959TIP3    H257293   4.909   6.246   0.645 -2.5621  0.3715 -1.9493
11960TIP3   OH257294   4.889   6.268   3.357  0.2463  0.0826 -0.1377
11960TIP3    H157295   4.885   6.203   3.286  1.1053  0.0725 -0.1855
11960TIP3    H257296   4.868   6.351   3.314 -1.3055 -0.2276  0.0146
11961TIP3   OH257297   4.810   4.689  14.881  0.1748  0.0282 -0.3926
11961TIP3    H157298   4.725   4.728  14.859 -0.3043 -0.6775  0.1921
11961TIP3    H257299   4.830   4.724  14.968 -0.0624 -0.7103 -0.0401
11962TIP3   OH257300   6.166   1.259   5.333  0.1955  0.3237 -0.5281
11962TIP3    H157301   6.180   1.295   5.245 -0.4194 -0.1157 -0.8071
11962TIP3    H257302   6.181   1.165   5.323 -2.1806 -0.0595 -0.6802
11963TIP3   OH257303   6.105   3.878  13.190  0.7038 -0.3362  0.1854
11963TIP3    H157304   6.065   3.914  13.111  2.0021  1.2950  0.2411
11963TIP3    H257305   6.031   3.844  13.241 -0.3319  0.3487 -0.8336
11964TIP3   OH257306   6.186   0.993   5.312 -0.0553 -0.9704  0.1425
11964TIP3    H157307   6.094   0.968   5.300 -0.4385  1.2861 -1.8615
11964TIP3    H257308   6.196   1.005   5.407 -2.3673  0.7561  0.1940
11965TIP3   OH257309   6.705   5.680  12.754 -0.3729 -0.7098  0.1600
11965TIP3    H157310   6.757   5.677  12.834 -0.9831 -3.0249  0.4923
11965TIP3    H257311   6.749   5.745  12.699  1.1204 -0.4608  1.6266
11966TIP3   OH257312   2.005   1.912   4.830 -0.1337  0.1774  0.1758
11966TIP3    H157313   1.993   1.853   4.755  0.5743 -1.6356  1.4711
11966TIP3    H257314   2.059   1.864   4.891 -1.3764  1.3143  2.2444
11967TIP3   OH257315   1.890   3.976   6.796  0.0473  0.5186  0.3184
11967TIP3    H157316   1.866   3.956   6.706 -0.4310  1.4772  0.2181
11967TIP3    H257317   1.887   3.892   6.842  1.5637 -0.1914 -0.8324
11968TIP3   OH257318   3.115   0.144   2.526  0.2995  0.0989  0.4296
11968TIP3    H157319   3.099   0.171   2.436  1.1287  0.8193  0.4928
11968TIP3    H257320   3.174   0.069   2.519  0.6587  0.3827  0.3788
11969TIP3   OH257321   1.549   5.623   2.790  0.7232 -0.1014  0.1399
11969TIP3    H157322   1.533   5.613   2.884  0.4393  2.7293  0.4137
11969TIP3    H257323   1.641   5.648   2.783 -0.0025  2.6425 -0.0918
11970TIP3   OH257324   6.014   6.466   4.587  0.0862 -0.5591  0.1981
11970TIP3    H157325   6.103   6.431   4.578 -0.0391 -0.4229 -1.7277
11970TIP3    H257326   6.014   6.545   4.533 -0.1095  1.5633  3.2130
11971TIP3   OH257327   3.352   4.228   4.882 -1.2294  0.2165 -0.3544
11971TIP3    H157328   3.301   4.206   4.960 -0.2055  0.5150  0.4112
11971TIP3    H257329   3.329   4.161   4.818 -1.1253 -0.7505  0.6219
11972TIP3   OH257330   2.532   3.075   5.509 -0.0641 -0.2074 -0.7231
11972TIP3    H157331   2.496   3.116   5.587 -0.8268 -0.2830 -1.0208
11972TIP3    H257332   2.585   3.143   5.467 -0.4053  0.1205 -0.6241
11973TIP3   OH257333   0.578   0.266   2.013 -0.0540  0.5057  0.2098
11973TIP3    H157334   0.631   0.236   2.086 -0.4032 -1.5572 -0.3702
11973TIP3    H257335   0.555   0.356   2.036  1.8648  0.7022  1.4823
11974TIP3   OH257336   5.901   1.108   5.798 -0.3043  0.5172  0.8547
11974TIP3    H157337   5.912   1.076   5.887 -2.5131  0.2830  1.0752
11974TIP3    H257338   5.838   1.180   5.805  2.1376  2.8815 -0.0738
11975TIP3   OH257339   5.164   1.768  13.728 -0.1883  0.0315  0.1351
11975TIP3    H157340   5.148   1.805  13.641  0.7591  2.7208  1.0529
11975TIP3    H257341   5.104   1.815  13.785  1.3289  0.4658  1.3991
11976TIP3   OH257342   5.097   5.526   1.950  0.4397  0.2528 -0.5012
11976TIP3    H157343   5.113   5.587   1.878  1.1817  1.3588  0.5858
11976TIP3    H257344   5.035   5.462   1.914 -1.9697  2.8235 -1.0125
11977TIP3   OH257345   4.910   6.530   5.023 -0.1659 -0.3282 -0.3553
11977TIP3    H157346   4.958   6.602   4.983 -0.1173  0.8154  1.6919
11977TIP3    H257347   4.827   6.526   4.976  0.3024  0.2997 -1.2371
11978TIP3   OH257348   5.410   0.567   1.513  0.1370  0.1849  0.5849
11978TIP3    H157349   5.362   0.627   1.570 -0.4963 -1.5030  1.9002
11978TIP3    H257350   5.473   0.524   1.571  1.1889  0.2333 -0.5150
11979TIP3   OH257351   0.929   3.918   6.318 -0.1727  0.7263 -0.2108
11979TIP3    H157352   0.885   3.965   6.389  1.1487  1.5554  0.0697
11979TIP3    H257353   1.022   3.932   6.334  0.1549  0.3587 -1.7470
11980TIP3   OH257354   3.797   2.942   0.998  0.2230 -0.2534  0.1173
11980TIP3    H157355   3.831   3.020   1.040  0.5751 -0.2923 -0.0874
11980TIP3    H257356   3.758   2.973   0.916  0.2479 -0.2767  0.0965
11981TIP3   OH257357   2.862   5.739   6.393  0.1600 -0.2162  0.1126
11981TIP3    H157358   2.813   5.817   6.419 -2.0465 -1.5028 -0.0010
11981TIP3    H257359   2.910   5.713   6.471 -0.8947 -0.0588  0.8188
11982TIP3   OH257360   4.201   0.338   0.766 -0.1090 -0.3987 -0.0785
11982TIP3    H157361   4.266   0.408   0.770  0.8730 -1.3112  0.0862
11982TIP3    H257362   4.120   0.381   0.737  1.0419  0.4085 -2.1573
11983TIP3   OH257363   3.778   5.171   0.161 -0.6100  0.0079 -0.0366
11983TIP3    H157364   3.850   5.177   0.098 -0.9068  5.9477 -0.1335
11983TIP3    H257365   3.700   5.157   0.107 -0.2052 -0.7025 -0.4456
11984TIP3   OH257366   3.292   4.597  16.842 -0.3491  0.5348 -0.5235
11984TIP3    H157367   3.199   4.602  16.820 -0.1470  0.6009 -1.3699
11984TIP3    H257368   3.326   4.525  16.790  0.5151  1.8520 -1.8462
11985TIP3   OH257369   5.016   3.174  11.397 -0.2128  0.2238 -0.3665
11985TIP3    H157370   5.099   3.160  11.351 -0.2709  1.3673 -0.8553
11985TIP3    H257371   4.949   3.162  11.329 -0.3017  1.9147 -0.5902
11986TIP3   OH257372   2.997   1.854   4.999 -0.2191  0.3442  0.1283
11986TIP3    H157373   3.083   1.863   5.041 -0.9505  0.7717  1.5936
11986TIP3    H257374   3.009   1.889   4.911  0.7506  1.7382  0.7976
11987TIP3   OH257375   4.604   5.966  13.130  0.4948 -0.4456  0.3620
11987TIP3    H157376   4.511   5.987  13.126  0.2537 -1.5755 -0.2568
11987TIP3    H257377   4.627   5.974  13.222  0.3666  2.1910  0.2166
11988TIP3   OH257378   6.312   5.779  16.796 -0.5037 -0.1194 -0.3617
11988TIP3    H157379   6.261   5.857  16.777 -0.8116  0.1541  1.4885
11988TIP3    H257380   6.349   5.794  16.883 -0.0108 -1.7342 -0.2621
11989TIP3   OH257381   1.499   2.578   5.085  0.2672 -0.0064 -0.3691
11989TIP3    H157382   1.504   2.615   4.996 -0.7348 -0.8574 -0.7934
11989TIP3    H257383   1.532   2.647   5.141 -0.7887  1.2357 -1.2349
11990TIP3   OH257384   5.567   3.592   3.244  0.1944  1.0056 -0.1223
11990TIP3    H157385   5.514   3.592   3.324 -0.0578  2.1180 -0.2903
11990TIP3    H257386   5.596   3.501   3.235  0.7414  0.9889  1.5726
11991TIP3   OH257387   5.465   3.068  16.422  0.6570 -0.3789  0.4480
11991TIP3    H157388   5.473   2.986  16.372 -0.6625 -0.2771  0.0430
11991TIP3    H257389   5.537   3.065  16.484  1.4984 -1.1731 -0.5394
11992TIP3   OH257390   2.560   6.371  15.591 -0.6353  0.4856 -0.3325
11992TIP3    H157391   2.529   6.349  15.503 -2.2847  0.9217  0.1161
11992TIP3    H257392   2.655   6.367  15.585 -0.7587 -1.8869 -1.5351
11993TIP3   OH257393   1.528   5.079  15.161  0.3836  0.0440 -0.0137
11993TIP3    H157394   1.442   5.067  15.203  0.1466 -1.4002 -0.8795
11993TIP3    H257395   1.578   5.002  15.188  1.0461  0.3365 -0.4129
11994TIP3   OH257396   4.517   5.287  11.508 -0.0085 -0.0924  0.2740
11994TIP3    H157397   4.545   5.200  11.538 -0.8006 -0.6428 -0.5944
11994TIP3    H257398   4.580   5.310  11.440 -0.9842 -0.8482 -0.8914
11995TIP3   OH257399   1.413   4.618  10.653  0.2157 -0.0053 -0.1305
11995TIP3    H157400   1.327   4.637  10.615 -0.7177 -2.0083  0.9093
11995TIP3    H257401   1.438   4.700  10.697 -1.5313  0.3349  0.2502
11996TIP3   OH257402   1.078   4.236   4.662  0.8028 -0.2811  0.0157
11996TIP3    H157403   1.081   4.158   4.606  0.4395 -0.0591 -0.3058
11996TIP3    H257404   1.149   4.221   4.725  0.9505 -0.7201 -0.2459
11997TIP3   OH257405   2.519   2.943  13.288  0.3808 -0.2697  0.5309
11997TIP3    H157406   2.495   3.026  13.246 -0.6020 -0.6272  0.3592
11997TIP3    H257407   2.479   2.948  13.375 -1.2314 -1.2939 -0.1167
11998TIP3   OH257408   4.246   4.398  15.686  0.2079  0.4539 -0.0528
11998TIP3    H157409   4.316   4.450  15.725 -1.0066  0.6035  1.9625
11998TIP3    H257410   4.172   4.458  15.681 -0.5569 -0.4641  0.2286
11999TIP3   OH257411   4.239   3.275   6.041  0.1732 -0.1978  0.1052
11999TIP3    H157412   4.226   3.187   6.076  2.0466 -1.5796 -2.4635
11999TIP3    H257413   4.334   3.288   6.045 -0.0777  1.6365  0.2732
12000TIP3   OH257414   2.703   1.823   1.650 -0.0317 -0.4264 -0.1165
12000TIP3    H157415   2.647   1.845   1.576  0.7913  0.7954 -0.4035
12000TIP3    H257416   2.650   1.840   1.727 -0.2815  0.1021 -0.4014
12001TIP3   OH257417   0.954   1.724  15.606  0.6156 -0.8343 -0.3484
12001TIP3    H157418   0.875   1.738  15.553  0.3914  1.5359  0.5683
12001TIP3    H257419   0.933   1.649  15.661 -1.7739  0.9910  1.3013
12002TIP3   OH257420   3.484   4.681   6.130  0.2306 -0.2709 -0.1102
12002TIP3    H157421   3.428   4.717   6.199  1.0108 -0.7160  0.7639
12002TIP3    H257422   3.482   4.747   6.061 -1.1026 -0.1243  0.0528
12003TIP3   OH257423   4.569   0.276   1.367 -0.5034 -0.1185 -0.4424
12003TIP3    H157424   4.661   0.304   1.364 -0.3761 -0.4819  0.0530
12003TIP3    H257425   4.556   0.229   1.284 -0.2318 -0.0885 -0.5024
12004TIP3   OH257426   4.050   3.128   0.405  0.2714  0.6180 -0.2530
12004TIP3    H157427   4.062   3.215   0.441 -2.7650  1.1285 -0.3315
12004TIP3    H257428   3.974   3.136   0.347 -1.4895 -2.5112  1.4606
12005TIP3   OH257429   4.572   6.691   2.239 -0.2653 -0.3176  0.7265
12005TIP3    H157430   4.659   6.722   2.213 -1.2909  2.2457  0.1077
12005TIP3    H257431   4.568   6.601   2.209  1.3349  0.2690 -1.3695
12006TIP3   OH257432   3.851   1.415  16.655  0.5184  0.2035 -0.1435
12006TIP3    H157433   3.781   1.399  16.718  1.0006  1.5493  0.7520
12006TIP3    H257434   3.931   1.417  16.707  1.0545  0.2328 -0.9490
12007TIP3   OH257435   3.779   0.240  12.031 -0.1558 -0.4535  0.2234
12007TIP3    H157436   3.844   0.175  12.058 -0.3062 -0.0471  1.6165
12007TIP3    H257437   3.695   0.193  12.037 -0.3094 -0.0253  1.6569
12008TIP3   OH257438   5.840   1.360  12.289 -0.1702 -0.0733  0.5116
12008TIP3    H157439   5.774   1.363  12.358 -0.3822 -0.9620  0.3543
12008TIP3    H257440   5.819   1.281  12.239 -0.4283  0.9225 -0.9798
12009TIP3   OH257441   1.742   2.488  15.179  0.1311  0.1618  0.1355
12009TIP3    H157442   1.793   2.481  15.260  0.8893 -0.5172 -0.3929
12009TIP3    H257443   1.710   2.578  15.179  0.9282  0.4531  0.7148
12010TIP3   OH257444   4.983   6.597   3.239  0.0791  0.4376 -0.6631
12010TIP3    H157445   4.981   6.671   3.179  0.1609  0.8772 -0.1353
12010TIP3    H257446   5.022   6.632   3.319 -1.3611  0.2247  0.1431
12011TIP3   OH257447   2.960   1.027   4.597 -0.3283 -0.1413  0.2650
12011TIP3    H157448   2.966   1.071   4.682  0.8097 -1.0109  0.6433
12011TIP3    H257449   3.016   1.079   4.539 -1.3170  0.6085 -0.0319
12012TIP3   OH257450   4.857   6.516  13.692 -0.3003 -0.5580 -0.2622
12012TIP3    H157451   4.915   6.522  13.768 -0.9740  0.3458  0.1757
12012TIP3    H257452   4.807   6.597  13.693  0.9075  0.2648 -2.6710
12013TIP3   OH257453   5.058   0.141   5.813 -0.2515  1.2494  0.6156
12013TIP3    H157454   5.037   0.095   5.894  0.0754  1.3477  0.7568
12013TIP3    H257455   4.981   0.128   5.758  0.5558 -1.0107 -0.0398
12014TIP3   OH257456   4.106   5.909  12.700 -0.9864 -0.6064 -0.0270
12014TIP3    H157457   4.083   5.824  12.662 -0.6223 -1.4639  1.6457
12014TIP3    H257458   4.128   5.963  12.624 -2.2487 -1.6665 -1.1988
12015TIP3   OH257459   6.117   0.552   0.324 -0.4972 -0.7512  1.0557
12015TIP3    H157460   6.074   0.472   0.296 -0.4214 -0.6735  0.7171
12015TIP3    H257461   6.153   0.590   0.244 -0.1306 -0.6179  1.2797
12016TIP3   OH257462   5.873   4.086  11.945 -0.1943  0.1700 -0.0773
12016TIP3    H157463   5.854   4.133  12.026 -1.3303 -0.5039  0.0529
12016TIP3    H257464   5.902   4.154  11.884  2.6388  0.4408  1.4745
12017TIP3   OH257465   3.063   2.583  12.608 -0.1790 -0.6872  0.0149
12017TIP3    H157466   3.054   2.650  12.675  3.5141 -0.4976  0.3797
12017TIP3    H257467   3.105   2.628  12.535 -0.7559 -1.8184 -1.0322
12018TIP3   OH257468   4.460   2.124   0.452 -0.0081  0.3497 -0.3448
12018TIP3    H157469   4.523   2.072   0.402  2.2174  1.9030  0.7657
12018TIP3    H257470   4.508   2.151   0.531 -1.6289  2.6739 -0.0994
12019TIP3   OH257471   3.976   0.969  14.333 -0.0185 -0.3886 -0.5285
12019TIP3    H157472   4.058   0.977  14.382  0.1659 -1.4205 -0.6743
12019TIP3    H257473   3.996   1.009  14.248  0.8938 -2.2392 -1.2186
12020TIP3   OH257474   4.999   0.727  11.912  0.3150 -0.2342 -0.4425
12020TIP3    H157475   4.961   0.805  11.873  0.7176  0.8267  1.2167
12020TIP3    H257476   5.022   0.671  11.838  0.5368  1.4662 -1.6837
12021TIP3   OH257477   2.062   6.372   0.425  0.2558 -0.0061 -0.6104
12021TIP3    H157478   2.069   6.340   0.335 -2.2158 -0.2527 -0.7327
12021TIP3    H257479   2.061   6.293   0.479  0.2488  0.0900 -0.4702
12022TIP3   OH257480   6.734   1.934  17.132 -0.2336 -0.8084  0.3870
12022TIP3    H157481   6.714   2.027  17.129  0.6797 -0.5195  2.6847
12022TIP3    H257482   6.651   1.891  17.154 -0.6570 -0.5546 -0.6971
12023TIP3   OH257483   6.029   4.826  16.925 -0.1328 -0.2844 -0.3465
12023TIP3    H157484   6.088   4.855  16.856 -0.1825 -0.9944 -0.6869
12023TIP3    H257485   6.071   4.749  16.963  0.2357  0.5079  0.8894
12024TIP3   OH257486   5.799   6.482  11.539 -0.1762  0.3109 -0.6335
12024TIP3    H157487   5.727   6.447  11.592 -0.7049  2.2336 -0.0311
12024TIP3    H257488   5.878   6.459  11.587 -0.2836 -2.7309 -1.8195
12025TIP3   OH257489   4.533   1.814   2.917  0.0921 -0.3442 -0.1179
12025TIP3    H157490   4.574   1.896   2.890  1.8953 -1.6947 -1.6656
12025TIP3    H257491   4.452   1.811   2.867 -0.1797  0.6867  0.2511
12026TIP3   OH257492   5.545   3.392  12.706  0.0694  0.6049 -0.0037
12026TIP3    H157493   5.506   3.376  12.621 -0.4459  1.5561  0.0445
12026TIP3    H257494   5.628   3.345  12.704 -0.2512  0.0759 -0.7803
12027TIP3   OH257495   4.912   2.197   3.545 -0.3524  0.0968  0.2410
12027TIP3    H157496   4.874   2.285   3.542  1.6806  0.9384 -1.8817
12027TIP3    H257497   4.994   2.208   3.593  0.4772 -0.4244 -1.0522
12028TIP3   OH257498   5.611   0.620  16.151 -0.0207  0.1127  0.0076
12028TIP3    H157499   5.701   0.637  16.122 -0.0750 -2.0213 -1.4885
12028TIP3    H257500   5.619   0.549  16.215 -0.7363 -0.8909 -0.9982
12029TIP3   OH257501   3.479   4.455  16.336  0.0398 -0.0506  0.1360
12029TIP3    H157502   3.486   4.514  16.411 -0.8297  3.2479 -2.3174
12029TIP3    H257503   3.569   4.423  16.323  0.2240 -0.5951  2.4577
12030TIP3   OH257504   5.834   5.249   2.726  0.2139  0.4501 -0.6798
12030TIP3    H157505   5.763   5.301   2.764 -0.0078  0.4391 -1.0730
12030TIP3    H257506   5.907   5.259   2.787  0.8135  2.8626 -1.7338
12031TIP3   OH257507   3.658   0.134   3.536 -0.1856 -0.3671  0.2995
12031TIP3    H157508   3.715   0.088   3.475 -1.0740  1.6100 -2.0692
12031TIP3    H257509   3.569   0.114   3.506 -0.6518  0.0913  1.3624
12032TIP3   OH257510   1.012   4.882  13.103  0.5779 -0.4738  0.0934
12032TIP3    H157511   0.948   4.811  13.105  0.0224  0.0336  0.6228
12032TIP3    H257512   0.966   4.957  13.140  1.3487  0.0036  0.1043
12033TIP3   OH257513   4.037   6.205  14.381  0.0569 -0.3351 -0.4523
12033TIP3    H157514   4.008   6.271  14.318 -0.3235  0.5795  0.6524
12033TIP3    H257515   3.957   6.180  14.428  0.7960  1.2511  1.7367
12034TIP3   OH257516   1.554   0.471  13.055  0.9074 -0.1271  0.7439
12034TIP3    H157517   1.608   0.445  12.979 -0.2547 -0.4764  0.0228
12034TIP3    H257518   1.580   0.410  13.124  1.7568 -0.0117  0.5368
12035TIP3   OH257519   5.519   1.984  13.548  0.0896  0.2922 -0.2342
12035TIP3    H157520   5.568   1.941  13.618 -0.2672  2.3319  1.3320
12035TIP3    H257521   5.452   1.921  13.523 -0.8505  0.1386  2.4798
12036TIP3   OH257522   3.881   0.090  11.602  0.0119 -0.0100 -0.3354
12036TIP3    H157523   3.925   0.111  11.684 -0.6885 -0.3081  0.1230
12036TIP3    H257524   3.858   0.174  11.564  1.6295  0.1727 -0.9459
12037TIP3   OH257525   0.991   1.504   1.387  0.4032  0.2729  0.3243
12037TIP3    H157526   0.952   1.523   1.302 -0.6915 -2.5602  0.1601
12037TIP3    H257527   0.943   1.560   1.449 -1.7313 -0.8127 -0.3331
12038TIP3   OH257528   1.371   4.627   4.545  0.1152 -0.1611 -0.4668
12038TIP3    H157529   1.287   4.661   4.575 -0.6426 -2.9813  0.7587
12038TIP3    H257530   1.360   4.618   4.450 -1.1507 -0.9265 -0.2636
12039TIP3   OH257531   2.057   5.010   5.645  0.1041 -0.6059 -0.2789
12039TIP3    H157532   1.992   4.953   5.686  0.0264 -0.4870 -0.2369
12039TIP3    H257533   2.124   4.950   5.612  0.1659 -0.7007  0.0188
12040TIP3   OH257534   3.708   3.559  16.896 -0.2246 -0.0963 -0.1001
12040TIP3    H157535   3.660   3.496  16.843  1.0709 -1.3932  0.2473
12040TIP3    H257536   3.800   3.544  16.874  0.0218  2.9579 -1.4272
12041TIP3   OH257537   5.847   5.749  12.236 -0.6058 -0.0057  0.0516
12041TIP3    H157538   5.808   5.693  12.303  0.9157 -0.9143  0.2006
12041TIP3    H257539   5.794   5.829  12.237 -0.8637 -0.1858  2.0277
12042TIP3   OH257540   3.147   6.597  11.834  0.2559  0.0921 -0.1252
12042TIP3    H157541   3.242   6.596  11.848  0.3776  1.0727 -0.7935
12042TIP3    H257542   3.111   6.621  11.920  0.5090 -1.7090  0.5074
12043TIP3   OH257543   0.627   3.032   5.915 -0.3202 -0.2438 -0.4301
12043TIP3    H157544   0.572   3.108   5.933 -0.0601 -0.7262  2.5841
12043TIP3    H257545   0.707   3.068   5.878 -1.7624  0.6173 -2.8508
12044TIP3   OH257546   3.401   2.621  10.706  0.0963 -0.0927  0.1293
12044TIP3    H157547   3.455   2.543  10.717  0.0127 -0.0010  1.2971
12044TIP3    H257548   3.451   2.677  10.646 -0.0548 -1.2204 -1.0808
12045TIP3   OH257549   6.197   5.435  15.238  0.8146  0.5473  0.4630
12045TIP3    H157550   6.203   5.342  15.261 -0.7893  0.3329  0.0510
12045TIP3    H257551   6.211   5.481  15.321 -1.1750 -0.1447  1.2120
12046TIP3   OH257552   2.618   0.342   3.024  0.1651 -0.2400  0.0071
12046TIP3    H157553   2.630   0.252   2.993  1.1875 -0.3343  0.6628
12046TIP3    H257554   2.651   0.396   2.952 -1.1769 -0.3514 -0.7197
12047TIP3   OH257555   3.039   0.824   1.258  0.6477  0.5870  0.3350
12047TIP3    H157556   3.118   0.805   1.208 -2.0103  0.4926 -4.1700
12047TIP3    H257557   3.017   0.741   1.300  2.4418  0.3915  0.9091
12048TIP3   OH257558   3.466   5.988  17.162  0.1235 -0.3636 -0.1249
12048TIP3    H157559   3.540   6.020  17.214 -0.3095  0.7627 -0.1780
12048TIP3    H257560   3.390   6.034  17.198 -0.4992 -1.2067 -0.3345
12049TIP3   OH257561   0.166   4.335   4.756  0.8573 -0.0521  0.1662
12049TIP3    H157562   0.224   4.324   4.680  0.2210 -2.2624 -0.0517
12049TIP3    H257563   0.113   4.411   4.735  1.0823 -0.2909 -1.3673
12050TIP3   OH257564   5.484   5.232  16.023  0.1691 -0.0253 -0.0910
12050TIP3    H157565   5.570   5.266  16.049  0.0416  0.3743 -0.2000
12050TIP3    H257566   5.443   5.304  15.976 -0.6230  0.1233  0.8147
12051TIP3   OH257567   5.840   0.606  13.786 -0.1102 -0.1379 -0.3731
12051TIP3    H157568   5.753   0.608  13.748 -0.5706  0.7305  0.7150
12051TIP3    H257569   5.885   0.681  13.748  0.1889 -0.5900 -0.9411
12052TIP3   OH257570   4.003   4.220  12.801 -0.0674  0.2844  0.4676
12052TIP3    H157571   3.922   4.267  12.781 -2.2087 -3.2700  0.5178
12052TIP3    H257572   4.053   4.225  12.719 -1.5637  0.0832 -0.4824
12053TIP3   OH257573   3.728   5.587   5.918  0.4693 -0.2796  0.8134
12053TIP3    H157574   3.809   5.638   5.924  0.6255 -0.4734  0.3536
12053TIP3    H257575   3.752   5.508   5.871  0.0100 -0.3346  0.6639
12054TIP3   OH257576   4.931   2.697  16.231  0.0407 -0.2629  0.8003
12054TIP3    H157577   4.973   2.623  16.188 -0.2704 -0.1944  0.3768
12054TIP3    H257578   4.849   2.709  16.183  0.2884  0.6268  0.6023
12055TIP3   OH257579   2.873   5.773   0.819 -0.1989  0.3247 -0.2002
12055TIP3    H157580   2.924   5.748   0.897 -1.5956 -1.3181  0.2242
12055TIP3    H257581   2.916   5.727   0.747 -0.8089 -0.7382  0.0982
12056TIP3   OH257582   2.270   4.608  16.408  0.2146  0.3395  0.3027
12056TIP3    H157583   2.299   4.627  16.497 -1.1187  0.8150  0.6423
12056TIP3    H257584   2.325   4.663  16.352 -0.1202  1.3539  0.9500
12057TIP3   OH257585   5.057   1.262  14.946 -0.0751  0.3858  0.1879
12057TIP3    H157586   5.090   1.228  14.863 -0.0145 -1.2152  0.8545
12057TIP3    H257587   5.134   1.294  14.992  0.2434 -1.1524  0.7330
12058TIP3   OH257588   4.314   1.055  15.436 -0.0019 -0.0738 -0.0480
12058TIP3    H157589   4.365   1.003  15.373 -0.5391 -0.6207 -0.0318
12058TIP3    H257590   4.239   1.000  15.457 -1.9407  1.7345 -1.9775
12059TIP3   OH257591   5.255   3.311   0.806  0.3799  0.3060  0.0054
12059TIP3    H157592   5.303   3.384   0.846  0.9484 -0.2341  0.3175
12059TIP3    H257593   5.230   3.344   0.719  0.6210  0.8811  0.1499
12060TIP3   OH257594   2.294   5.550   5.152  0.2198  0.6586  0.3199
12060TIP3    H157595   2.293   5.642   5.126 -1.6925 -0.1039 -2.5112
12060TIP3    H257596   2.281   5.552   5.247 -1.0058  3.2558  0.1419
12061TIP3   OH257597   0.170   0.476  14.380  0.1001 -0.1201 -0.3634
12061TIP3    H157598   0.130   0.389  14.377  2.0724 -1.0948  0.5396
12061TIP3    H257599   0.238   0.473  14.313  0.7867  0.3932  0.3013
12062TIP3   OH257600   0.866   6.528  13.887 -0.5221 -1.0354  0.2563
12062TIP3    H157601   0.772   6.539  13.874 -0.1459 -0.6836 -2.4215
12062TIP3    H257602   0.885   6.574  13.968 -1.7205  4.0487 -2.1623
12063TIP3   OH257603   3.994   0.615  13.077 -0.7422  0.6011 -0.1360
12063TIP3    H157604   4.059   0.575  13.019  0.4165 -0.0472  1.5651
12063TIP3    H257605   3.910   0.581  13.046 -0.0838 -0.2645 -1.0036
12064TIP3   OH257606   3.620   5.036   2.712  0.0798 -0.1674 -0.8633
12064TIP3    H157607   3.555   5.067   2.775  1.0381  0.4940 -0.1817
12064TIP3    H257608   3.669   4.969   2.760 -1.7394 -2.4982 -2.2065
12065TIP3   OH257609   4.308   4.590  16.117 -0.2162  0.6021  0.2285
12065TIP3    H157610   4.334   4.654  16.183  0.1241 -0.2047  0.8715
12065TIP3    H257611   4.384   4.534  16.105 -0.4332  0.4537 -0.5115
12066TIP3   OH257612   3.408   0.791   3.313 -0.3543 -0.4378 -0.1064
12066TIP3    H157613   3.344   0.807   3.382  0.3730  1.2301  0.2026
12066TIP3    H257614   3.372   0.835   3.236  0.3971  0.4712  0.0588
12067TIP3   OH257615   3.561   6.418   1.643  0.1483 -0.3666  0.8233
12067TIP3    H157616   3.619   6.397   1.570 -2.2185  2.2484 -1.9774
12067TIP3    H257617   3.614   6.473   1.701  0.9621  0.8013 -0.9624
12068TIP3   OH257618   5.187   1.849  12.347 -0.2042 -0.2685 -0.7373
12068TIP3    H157619   5.112   1.860  12.405 -0.5398 -0.6246 -1.1000
12068TIP3    H257620   5.246   1.789  12.393 -0.8681 -1.2443 -1.1402
12069TIP3   OH257621   0.900   5.041   3.497  0.2657  0.6117  0.2006
12069TIP3    H157622   0.943   4.963   3.533  0.0705  0.4504  0.0833
12069TIP3    H257623   0.960   5.113   3.517 -0.6272  0.7922  2.3814
12070TIP3   OH257624   3.044   1.179  13.136  0.1060  0.2882 -0.4127
12070TIP3    H157625   3.004   1.259  13.169  0.7578  0.4018  0.1008
12070TIP3    H257626   2.971   1.130  13.097 -0.6284  0.2461  1.0043
12071TIP3   OH257627   6.511   4.746   5.779 -0.4278  0.1910  0.6126
12071TIP3    H157628   6.602   4.756   5.808 -0.1361  2.2456 -0.8789
12071TIP3    H257629   6.508   4.661   5.736  1.3146  0.9816 -1.1194
12072TIP3   OH257630   0.327   3.057  10.838  0.1574 -0.0138  0.1863
12072TIP3    H157631   0.282   2.974  10.848 -1.4837  0.8083 -0.2520
12072TIP3    H257632   0.346   3.084  10.928 -0.4342 -0.2542  0.3853
12073TIP3   OH257633   5.913   2.843   1.806  0.0902 -0.1810 -0.5679
12073TIP3    H157634   5.846   2.879   1.863  0.5800 -0.1990  0.0244
12073TIP3    H257635   5.903   2.889   1.723  0.4274  0.9979  0.0415
12074TIP3   OH257636   5.572   6.759   2.600 -0.1259 -0.1510  0.3878
12074TIP3    H157637   5.634   6.762   2.673  1.5041 -0.9320 -0.9231
12074TIP3    H257638   5.513   6.833   2.615  1.3147  0.7997  1.5168
12075TIP3   OH257639   2.671   6.068  13.862  0.2129  0.6277  0.1891
12075TIP3    H157640   2.720   6.019  13.796 -1.1036  0.8748 -1.0068
12075TIP3    H257641   2.723   6.147  13.877  2.2455 -0.9944  1.9882
12076TIP3   OH257642   4.244   5.313  11.463  0.3080 -0.0315  0.0097
12076TIP3    H157643   4.338   5.293  11.463  0.2357 -0.4363  1.1476
12076TIP3    H257644   4.207   5.255  11.396  0.9904  0.7804 -1.0799
12077TIP3   OH257645   6.070   5.353   3.648  0.6691 -0.5129 -0.6737
12077TIP3    H157646   5.978   5.376   3.655  0.7647 -0.4610  0.4334
12077TIP3    H257647   6.069   5.266   3.607  0.0751 -1.0776  0.5320
12078TIP3   OH257648   4.648   3.695  14.643  0.1693  0.4226  0.5088
12078TIP3    H157649   4.577   3.660  14.697  1.3660 -0.1324  1.7303
12078TIP3    H257650   4.699   3.618  14.618  1.1420  0.9723  0.7860
12079TIP3   OH257651   2.229   3.973   6.311  0.8228 -0.3323  0.4173
12079TIP3    H157652   2.284   4.029   6.365  1.0707  0.3765 -0.5499
12079TIP3    H257653   2.232   3.888   6.354  3.2085 -0.4846  0.0682
12080TIP3   OH257654   2.950   5.177  13.146  0.9183  0.0195 -0.1437
12080TIP3    H157655   2.990   5.249  13.099  1.9549 -0.8496 -0.6139
12080TIP3    H257656   2.996   5.099  13.115 -0.9411 -0.9819 -0.5009
12081TIP3   OH257657   6.708   6.124   2.047 -0.6226  0.4131 -0.2317
12081TIP3    H157658   6.781   6.066   2.026  1.2374  1.9489  1.6974
12081TIP3    H257659   6.665   6.083   2.122 -0.5653  0.4654 -0.1695
12082TIP3   OH257660   6.378   1.970  15.681 -0.0533  0.0772  0.0770
12082TIP3    H157661   6.452   2.029  15.669  0.6192 -0.7782 -0.0318
12082TIP3    H257662   6.384   1.943  15.772 -1.1400  1.2078  0.4908
12083TIP3   OH257663   0.532   3.975  14.156 -0.5156 -0.5101 -0.1959
12083TIP3    H157664   0.593   3.901  14.154 -2.8465 -2.5645  1.2115
12083TIP3    H257665   0.552   4.019  14.239 -1.0892 -1.3549  0.4060
12084TIP3   OH257666   0.286   4.803  11.026  0.4406  0.3730  0.3521
12084TIP3    H157667   0.284   4.781  11.119 -0.6901 -0.8811  0.0367
12084TIP3    H257668   0.200   4.777  10.993  0.4693  1.7334 -0.8389
12085TIP3   OH257669   0.209   1.473  10.920  0.2604  0.4329 -0.1854
12085TIP3    H157670   0.217   1.525  10.840 -0.2077  1.2040  0.2737
12085TIP3    H257671   0.155   1.526  10.979  0.5817 -0.1430  0.6366
12086TIP3   OH257672   0.662   1.623  15.261 -0.4777  0.8224  0.2147
12086TIP3    H157673   0.695   1.703  15.222  0.4493 -0.2015 -1.1461
12086TIP3    H257674   0.713   1.553  15.220 -0.6317 -0.4016  2.0490
12087TIP3   OH257675   5.194   6.623   2.261  0.0414 -0.2690 -0.2262
12087TIP3    H157676   5.246   6.544   2.242 -0.5221 -1.0260  1.2897
12087TIP3    H257677   5.200   6.675   2.181  1.9700 -0.9929 -0.5820
12088TIP3   OH257678   6.760   3.118   5.834  0.2020  0.2042 -0.0860
12088TIP3    H157679   6.842   3.147   5.795  0.3388  0.9181  0.7282
12088TIP3    H257680   6.777   3.029   5.864  0.4523  0.0834 -0.5871
12089TIP3   OH257681   5.619   5.105  11.164  0.1983 -0.6133 -0.2335
12089TIP3    H157682   5.689   5.068  11.111  2.9485  2.0504  1.3713
12089TIP3    H257683   5.567   5.158  11.103  3.7589  3.0196 -0.3206
12090TIP3   OH257684   0.699   2.450   2.973  0.5863  0.4215 -0.4848
12090TIP3    H157685   0.610   2.430   3.004  1.1823  1.3046  1.8708
12090TIP3    H257686   0.751   2.374   2.999  0.8302  0.5824 -0.5060
12091TIP3   OH257687   0.516   0.045   0.942 -0.3495 -0.8833 -0.0054
12091TIP3    H157688   0.606   0.076   0.942 -0.1885 -1.3248 -1.3063
12091TIP3    H257689   0.523  -0.051   0.942 -0.8386 -0.9966  3.9223
12092TIP3   OH257690   3.334   4.501   4.204  0.1202  0.4753  0.1588
12092TIP3    H157691   3.343   4.460   4.118  0.2341 -0.7691  0.7503
12092TIP3    H257692   3.330   4.428   4.265 -5.6774  1.0429  0.7673
12093TIP3   OH257693   3.601   1.872  11.848  0.7911  0.1387 -0.2927
12093TIP3    H157694   3.591   1.800  11.785  1.7595 -0.4170  0.1706
12093TIP3    H257695   3.571   1.834  11.931  1.5295  0.1979 -0.0009
12094TIP3   OH257696   1.817   1.613   5.206  0.1900 -0.5289 -0.0765
12094TIP3    H157697   1.832   1.650   5.119 -1.4676 -0.2948 -0.2889
12094TIP3    H257698   1.869   1.667   5.264 -0.4748  0.7714 -0.6606
12095TIP3   OH257699   3.469   5.867   1.996  0.1395 -0.1754  0.1554
12095TIP3    H157700   3.387   5.819   1.983  0.3483 -0.2190 -1.1442
12095TIP3    H257701   3.454   5.951   1.953 -0.3233  1.0765  2.6812
12096TIP3   OH257702   0.966   1.917   3.933 -0.2384 -0.2184  0.4060
12096TIP3    H157703   0.961   1.864   4.012  1.2243 -0.2989  0.4536
12096TIP3    H257704   0.899   1.984   3.945 -0.0194 -0.2232  1.7075
12097TIP3   OH257705   3.651   1.778   1.481  0.0821  0.5252 -0.2926
12097TIP3    H157706   3.731   1.727   1.467 -1.0803 -1.1295 -0.9981
12097TIP3    H257707   3.666   1.824   1.563  0.7088 -1.8214  0.9438
12098TIP3   OH257708   5.654   6.040  16.048 -0.1598 -0.4584  0.3301
12098TIP3    H157709   5.596   5.965  16.042 -0.1291 -0.3988 -0.7939
12098TIP3    H257710   5.596   6.116  16.041  0.0582 -0.3987 -0.8967
12099TIP3   OH257711   4.031   5.578   5.968  0.4126  0.4028  0.6196
12099TIP3    H157712   4.108   5.592   5.913  0.3037  0.1120  0.3896
12099TIP3    H257713   4.064   5.584   6.057  0.9487 -0.9692  0.5304
12100TIP3   OH257714   4.537   2.878  14.245 -0.7575  0.1631 -0.7715
12100TIP3    H157715   4.513   2.964  14.280  0.7237  0.3650 -0.2382
12100TIP3    H257716   4.532   2.889  14.150  1.4964  1.4621 -0.7689
12101TIP3   OH257717   5.529   6.487   2.844  0.3844 -0.1636 -0.2895
12101TIP3    H157718   5.550   6.574   2.810  3.3111 -0.1968  1.2930
12101TIP3    H257719   5.612   6.453   2.877 -0.9262 -3.1213  0.1598
12102TIP3   OH257720   5.648   2.758   0.420 -0.6070  0.0974  0.4605
12102TIP3    H157721   5.593   2.680   0.422 -0.4083 -0.1258 -1.7690
12102TIP3    H257722   5.594   2.825   0.379 -0.2161  0.6974  0.9095
12103TIP3   OH257723   0.995   4.898  12.708 -0.0433  0.2347  0.5929
12103TIP3    H157724   0.939   4.949  12.650  2.0042  2.2443  0.2616
12103TIP3    H257725   0.999   4.950  12.788  1.0131 -0.0730  0.7476
12104TIP3   OH257726   6.648   1.040   4.509  0.2029  0.4462 -0.0977
12104TIP3    H157727   6.620   0.949   4.495 -0.6866  0.7144 -0.0780
12104TIP3    H257728   6.732   1.032   4.554  1.6419 -0.3988 -2.8173
12105TIP3   OH257729   3.056   0.563   5.960  0.2071  0.1130  0.2129
12105TIP3    H157730   3.125   0.500   5.942 -1.0227 -0.9918 -0.7292
12105TIP3    H257731   2.994   0.516   6.016  0.7510  1.4470  1.9731
12106TIP3   OH257732   6.060   3.021   3.748 -0.0079  0.2230  0.1110
12106TIP3    H157733   6.059   3.010   3.653  1.8162  0.4000  0.0510
12106TIP3    H257734   6.022   3.108   3.763  1.9789  1.2537 -0.6463
12107TIP3   OH257735   4.745   0.925   1.467  0.0861  0.0357  0.0245
12107TIP3    H157736   4.773   0.856   1.407 -0.1418 -0.0478  0.0155
12107TIP3    H257737   4.663   0.893   1.504 -0.6254  0.8119 -0.8461
12108TIP3   OH257738   3.814   3.195  13.199  0.1792 -0.5608 -0.0396
12108TIP3    H157739   3.887   3.254  13.180  0.0440 -0.5460 -0.5095
12108TIP3    H257740   3.770   3.184  13.115 -0.2322 -0.7433  0.2014
12109TIP3   OH257741   4.484   1.873  15.430 -0.4219  0.5192  0.3929
12109TIP3    H157742   4.472   1.786  15.392 -1.0856  1.0178 -0.5817
12109TIP3    H257743   4.461   1.933  15.359 -0.9513  1.4865  1.3680
12110TIP3   OH257744   4.046   1.565  14.115  0.1824 -0.7882 -0.0485
12110TIP3    H157745   4.071   1.494  14.174 -2.8329 -1.1336  0.8595
12110TIP3    H257746   4.079   1.644  14.158  0.7747 -1.3363  0.5150
12111TIP3   OH257747   5.116   2.274  11.854 -0.1725 -0.4994 -0.0349
12111TIP3    H157748   5.077   2.198  11.898 -0.9229 -0.2070 -0.1993
12111TIP3    H257749   5.042   2.323  11.819  0.3814 -0.3547 -1.0233
12112TIP3   OH257750   5.871   6.641  15.488 -0.1043  0.0914  0.4772
12112TIP3    H157751   5.795   6.673  15.439  0.4105  1.2225  0.4145
12112TIP3    H257752   5.946   6.656  15.430  0.0541 -2.0582  0.0714
12113TIP3   OH257753   1.225   5.060   2.715 -0.5250 -0.1160  0.4292
12113TIP3    H157754   1.272   5.125   2.767 -0.8228 -0.9377  1.7342
12113TIP3    H257755   1.137   5.096   2.704  0.3490  1.3827 -1.9381
12114TIP3   OH257756   6.500   4.936  12.138 -0.4647  0.1803 -0.0945
12114TIP3    H157757   6.481   4.973  12.224  3.1033 -0.2761  0.9752
12114TIP3    H257758   6.544   5.006  12.091  1.4406 -0.9171  0.0089
12115TIP3   OH257759   3.390   5.624   4.877  0.8030 -0.0374 -0.2377
12115TIP3    H157760   3.428   5.590   4.958  0.8815  0.3016 -0.1296
12115TIP3    H257761   3.350   5.707   4.903 -5.2051 -3.0916  0.9138
12116TIP3   OH257762   2.119   1.976  11.576  0.2350 -0.4911 -0.1268
12116TIP3    H157763   2.069   2.006  11.652  0.0401 -2.4746  0.5568
12116TIP3    H257764   2.210   1.975  11.605  0.0739 -2.0648  0.3881
12117TIP3   OH257765   3.045   5.073  12.129 -0.1361 -0.4871 -0.4488
12117TIP3    H157766   2.972   5.074  12.067 -0.1646 -1.8731 -0.4601
12117TIP3    H257767   3.020   5.008  12.195  2.2883 -3.1551 -2.0133
12118TIP3   OH257768   4.379   4.925  12.877  0.3293  0.6586  0.5460
12118TIP3    H157769   4.453   4.902  12.933  0.1573 -1.1804  0.0362
12118TIP3    H257770   4.302   4.899  12.926  0.1682 -0.6749 -0.4060
12119TIP3   OH257771   1.803   1.380  12.150  0.1314 -0.5418 -0.6204
12119TIP3    H157772   1.826   1.470  12.174  0.1526 -0.7614  0.1842
12119TIP3    H257773   1.720   1.389  12.103  0.3747 -0.0505 -0.9598
12120TIP3   OH257774   6.242   2.667   3.994  0.0683 -0.0460 -0.3020
12120TIP3    H157775   6.337   2.679   3.998  0.0825 -0.4603  0.7577
12120TIP3    H257776   6.219   2.683   3.903  1.3242 -1.1898 -0.8263
12121TIP3   OH257777   0.881   0.762   3.831  0.2964  0.3733 -0.0269
12121TIP3    H157778   0.875   0.763   3.926 -3.2052  1.1137 -0.1713
12121TIP3    H257779   0.965   0.719   3.812  1.2292  0.5577  3.3516
12122TIP3   OH257780   0.358   4.554   4.348  0.1372 -0.4394 -0.1156
12122TIP3    H157781   0.376   4.502   4.271 -1.9426 -2.3482  0.6218
12122TIP3    H257782   0.409   4.513   4.418  1.7679  1.0923 -0.3621
12123TIP3   OH257783   3.574   4.751   0.483  0.4054 -0.0831  0.4521
12123TIP3    H157784   3.552   4.713   0.568 -1.9404 -1.2110 -0.6249
12123TIP3    H257785   3.502   4.812   0.465  2.2562  2.1651  0.4671
12124TIP3   OH257786   3.353   5.625   5.732 -0.0451  0.0547  0.4211
12124TIP3    H157787   3.314   5.712   5.729 -0.2297 -0.0280  0.4754
12124TIP3    H257788   3.366   5.607   5.825  1.5656  0.7317  0.3531
12125TIP3   OH257789   2.366   1.089   3.324 -0.0815 -0.0524 -0.2835
12125TIP3    H157790   2.389   1.036   3.400 -0.4977 -0.5716 -0.5154
12125TIP3    H257791   2.364   1.179   3.357 -1.4526 -0.3881  0.5997
12126TIP3   OH257792   2.960   5.981  14.571  0.2206  0.0457  0.1568
12126TIP3    H157793   2.914   5.925  14.508  0.1066 -0.4212  0.6517
12126TIP3    H257794   2.976   5.924  14.646 -0.7335  0.9260  1.0540
12127TIP3   OH257795   1.285   1.195   5.582  0.1718 -0.1476 -0.1277
12127TIP3    H157796   1.197   1.204   5.621 -0.4821 -0.3418 -1.5270
12127TIP3    H257797   1.344   1.190   5.657 -1.2648 -2.4269  0.9032
12128TIP3   OH257798   1.543   6.455  13.251  0.0386 -0.1271 -0.1650
12128TIP3    H157799   1.502   6.536  13.222  0.6935 -0.2300 -1.4335
12128TIP3    H257800   1.579   6.416  13.171  0.8947 -1.0082  0.6224
12129TIP3   OH257801   6.778   1.902  11.104  0.0605 -0.1399  0.5353
12129TIP3    H157802   6.753   1.810  11.098 -0.6721  0.0142  1.1835
12129TIP3    H257803   6.810   1.912  11.193  2.4866 -0.3324 -0.2697
12130TIP3   OH257804   5.547   2.127  10.813  0.4638  0.4566  0.0533
12130TIP3    H157805   5.489   2.050  10.811  0.9769  0.0940 -0.9925
12130TIP3    H257806   5.633   2.093  10.788  0.7727  1.3079 -0.0526
12131TIP3   OH257807   3.525   4.501   2.047  0.2852 -0.3096  0.0791
12131TIP3    H157808   3.549   4.423   1.996  2.2796 -1.2522  2.3620
12131TIP3    H257809   3.608   4.547   2.061 -0.5040  0.8907  0.9066
12132TIP3   OH257810   0.786   3.324   2.159 -0.8081  0.2051  0.1836
12132TIP3    H157811   0.773   3.330   2.254  0.7595 -1.1387  0.5032
12132TIP3    H257812   0.760   3.235   2.137 -1.0486  0.4764 -0.6425
12133TIP3   OH257813   2.233   5.810  13.038  0.0243 -0.1809 -0.3033
12133TIP3    H157814   2.194   5.876  12.982 -1.5711  0.6500  1.7234
12133TIP3    H257815   2.166   5.792  13.104  1.5961 -1.5938  0.9459
12134TIP3   OH257816   2.663   6.205  16.938  0.3715  0.3654 -0.4374
12134TIP3    H157817   2.718   6.132  16.967  0.9970  1.0593  0.1320
12134TIP3    H257818   2.672   6.205  16.843  0.3899 -0.2708 -0.4422
12135TIP3   OH257819   2.501   0.398  13.396 -0.4216  0.1375 -0.5119
12135TIP3    H157820   2.436   0.339  13.357 -0.3625 -0.8062  0.8000
12135TIP3    H257821   2.543   0.346  13.463  0.8856  1.1315 -0.5503
12136TIP3   OH257822   5.142   5.117  14.942  0.3072  0.0571  0.0145
12136TIP3    H157823   5.117   5.196  14.896  2.4450  1.2949  0.8933
12136TIP3    H257824   5.094   5.047  14.898  0.6344  1.4713 -2.6740
12137TIP3   OH257825   6.482   2.864   4.690  0.5740 -0.4528 -0.2592
12137TIP3    H157826   6.441   2.799   4.634 -1.6433  0.4574  0.2769
12137TIP3    H257827   6.450   2.948   4.659  1.8884  0.2775  0.2927
12138TIP3   OH257828   2.190   1.101  11.448  0.3877  0.3915 -0.0300
12138TIP3    H157829   2.185   1.065  11.360 -0.6861 -1.0108  0.5813
12138TIP3    H257830   2.282   1.092  11.474  0.1332 -1.9569  0.1176
12139TIP3   OH257831   5.983   4.672   6.011  0.4127 -0.8152 -0.8898
12139TIP3    H157832   5.897   4.641   5.983  0.2602 -0.6551 -0.6021
12139TIP3    H257833   6.018   4.601   6.065  1.8817 -2.3309 -3.7083
12140TIP3   OH257834   4.513   0.972  11.960  0.5378 -0.1541  0.4546
12140TIP3    H157835   4.597   0.946  11.924  0.3959 -0.8664  0.6234
12140TIP3    H257836   4.453   0.902  11.933 -0.2190  0.8742 -0.5611
12141TIP3   OH257837   3.712   0.808   5.944 -0.3150 -0.6116 -0.0775
12141TIP3    H157838   3.632   0.856   5.966  0.6865 -0.0481  2.4201
12141TIP3    H257839   3.738   0.767   6.025  1.7997 -1.0204 -0.9495
12142TIP3   OH257840   2.060   4.906  12.075  0.0868  0.1212 -0.2365
12142TIP3    H157841   2.045   4.882  11.984  0.9274 -0.7563 -0.1403
12142TIP3    H257842   2.042   4.826  12.125 -0.3893  0.6007  0.3763
12143TIP3   OH257843   5.449   5.758  14.437  0.0210  0.2406  0.3025
12143TIP3    H157844   5.364   5.721  14.462  0.1913  0.6513  1.5342
12143TIP3    H257845   5.471   5.714  14.355 -0.9448 -0.5553  0.4599
12144TIP3   OH257846   6.751   2.064  15.165 -0.2368 -0.1337  0.3676
12144TIP3    H157847   6.814   2.028  15.228 -1.4522  0.0862  1.7234
12144TIP3    H257848   6.750   2.158  15.184 -0.2485  0.0051 -0.3128
12145TIP3   OH257849   6.368   3.383  16.596  0.0790 -0.3686 -0.2580
12145TIP3    H157850   6.349   3.462  16.646  0.0128 -0.9307  0.6124
12145TIP3    H257851   6.375   3.413  16.505  1.9460  0.9493  0.2837
12146TIP3   OH257852   0.717   5.128  15.341  0.0537  0.7402  0.8137
12146TIP3    H157853   0.709   5.039  15.308 -1.6431  1.1756 -0.0327
12146TIP3    H257854   0.649   5.135  15.408 -1.5303  2.1337 -0.8776
12147TIP3   OH257855   6.507   0.275   4.189 -0.4025  0.1355 -0.0877
12147TIP3    H157856   6.600   0.295   4.193 -0.2803 -0.4433  0.0035
12147TIP3    H257857   6.499   0.208   4.122 -0.9022  0.9941 -0.9035
12148TIP3   OH257858   3.324   2.341  15.631  0.1150 -0.0869 -0.0090
12148TIP3    H157859   3.352   2.250  15.624 -2.3961 -0.8834 -0.1098
12148TIP3    H257860   3.317   2.357  15.725  1.1923  0.2404  0.0297
12149TIP3   OH257861   4.921   1.904  16.931 -0.1408  0.2714  0.0450
12149TIP3    H157862   4.952   1.950  16.853 -0.6952  0.6441  0.0403
12149TIP3    H257863   4.978   1.827  16.938 -1.0632 -0.6063 -1.6360
12150TIP3   OH257864   3.573   1.653   4.934 -0.3592  0.3025  0.0362
12150TIP3    H157865   3.550   1.746   4.921 -1.9213  0.1258  1.4481
12150TIP3    H257866   3.625   1.631   4.856  1.3726  2.7740  0.4170
12151TIP3   OH257867   0.730   6.602  15.095 -0.4222 -0.2452  0.4652
12151TIP3    H157868   0.650   6.654  15.088 -1.3439 -1.7563 -0.4173
12151TIP3    H257869   0.792   6.645  15.036 -1.6317 -0.9578 -1.3392
12152TIP3   OH257870   4.181   6.312   4.466 -0.4147  0.3408  0.5295
12152TIP3    H157871   4.150   6.262   4.390  0.9311 -0.5751  0.5636
12152TIP3    H257872   4.184   6.402   4.436 -0.0078 -0.0035 -0.4772
12153TIP3   OH257873   5.702   1.907   6.067  0.0637 -0.4740 -0.0346
12153TIP3    H157874   5.769   1.951   6.119 -0.0676  1.1763 -1.2398
12153TIP3    H257875   5.658   1.849   6.129  2.3219 -1.2734  0.8709
12154TIP3   OH257876   1.337   1.072   3.751  0.0900  0.0267  0.5751
12154TIP3    H157877   1.363   0.991   3.708 -0.9673  0.8667 -1.7973
12154TIP3    H257878   1.241   1.067   3.756 -0.3028  2.4639 -2.6382
12155TIP3   OH257879   6.437   2.930   0.749  0.3274 -0.5146 -0.2715
12155TIP3    H157880   6.394   2.855   0.709  0.0427 -0.5485  0.0976
12155TIP3    H257881   6.412   3.004   0.693 -1.5892 -0.2536  0.8590
12156TIP3   OH257882   3.879   4.859  10.833 -0.2585  0.5142 -0.1216
12156TIP3    H157883   3.889   4.914  10.755  0.1846 -0.3735 -0.6986
12156TIP3    H257884   3.801   4.807  10.815 -2.0754  2.6239  1.4517
12157TIP3   OH257885   5.580   2.191   2.556  0.0390 -0.2361  0.2331
12157TIP3    H157886   5.556   2.245   2.631 -1.5819 -1.3439  0.5307
12157TIP3    H257887   5.545   2.238   2.481 -1.0148 -0.6375  0.4573
12158TIP3   OH257888   0.363   1.941   5.846 -0.3813 -0.0897  0.0608
12158TIP3    H157889   0.343   2.033   5.862 -1.0500 -0.4415  1.2605
12158TIP3    H257890   0.313   1.919   5.768 -1.4304  0.1510  0.6621
12159TIP3   OH257891   5.492   2.978   6.227 -0.1216  0.3550  0.0544
12159TIP3    H157892   5.409   3.025   6.220 -0.1879  0.6114  2.2364
12159TIP3    H257893   5.470   2.895   6.268  0.6251  0.1896  0.1304
12160TIP3   OH257894   4.062   2.743  15.086  0.3171  0.2273 -0.2503
12160TIP3    H157895   4.086   2.732  14.994  0.7355  0.8766 -0.2180
12160TIP3    H257896   3.975   2.784  15.084  0.5167  0.6473 -0.3576
12161TIP3   OH257897   5.112   2.548  16.676 -0.1881  0.0386 -0.5560
12161TIP3    H157898   5.120   2.577  16.767 -0.8947  0.6852 -0.6939
12161TIP3    H257899   5.019   2.559  16.656 -0.1224 -0.5802 -1.2005
12162TIP3   OH257900   0.460   4.309  12.545 -0.0503 -0.4288  0.4140
12162TIP3    H157901   0.541   4.294  12.593 -0.2815 -1.3771  0.5133
12162TIP3    H257902   0.391   4.277  12.603 -0.2737 -2.3137 -0.8345
12163TIP3   OH257903   5.583   0.535  15.121 -0.2224  0.1928 -0.1149
12163TIP3    H157904   5.517   0.466  15.121 -0.8604  0.7985  1.1496
12163TIP3    H257905   5.560   0.591  15.047 -0.0021 -0.6442 -0.8324
12164TIP3   OH257906   5.535   1.768  14.022  1.0982  0.2435  0.4704
12164TIP3    H157907   5.611   1.738  13.972  0.0901  2.8954 -2.8293
12164TIP3    H257908   5.465   1.708  13.997  0.9894  0.5800 -0.0276
12165TIP3   OH257909   2.797   6.005  15.844  0.0358  0.1099 -0.0391
12165TIP3    H157910   2.819   5.929  15.898 -1.8507 -0.4905 -0.1021
12165TIP3    H257911   2.863   6.004  15.775  0.0486 -1.4586 -0.0319
12166TIP3   OH257912   0.244   2.890   6.646  0.6144 -0.4541 -0.1051
12166TIP3    H157913   0.278   2.833   6.577 -1.5433 -1.1550 -0.6416
12166TIP3    H257914   0.296   2.969   6.640  0.8227 -0.7256 -2.1907
12167TIP3   OH257915   5.303   1.511  10.929 -0.2426 -0.1492  0.3427
12167TIP3    H157916   5.307   1.422  10.963  2.1074 -1.0016 -2.0145
12167TIP3    H257917   5.232   1.510  10.865 -1.1958  0.0885  1.3789
12168TIP3   OH257918   2.067   2.149   2.418 -0.2811 -0.0139 -0.4456
12168TIP3    H157919   2.151   2.145   2.464 -0.5806  1.1138  0.2252
12168TIP3    H257920   2.019   2.220   2.462 -1.1802  0.0346 -1.4850
12169TIP3   OH257921   0.692   1.205  13.978 -0.4838 -0.0516 -0.0015
12169TIP3    H157922   0.663   1.169  14.061 -1.7359  0.9200  0.0009
12169TIP3    H257923   0.660   1.142  13.912 -1.4271  0.3024  0.1039
12170TIP3   OH257924   6.240   0.956  14.841  0.3340 -0.2239  0.3677
12170TIP3    H157925   6.320   0.993  14.804  1.2712  0.1346  2.6942
12170TIP3    H257926   6.178   1.028  14.841  0.3530 -0.2005 -0.4004
12171TIP3   OH257927   5.101   5.601   2.663  0.0507 -0.3370  0.0299
12171TIP3    H157928   5.116   5.563   2.749  1.6325 -0.3609 -0.2415
12171TIP3    H257929   5.186   5.596   2.619 -0.8945 -0.9649 -1.7852
12172TIP3   OH257930   4.392   5.675  11.418  0.6352  0.1847  0.2154
12172TIP3    H157931   4.312   5.652  11.466  0.2857  0.5111 -0.2072
12172TIP3    H257932   4.394   5.614  11.344 -1.2258  2.5767 -1.9177
12173TIP3   OH257933   1.917   3.437  12.821 -0.1473 -0.1325  0.4105
12173TIP3    H157934   1.841   3.406  12.771 -0.4103  1.7877 -0.4657
12173TIP3    H257935   1.960   3.499  12.761  1.3327 -0.1831  1.4095
12174TIP3   OH257936   0.798   0.386  13.605  0.0077  0.1149  0.0822
12174TIP3    H157937   0.752   0.309  13.571  0.7359 -0.5554  0.5911
12174TIP3    H257938   0.888   0.355  13.620  0.2540  1.0106  0.4751
12175TIP3   OH257939   1.458   5.308  11.289  0.1725  0.3894  0.3346
12175TIP3    H157940   1.450   5.395  11.326 -0.6525 -0.3560  1.9531
12175TIP3    H257941   1.400   5.309  11.212  0.2878  1.3036  0.2568
12176TIP3   OH257942   5.865   6.077   4.902 -0.2855 -0.3400 -0.0536
12176TIP3    H157943   5.819   6.156   4.931 -0.6112 -0.4489 -0.2623
12176TIP3    H257944   5.822   6.054   4.819  1.1784  0.4368 -1.0586
12177TIP3   OH257945   1.272   5.517  15.874 -0.2943 -0.0864  0.4931
12177TIP3    H157946   1.231   5.599  15.903 -0.2159  0.0106  0.3264
12177TIP3    H257947   1.322   5.541  15.796  1.4234  0.1519  1.6131
12178TIP3   OH257948   2.810   3.303   0.179  0.6172  0.6005  0.6020
12178TIP3    H157949   2.764   3.227   0.214  1.1985 -1.3544 -2.7088
12178TIP3    H257950   2.902   3.287   0.201  0.8988 -0.3128 -1.1342
12179TIP3   OH257951   1.993   1.492  15.621 -0.0067 -0.2528  0.5715
12179TIP3    H157952   2.006   1.543  15.701  1.1777  0.5818 -0.1261
12179TIP3    H257953   2.079   1.456  15.601 -0.0611  0.3690 -0.8671
12180TIP3   OH257954   4.246   1.187   3.674  0.4340  0.2016 -0.8890
12180TIP3    H157955   4.213   1.099   3.692  2.2611 -0.0688  1.4138
12180TIP3    H257956   4.168   1.241   3.669 -0.5839 -1.0785  0.5684
12181TIP3   OH257957   5.422   5.269  11.426 -0.3393 -0.2261  0.1936
12181TIP3    H157958   5.347   5.252  11.368 -0.6766 -0.5874  0.7321
12181TIP3    H257959   5.404   5.216  11.504  0.0693  0.3291  0.6671
12182TIP3   OH257960   2.002   5.706   0.918  0.3425 -0.4269  0.0420
12182TIP3    H157961   2.070   5.773   0.927 -0.4637  0.5672 -0.9973
12182TIP3    H257962   2.026   5.638   0.981  1.7189  0.3869  0.4191
12183TIP3   OH257963   4.788   0.310  11.002 -0.5383  0.1306 -0.2421
12183TIP3    H157964   4.724   0.380  10.986 -0.3509 -0.0952 -2.1678
12183TIP3    H257965   4.742   0.249  11.060 -1.1535  1.2228  0.4378
12184TIP3   OH257966   5.921   2.225   2.777  0.1189  0.4624 -0.2420
12184TIP3    H157967   5.894   2.297   2.833 -1.1209  0.1731 -0.4439
12184TIP3    H257968   5.841   2.173   2.764  0.7681 -0.4034 -0.8900
12185TIP3   OH257969   1.816   1.619  13.516  0.1327  0.2703  0.0461
12185TIP3    H157970   1.864   1.701  13.501  1.1533 -0.3614 -0.1753
12185TIP3    H257971   1.751   1.617  13.446  1.2312  0.0626 -0.9985
12186TIP3   OH257972   0.907   4.260   1.745 -1.2544  0.3419 -0.4858
12186TIP3    H157973   0.968   4.245   1.672 -0.5191  0.6263  0.0641
12186TIP3    H257974   0.878   4.172   1.770  0.4866  0.0537  0.5652
12187TIP3   OH257975   3.096   6.503  14.234  0.1526  0.2286 -0.1283
12187TIP3    H157976   3.121   6.437  14.168 -0.9715  0.7788 -1.1222
12187TIP3    H257977   3.120   6.464  14.317 -2.1088 -2.2069 -0.5581
12188TIP3   OH257978   3.036   1.462  16.992 -0.4987  0.3041  0.1344
12188TIP3    H157979   3.086   1.543  17.002 -0.3322  0.1314  0.7106
12188TIP3    H257980   2.948   1.485  17.023 -0.8992  0.7264 -1.2759
12189TIP3   OH257981   1.361   5.566  15.602  0.0324 -0.2141 -0.3140
12189TIP3    H157982   1.395   5.650  15.633  1.7333 -1.0311  0.0729
12189TIP3    H257983   1.317   5.587  15.520 -0.7372  1.2729  0.4566
12190TIP3   OH257984   6.088   1.506  14.110 -0.4394 -0.2039  0.1658
12190TIP3    H157985   6.012   1.564  14.103 -0.1661  0.2013  0.5461
12190TIP3    H257986   6.076   1.461  14.194  0.1733  0.4896  0.6355
12191TIP3   OH257987   4.081   0.057   4.752  0.1980 -0.2658 -0.0006
12191TIP3    H157988   4.166   0.046   4.795  0.6468  1.3441 -0.4418
12191TIP3    H257989   4.070   0.152   4.744 -0.5581 -0.4973 -2.0644
12192TIP3   OH257990   3.158   5.697  15.005  0.3302 -0.5077 -0.4734
12192TIP3    H157991   3.220   5.724  14.938  0.4905 -1.6918 -0.8107
12192TIP3    H257992   3.179   5.751  15.081  1.5983 -0.7114 -0.6742
12193TIP3   OH257993   3.580   4.818   3.964 -0.0171 -0.2824  0.1844
12193TIP3    H157994   3.662   4.769   3.970 -0.0465 -0.2571  0.7907
12193TIP3    H257995   3.529   4.789   4.039 -0.0700  0.6202  0.4969
12194TIP3   OH257996   5.504   4.987   0.601  0.0526 -0.4786 -0.2902
12194TIP3    H157997   5.463   4.948   0.524 -0.4524 -0.7137  0.0984
12194TIP3    H257998   5.540   5.070   0.569  0.2233 -0.7710 -0.8775
12195TIP3   OH257999   4.761   3.495   2.281 -0.1047 -0.8059  0.2412
12195TIP3    H158000   4.683   3.502   2.335  0.4547  0.8767  0.8539
12195TIP3    H258001   4.793   3.406   2.295 -2.2234 -1.6971 -0.4705
12196TIP3   OH258002   6.626   1.045  14.989 -0.0069  0.5643 -0.0429
12196TIP3    H158003   6.531   1.050  14.973  0.1227  1.3346 -0.6090
12196TIP3    H258004   6.638   0.963  15.036 -0.6349 -0.8192 -2.2453
12197TIP3   OH258005   1.426   3.231  12.721  0.6086 -0.4457  0.2086
12197TIP3    H158006   1.413   3.290  12.647  0.0477 -0.4367  0.3060
12197TIP3    H258007   1.343   3.183  12.728  0.6734 -0.4830  0.7951
12198TIP3   OH258008   1.614   5.594   0.544  0.1702 -0.1461 -0.7529
12198TIP3    H158009   1.593   5.683   0.573 -0.0562  0.6982 -3.3518
12198TIP3    H258010   1.564   5.583   0.463  2.4774 -1.5720 -2.0481
12199TIP3   OH258011   0.070   1.097  13.614 -0.3741 -0.3167 -0.2154
12199TIP3    H158012   0.060   1.111  13.708 -1.5308  0.4391 -0.4446
12199TIP3    H258013   0.126   1.169  13.585 -2.7718  1.4395 -0.6535
12200TIP3   OH258014   2.697   1.685   4.661  0.6371  0.1686 -0.0600
12200TIP3    H158015   2.660   1.773   4.673 -0.4072 -0.5470  2.3205
12200TIP3    H258016   2.624   1.632   4.630  0.7928 -0.2639  0.3005
12201TIP3   OH258017   0.639   5.314   0.352 -0.1007 -0.0681 -0.4774
12201TIP3    H158018   0.550   5.303   0.318 -0.4893  0.4221  0.3825
12201TIP3    H258019   0.653   5.408   0.354  0.8510 -0.1603 -1.6381
12202TIP3   OH258020   5.691   0.578   3.682 -0.1418  0.4663 -0.3339
12202TIP3    H158021   5.765   0.635   3.701 -1.3823  1.4031  1.7715
12202TIP3    H258022   5.710   0.543   3.595  2.0050  1.8942 -0.4737
12203TIP3   OH258023   2.679   5.493   1.773  0.5454 -0.0059 -0.2345
12203TIP3    H158024   2.764   5.475   1.811  1.0024 -0.7428 -1.5623
12203TIP3    H258025   2.698   5.522   1.684 -0.5586  0.3922 -0.3542
12204TIP3   OH258026   2.606   3.896  11.322 -0.2988  0.1315  0.1081
12204TIP3    H158027   2.663   3.964  11.286  0.6387  0.9142  2.9332
12204TIP3    H258028   2.640   3.881  11.411 -2.9374 -1.2064  0.9352
12205TIP3   OH258029   2.715   0.743   0.836 -0.5716 -0.5832  0.5636
12205TIP3    H158030   2.774   0.668   0.828  0.5869  0.3163  0.5307
12205TIP3    H258031   2.662   0.740   0.756  1.8089  0.5724 -1.1463
12206TIP3   OH258032   1.657   6.445   2.365 -0.6208  0.1014  0.3601
12206TIP3    H158033   1.583   6.497   2.333 -1.0137  0.5778  1.9972
12206TIP3    H258034   1.632   6.420   2.454  0.4863 -1.1210  0.3419
12207TIP3   OH258035   4.149   5.630   6.224  0.1289  0.5728  0.1813
12207TIP3    H158036   4.130   5.655   6.314  1.2142  1.6581  0.1195
12207TIP3    H258037   4.244   5.629   6.218  0.0682 -0.1361 -0.7808
12208TIP3   OH258038   3.346   4.977  12.068 -0.4513 -0.3577  0.6004
12208TIP3    H158039   3.366   5.050  12.126  1.0087  2.0782 -2.8408
12208TIP3    H258040   3.250   4.973  12.068 -0.5140  0.8270  1.6660
12209TIP3   OH258041   3.034   2.652   4.106 -0.0878  0.2975  0.2947
12209TIP3    H158042   3.061   2.562   4.125 -1.3900 -0.0230  0.6737
12209TIP3    H258043   3.063   2.702   4.181  0.0047  0.0701  0.4134
12210TIP3   OH258044   0.270   4.160  16.942  0.2494  0.0505  0.0551
12210TIP3    H158045   0.212   4.234  16.957  1.1237  1.2837 -2.3780
12210TIP3    H258046   0.358   4.195  16.955  0.6257 -0.8057 -0.1434
12211TIP3   OH258047   1.978   4.779  11.421  0.7912 -0.0124  0.8408
12211TIP3    H158048   2.003   4.705  11.476  0.3539 -0.2584  0.7125
12211TIP3    H258049   2.061   4.814  11.388  0.9538 -0.9425  0.2486
12212TIP3   OH258050   1.326   4.976  13.451 -0.1581  0.4521  0.0952
12212TIP3    H158051   1.311   4.943  13.363  0.6558  1.3090 -0.3768
12212TIP3    H258052   1.255   5.038  13.467 -1.4918 -1.2322  0.8518
12213TIP3   OH258053   6.615   5.033   3.359 -0.1477  0.2841  0.1110
12213TIP3    H158054   6.645   4.993   3.277  1.6620  0.1015  0.8281
12213TIP3    H258055   6.696   5.063   3.401 -1.2817  2.7439  0.5945
12214TIP3   OH258056   4.679   6.212  11.045 -0.0115 -0.7162  0.1302
12214TIP3    H158057   4.672   6.271  10.970  2.5908 -0.1639  0.2657
12214TIP3    H258058   4.676   6.124  11.007 -0.4890 -0.4591 -0.4229
12215TIP3   OH258059   5.384   5.046   3.309  0.3715 -0.6051 -0.0626
12215TIP3    H158060   5.414   4.963   3.270  1.1584  0.1276 -1.0468
12215TIP3    H258061   5.428   5.050   3.394  0.1954 -1.2919  0.0599
12216TIP3   OH258062   6.646   1.544  13.846  0.3254 -0.1583  0.2192
12216TIP3    H158063   6.659   1.479  13.778 -1.2190 -0.5410  0.2893
12216TIP3    H258064   6.599   1.615  13.803  3.1416  1.5372 -0.2014
12217TIP3   OH258065   5.817   2.384   2.947 -0.4802 -0.0513  0.5620
12217TIP3    H158066   5.742   2.434   2.981 -0.6961  1.0281 -1.3903
12217TIP3    H258067   5.892   2.418   2.996 -0.9607  0.5209  0.9173
12218TIP3   OH258068   5.933   6.696  13.952  0.0771  0.0748 -0.3630
12218TIP3    H158069   5.975   6.733  13.874  0.2255  1.7844  0.5163
12218TIP3    H258070   5.840   6.716  13.940  0.3930  2.7981  1.1513
12219TIP3   OH258071   2.864   2.294   5.989  0.0792  0.2732  0.5771
12219TIP3    H158072   2.861   2.324   6.080  0.1619  0.8282  0.3982
12219TIP3    H258073   2.845   2.200   5.994 -1.1571  0.5400  1.0412
12220TIP3   OH258074   3.851   0.548  16.509  0.2012 -0.6782  0.0916
12220TIP3    H158075   3.895   0.470  16.475  0.2287 -0.7527  0.3023
12220TIP3    H258076   3.758   0.528  16.499  0.2055 -0.8218  0.3389
12221TIP3   OH258077   6.624   4.338   0.372  0.2144  0.2327 -0.6285
12221TIP3    H158078   6.588   4.265   0.423 -0.2936  0.8046 -0.1657
12221TIP3    H258079   6.620   4.308   0.281  1.3579 -0.8971 -0.3251
12222TIP3   OH258080   6.587   6.388  12.089 -0.0718 -0.8742  0.0369
12222TIP3    H158081   6.573   6.307  12.039 -3.1341 -0.0474 -0.5542
12222TIP3    H258082   6.523   6.384  12.160  0.9478  0.2368  1.0405
12223TIP3   OH258083   2.178   0.310  15.222  0.6660 -0.8314 -0.3697
12223TIP3    H158084   2.258   0.362  15.213  1.8631 -2.4835  0.5057
12223TIP3    H258085   2.149   0.296  15.132  1.4900 -0.4220 -0.7073
12224TIP3   OH258086   5.612   1.799  14.878  0.5763 -0.0349  0.4366
12224TIP3    H158087   5.696   1.820  14.918  1.0734 -0.0905 -0.5601
12224TIP3    H258088   5.573   1.884  14.859 -0.9311  0.0613  3.5671
12225TIP3   OH258089   4.926   1.276  13.741  0.4198  0.3328 -0.0786
12225TIP3    H158090   5.017   1.249  13.757  0.5774  1.0733  0.2695
12225TIP3    H258091   4.881   1.261  13.824  0.6229  1.6213  0.2693
12226TIP3   OH258092   6.081   3.919  11.958 -0.5019  0.8128 -0.2160
12226TIP3    H158093   6.135   3.987  11.920 -0.1418 -0.5044 -2.1353
12226TIP3    H258094   5.992   3.956  11.958 -0.1761  1.5938 -0.4797
12227TIP3   OH258095   5.810   4.398  11.091  0.0165 -0.6213  0.5263
12227TIP3    H158096   5.855   4.478  11.067 -2.7235  0.3125 -1.8089
12227TIP3    H258097   5.817   4.393  11.186  1.5228  1.5694  0.5443
12228TIP3   OH258098   2.330   6.557   4.011  0.1499 -0.5215 -0.6017
12228TIP3    H158099   2.375   6.604   3.942  0.3620 -1.5867 -1.2063
12228TIP3    H258100   2.267   6.620   4.046  1.0901  0.5029 -0.7348
12229TIP3   OH258101   0.778   5.122   0.980 -0.6274 -0.5076  0.2721
12229TIP3    H158102   0.784   5.195   0.919 -1.4538 -1.9242 -1.5344
12229TIP3    H258103   0.854   5.133   1.038 -0.4076  1.4127 -0.3567
12230TIP3   OH258104   6.456   2.211  16.429 -0.2756  0.2223 -0.2421
12230TIP3    H158105   6.544   2.184  16.405 -0.6594 -1.9344  0.5773
12230TIP3    H258106   6.401   2.185  16.355 -0.3162  0.9585 -0.4739
12231TIP3   OH258107   2.905   4.250   4.851  0.4945  0.5360 -0.1136
12231TIP3    H158108   2.924   4.181   4.915 -0.0305 -0.3411 -0.8778
12231TIP3    H258109   2.876   4.325   4.903 -0.7646 -0.4481  0.6325
12232TIP3   OH258110   3.497   4.169   2.841  0.1502 -0.6053 -0.0315
12232TIP3    H158111   3.464   4.254   2.870  0.7769  0.0433 -1.1717
12232TIP3    H258112   3.580   4.158   2.887  0.3681 -0.3124 -0.3533
12233TIP3   OH258113   1.093   5.915   0.274  0.1290  0.0564 -0.1855
12233TIP3    H158114   1.082   6.003   0.310 -2.3022 -0.5296  0.5958
12233TIP3    H258115   1.061   5.923   0.184 -0.3075 -0.0743 -0.0431
12234TIP3   OH258116   0.746   1.374   4.478 -0.4016  0.3309  0.4010
12234TIP3    H158117   0.654   1.349   4.490 -1.3274  2.6582 -1.3882
12234TIP3    H258118   0.749   1.466   4.503  0.8926  0.9558 -1.9063
12235TIP3   OH258119   3.000   5.612   0.652 -0.6115  0.1463 -0.0566
12235TIP3    H158120   2.955   5.542   0.699  0.9498 -0.4023  0.6266
12235TIP3    H258121   3.083   5.574   0.625 -1.3376  0.5512 -3.0302
12236TIP3   OH258122   2.224   1.618  14.496 -0.5732  0.8773 -0.4462
12236TIP3    H158123   2.150   1.623  14.436 -1.8690  0.1708  1.0559
12236TIP3    H258124   2.261   1.531  14.481 -0.8265  0.7444 -0.3043
12237TIP3   OH258125   1.665   2.054   6.560 -0.0038  0.5831  0.0813
12237TIP3    H158126   1.576   2.083   6.580 -0.9952 -1.0322 -1.7909
12237TIP3    H258127   1.675   1.971   6.608 -0.4111 -0.4746 -1.6161
12238TIP3   OH258128   0.768   3.115   3.233 -0.0380 -0.5432  0.2827
12238TIP3    H158129   0.783   3.160   3.316  1.0166 -0.2130 -0.0849
12238TIP3    H258130   0.792   3.178   3.166 -1.2776 -0.6633 -0.2948
12239TIP3   OH258131   3.618   2.256   0.538 -0.1707 -0.0239 -0.9242
12239TIP3    H158132   3.525   2.258   0.561 -0.1832 -1.6627 -0.7943
12239TIP3    H258133   3.664   2.271   0.620 -0.2872 -2.0884 -0.4542
12240TIP3   OH258134   2.958   3.953   2.193 -0.0271 -0.3620  0.2307
12240TIP3    H158135   2.941   3.934   2.101  0.9796 -1.8035  0.3288
12240TIP3    H258136   2.943   3.870   2.238 -1.1057  0.4687  1.4750
12241TIP3   OH258137   0.504   4.484  16.014 -0.4384 -0.3336  0.1782
12241TIP3    H158138   0.574   4.537  16.053  1.5800 -2.0751 -0.9843
12241TIP3    H258139   0.456   4.546  15.959  0.6662  0.7270  0.3733
12242TIP3   OH258140   5.158   5.382  12.761 -0.3697 -0.3739 -0.3223
12242TIP3    H158141   5.136   5.466  12.722  1.3205  1.0038  1.5477
12242TIP3    H258142   5.079   5.356  12.808 -0.1625  1.4089  1.1010
12243TIP3   OH258143   5.009   3.307   0.914  0.1716 -0.3442 -0.5977
12243TIP3    H158144   4.983   3.367   0.844  0.3922  0.2709 -0.1664
12243TIP3    H258145   5.104   3.306   0.911  0.3174  1.6712  1.2702
12244TIP3   OH258146   1.158   5.409  16.680 -0.5960  0.7624  0.1355
12244TIP3    H158147   1.092   5.345  16.703 -0.1916  0.3548  0.1737
12244TIP3    H258148   1.237   5.357  16.663 -0.0880  1.3055  0.8451
12245TIP3   OH258149   4.265   2.489  13.494 -1.2992 -0.7356  0.3101
12245TIP3    H158150   4.233   2.552  13.430 -1.4060  1.6482  2.6291
12245TIP3    H258151   4.343   2.451  13.453 -2.3869 -0.5942 -1.9616
12246TIP3   OH258152   1.935   2.367  15.728 -0.0499 -0.0497  0.5602
12246TIP3    H158153   1.896   2.280  15.717 -0.9392  0.3528  0.4171
12246TIP3    H258154   1.869   2.416  15.777  0.3333  0.6238  0.4063
12247TIP3   OH258155   1.482   0.565  10.523  0.2447  0.1163  0.0912
12247TIP3    H158156   1.497   0.569  10.428 -0.0872 -0.9307 -0.0196
12247TIP3    H258157   1.392   0.597  10.534  0.9719  2.1566  0.2793
12248TIP3   OH258158   5.855   3.773  15.845 -0.0512 -0.2400  0.1820
12248TIP3    H158159   5.923   3.707  15.826  0.1807 -0.4203  1.6194
12248TIP3    H258160   5.785   3.753  15.782  0.4849 -1.1550 -0.1410
12249TIP3   OH258161   1.490   6.549   0.596 -0.5194  0.0868 -0.2417
12249TIP3    H158162   1.449   6.564   0.511  1.3680  1.1216 -1.0095
12249TIP3    H258163   1.539   6.630   0.613  0.0539 -0.5693  1.2678
12250TIP3   OH258164   6.430   0.512  13.081  0.1176  0.2454  0.2512
12250TIP3    H158165   6.494   0.577  13.109  1.0040 -0.1287 -0.9144
12250TIP3    H258166   6.345   0.555  13.094  0.6571  1.2669  0.4122
12251TIP3   OH258167   4.676   4.264   0.665  0.2923  0.4744  0.4212
12251TIP3    H158168   4.661   4.202   0.736 -1.0928 -2.1446 -2.0248
12251TIP3    H258169   4.768   4.290   0.674  0.0650  0.4125  3.2712
12252TIP3   OH258170   0.489   4.877   3.604 -0.5798 -0.7785  0.4812
12252TIP3    H158171   0.575   4.841   3.584 -0.7075 -1.0028  0.3264
12252TIP3    H258172   0.502   4.931   3.681 -0.3911 -1.1760  0.7266
12253TIP3   OH258173   2.214   1.933  12.385 -0.0409 -0.5173 -0.1445
12253TIP3    H158174   2.202   1.905  12.294  0.1348 -2.3205  0.3574
12253TIP3    H258175   2.210   2.028  12.382 -0.3120 -0.5698 -2.0043
12254TIP3   OH258176   1.075   2.162   5.755  0.4009  0.1284  0.0201
12254TIP3    H158177   1.160   2.169   5.711  1.1975  1.6315  1.7514
12254TIP3    H258178   1.055   2.251   5.784 -1.7157 -0.2253 -0.2364
12255TIP3   OH258179   2.710   5.808  16.990  0.0688 -0.2942  0.1260
12255TIP3    H158180   2.741   5.721  17.015  0.1606  0.1533  1.6011
12255TIP3    H258181   2.621   5.813  17.024  0.3366  0.4781  0.7244
12256TIP3   OH258182   4.729   3.146  16.462  0.1736  0.7266 -0.1290
12256TIP3    H158183   4.719   3.219  16.522  1.0688  0.4189  0.3966
12256TIP3    H258184   4.788   3.178  16.394 -0.6366  0.9892 -0.7231
12257TIP3   OH258185   6.651   6.321  16.247  0.6310  0.5472 -0.2713
12257TIP3    H158186   6.656   6.367  16.331  2.1540 -1.6630  0.9024
12257TIP3    H258187   6.732   6.346  16.201  0.6287  0.3971 -0.3576
12258TIP3   OH258188   4.511   6.384   5.935  0.0902 -0.0720  0.1982
12258TIP3    H158189   4.508   6.462   5.879 -1.5356 -1.1188 -1.2493
12258TIP3    H258190   4.604   6.364   5.945  0.4204 -0.5969 -3.2613
12259TIP3   OH258191   2.109   2.411  14.008 -0.5765  0.2319 -0.1256
12259TIP3    H158192   2.069   2.445  13.928 -1.0261  0.4242  0.1794
12259TIP3    H258193   2.163   2.338  13.978 -4.5467 -2.9254 -0.0878
12260TIP3   OH258194   1.665   3.094   5.167 -0.1406 -0.0606 -0.3373
12260TIP3    H158195   1.741   3.151   5.171 -0.0743 -0.0544 -1.5772
12260TIP3    H258196   1.676   3.033   5.241  0.0409  1.1878  0.6730
12261TIP3   OH258197   5.959   0.177   2.020  0.1407  0.0065  0.5409
12261TIP3    H158198   6.012   0.197   1.943  1.4918 -1.1835  1.1392
12261TIP3    H258199   5.964   0.256   2.074 -0.3075  0.6173 -0.3031
12262TIP3   OH258200   0.101   6.121  16.078 -0.8978  0.0406  0.4176
12262TIP3    H158201   0.149   6.134  16.160 -1.4057  2.1068  0.4133
12262TIP3    H258202   0.085   6.210  16.046 -3.3025 -0.6705 -0.4010
12263TIP3   OH258203   4.924   4.743  15.548  0.5512  0.9642  0.7655
12263TIP3    H158204   4.971   4.663  15.573  0.2517  0.9908  1.4157
12263TIP3    H258205   4.968   4.772  15.468  1.2718  0.6676  1.0478
12264TIP3   OH258206   0.152   4.041   2.333  0.8961 -0.5542 -0.2692
12264TIP3    H158207   0.156   4.006   2.422  1.1478 -0.6563 -0.3208
12264TIP3    H258208   0.058   4.046   2.313  0.8549 -1.0842 -0.2157
12265TIP3   OH258209   4.868   4.004  13.227  0.0297  0.5069 -0.1555
12265TIP3    H158210   4.883   4.018  13.133  0.6090 -0.4819 -0.2196
12265TIP3    H258211   4.860   3.909  13.235 -2.0892  0.7074  0.4944
12266TIP3   OH258212   0.156   1.050   2.211  0.1508  1.1363 -0.3138
12266TIP3    H158213   0.079   1.097   2.178  0.4143  2.0604  0.3690
12266TIP3    H258214   0.210   1.118   2.252  1.1915  0.4492 -0.5262
12267TIP3   OH258215   0.899   3.877   1.031 -0.1387 -0.6056  0.2431
12267TIP3    H158216   0.845   3.893   0.954  1.2379 -1.4721 -0.9406
12267TIP3    H258217   0.869   3.792   1.064 -0.5614 -0.3523  0.5029
12268TIP3   OH258218   1.682   4.223  16.411  0.1709 -0.0515  0.3759
12268TIP3    H158219   1.606   4.168  16.430 -0.4577  1.6043  3.0067
12268TIP3    H258220   1.648   4.293  16.355  0.4966 -1.1285 -1.1793
12269TIP3   OH258221   1.224   5.273  10.579 -0.1582 -0.1813 -0.0236
12269TIP3    H158222   1.265   5.204  10.528 -2.2091 -0.2120 -1.7042
12269TIP3    H258223   1.137   5.284  10.540 -1.4942  0.3938  2.9124
12270TIP3   OH258224   5.241   0.441   1.327  0.0089  0.0108  0.2974
12270TIP3    H158225   5.306   0.464   1.393 -0.8234  1.7389  0.5669
12270TIP3    H258226   5.179   0.385   1.373  0.7233 -0.7613  0.3277
12271TIP3   OH258227   6.326   3.522  12.771 -0.2670  0.0709  0.1311
12271TIP3    H158228   6.284   3.572  12.841 -2.7225 -0.2314 -1.0904
12271TIP3    H258229   6.384   3.585  12.729 -0.1115  0.7321  1.3127
12272TIP3   OH258230   5.321   6.559  13.621  0.2923  0.5118 -0.0659
12272TIP3    H158231   5.240   6.537  13.576  0.8534 -1.3408 -0.2413
12272TIP3    H258232   5.361   6.627  13.567 -1.2052  1.5787  0.1250
12273TIP3   OH258233   6.489   6.430  16.030  0.0434 -0.6109  0.4854
12273TIP3    H158234   6.495   6.363  15.961  1.3499  0.5938 -0.5943
12273TIP3    H258235   6.530   6.389  16.106  0.0541 -1.3707  0.0799
12274TIP3   OH258236   4.644   0.702  12.252 -0.1567  0.3736  0.5084
12274TIP3    H158237   4.559   0.712  12.208  0.1084 -1.0596 -0.3865
12274TIP3    H258238   4.705   0.747  12.195  0.0781 -0.8900 -0.2730
12275TIP3   OH258239   1.563   0.367  13.331  0.4588 -0.3621  0.7243
12275TIP3    H158240   1.633   0.387  13.395  1.5517  0.0300 -0.5717
12275TIP3    H258241   1.541   0.276  13.348  0.6856 -0.2374  1.7312
12276TIP3   OH258242   2.195   0.459  12.691 -0.1234 -0.2314  0.0744
12276TIP3    H158243   2.230   0.537  12.648 -1.7325 -0.0449 -0.9462
12276TIP3    H258244   2.128   0.426  12.630 -0.9584 -1.1768  1.4789
12277TIP3   OH258245   4.890   4.920   1.482 -0.2133 -0.0324 -1.1532
12277TIP3    H158246   4.907   5.006   1.444  1.0983 -0.9403 -2.6588
12277TIP3    H258247   4.894   4.859   1.408  0.2796 -1.5667  0.1095
12278TIP3   OH258248   1.328   1.512   0.209 -0.1119  0.7605  0.2863
12278TIP3    H158249   1.403   1.564   0.239  0.6268  0.6363 -1.2910
12278TIP3    H258250   1.271   1.575   0.164 -0.9175  0.8363  1.3951
12279TIP3   OH258251   3.404   3.147  11.971 -0.4515 -0.7496 -0.2852
12279TIP3    H158252   3.436   3.189  11.891 -0.0285 -1.0387 -0.2677
12279TIP3    H258253   3.419   3.212  12.040  0.5503 -1.0741 -0.1978
12280TIP3   OH258254   4.987   0.000   5.235 -0.5003 -0.4331  0.5446
12280TIP3    H158255   4.968   0.010   5.142 -0.7047  0.7833  0.7037
12280TIP3    H258256   5.010   0.088   5.264 -0.0611 -0.8741  1.5617
12281TIP3   OH258257   2.329   6.358  12.412  0.5893 -0.3392  0.4138
12281TIP3    H158258   2.259   6.292  12.410 -0.9361  1.1722  2.2620
12281TIP3    H258259   2.398   6.318  12.465  0.9276 -1.5985 -0.9195
12282TIP3   OH258260   0.701   3.049  13.618 -0.2443 -0.0424  0.6210
12282TIP3    H158261   0.740   3.132  13.644  0.4206 -0.4034  0.7902
12282TIP3    H258262   0.709   2.993  13.695 -0.3316 -0.3862  0.3862
12283TIP3   OH258263   3.272   2.701   0.853  0.2212  0.6118  0.0319
12283TIP3    H158264   3.214   2.649   0.797  0.9653  0.7369 -0.8598
12283TIP3    H258265   3.213   2.743   0.916 -0.5034 -0.3719  0.0123
12284TIP3   OH258266   4.867   5.938  16.200 -0.2550  0.3613 -0.9403
12284TIP3    H158267   4.921   5.982  16.265  0.3944  0.3438 -1.4630
12284TIP3    H258268   4.842   5.856  16.242  0.3241  0.2607 -0.7861
12285TIP3   OH258269   2.649   1.421  11.228 -0.2758  0.5510 -0.3060
12285TIP3    H158270   2.624   1.426  11.320 -1.4657  0.3404 -0.6123
12285TIP3    H258271   2.707   1.345  11.223  0.8491  1.3325  0.4981
12286TIP3   OH258272   4.097   0.001   2.778 -0.1384  0.5672 -0.2196
12286TIP3    H158273   4.084   0.089   2.813 -1.9530  0.4660 -0.6132
12286TIP3    H258274   4.025  -0.012   2.717  0.1769 -1.1483 -0.2611
12287TIP3   OH258275   4.392   6.150   4.536 -0.5401 -0.0425 -0.0391
12287TIP3    H158276   4.378   6.056   4.523 -1.6579 -0.0747  1.3624
12287TIP3    H258277   4.311   6.191   4.505 -0.4624  0.3793  0.3168
12288TIP3   OH258278   6.241   1.930  16.308  0.5232 -0.1229  0.0426
12288TIP3    H158279   6.227   1.848  16.262  0.0401 -0.4919  0.8393
12288TIP3    H258280   6.273   1.905  16.394 -0.0534  0.4935  0.4478
12289TIP3   OH258281   5.826   0.888  12.411  0.1359 -0.0969  0.1900
12289TIP3    H158282   5.842   0.870  12.504 -0.2899 -0.0088  0.2803
12289TIP3    H258283   5.862   0.976  12.397  0.1185 -0.0735  0.2919
12290TIP3   OH258284   1.180   6.284   1.719  0.1178 -0.4518  0.2896
12290TIP3    H158285   1.172   6.250   1.630  2.8960 -0.9369  0.1958
12290TIP3    H258286   1.186   6.379   1.707  0.2997 -0.5025 -0.0417
12291TIP3   OH258287   1.360   3.491   3.119 -0.3797 -0.0502  0.2500
12291TIP3    H158288   1.377   3.403   3.151  1.8103  0.8533  1.7582
12291TIP3    H258289   1.327   3.538   3.195  1.5796  1.2417  0.3490
12292TIP3   OH258290   1.244   1.711  12.339  0.3634 -0.2712  0.3006
12292TIP3    H158291   1.220   1.736  12.428 -0.4707 -0.2274  0.0680
12292TIP3    H258292   1.170   1.659  12.308 -0.6401  2.0507 -1.3603
12293TIP3   OH258293   5.967   5.515  16.421  0.5215 -0.4765 -0.0232
12293TIP3    H158294   5.937   5.561  16.342  1.1231  0.7763  0.4575
12293TIP3    H258295   5.951   5.577  16.492 -1.5162 -2.1987  1.0919
12294TIP3   OH258296   5.314   1.221   4.471  0.7455  0.4913  0.5194
12294TIP3    H158297   5.360   1.199   4.390  0.5808  2.6077 -0.1647
12294TIP3    H258298   5.230   1.176   4.463  0.6925  0.7671 -0.5172
12295TIP3   OH258299   2.958   6.359   1.475 -0.3458  0.1322  0.3383
12295TIP3    H158300   3.054   6.369   1.479 -0.2294 -0.9145  0.1744
12295TIP3    H258301   2.931   6.421   1.407  0.3129 -0.1998 -0.2344
12296TIP3   OH258302   1.663   1.093  15.207  0.3157  0.7734 -0.2674
12296TIP3    H158303   1.712   1.074  15.287  0.0898  1.9304  0.1663
12296TIP3    H258304   1.700   1.176  15.176  0.6544  0.1508 -1.5725
12297TIP3   OH258305   3.553   1.210   4.188  0.2288  0.0900 -0.2912
12297TIP3    H158306   3.593   1.295   4.168  1.0953 -0.0271  0.8871
12297TIP3    H258307   3.617   1.146   4.158 -0.2704 -0.1470 -0.8578
12298TIP3   OH258308   1.474   0.894  16.207  0.5970 -0.2494  0.4626
12298TIP3    H158309   1.559   0.894  16.162 -0.4535 -0.3354 -1.5882
12298TIP3    H258310   1.473   0.977  16.255  1.2315  0.4952 -0.7631
12299TIP3   OH258311   4.395   1.115   1.771 -0.1337 -0.0510 -0.0172
12299TIP3    H158312   4.348   1.035   1.794  1.0968 -1.1952 -1.4336
12299TIP3    H258313   4.479   1.107   1.817  1.2134 -1.0371 -2.5719
12300TIP3   OH258314   1.131   4.493   2.526  0.4455 -0.6358  0.4661
12300TIP3    H158315   1.165   4.582   2.537 -0.9198  0.0111 -0.4817
12300TIP3    H258316   1.064   4.484   2.594 -0.1659 -0.5616 -0.1243
12301TIP3   OH258317   5.190   3.937  13.796 -0.6468  0.2575 -0.6833
12301TIP3    H158318   5.212   3.950  13.888 -1.6193  0.7155 -0.5040
12301TIP3    H258319   5.178   3.843  13.786 -0.2213  0.1759 -0.4181
12302TIP3   OH258320   5.992   6.043  11.243  0.9100 -0.0014 -0.2318
12302TIP3    H158321   6.035   5.969  11.287 -0.3220 -1.2147 -1.0379
12302TIP3    H258322   5.980   6.013  11.153  0.4039  1.1995 -0.5676
12303TIP3   OH258323   5.347   0.961   4.583 -0.1682  0.2856  0.2157
12303TIP3    H158324   5.338   1.055   4.592  0.6836  0.5115 -1.0750
12303TIP3    H258325   5.357   0.947   4.489 -1.5673 -1.2158  0.2797
12304TIP3   OH258326   4.908   3.838   0.027  0.4818  0.1857  0.2113
12304TIP3    H158327   4.943   3.911   0.079 -1.2230  0.4117  1.0773
12304TIP3    H258328   4.887   3.877  -0.058 -1.1907  0.9235  0.9386
12305TIP3   OH258329   3.954   5.095  13.533  0.1968 -0.2157  0.5067
12305TIP3    H158330   3.936   5.067  13.623 -0.9387 -1.8469 -0.2115
12305TIP3    H258331   3.869   5.087  13.489  0.0046  3.5416  0.0430
12306TIP3   OH258332   3.810   3.158   0.221  0.1204 -0.1735 -0.3371
12306TIP3    H158333   3.727   3.179   0.264 -1.1959 -2.0330 -1.8922
12306TIP3    H258334   3.791   3.082   0.166  3.2379 -1.6838  0.5077
12307TIP3   OH258335   5.717   1.636   1.118  0.1637  0.2443  0.1614
12307TIP3    H158336   5.800   1.669   1.084 -0.5229  0.8289 -0.9841
12307TIP3    H258337   5.741   1.587   1.197  1.7525 -0.8296 -0.9541
12308TIP3   OH258338   0.872   1.423  12.709 -0.1459  0.3813  0.3508
12308TIP3    H158339   0.841   1.513  12.711  0.5291  0.6000  0.9133
12308TIP3    H258340   0.935   1.420  12.637 -0.9991  0.0866 -0.3899
12309TIP3   OH258341   5.961   6.774  16.735  0.2095 -0.0458  0.0916
12309TIP3    H158342   5.965   6.684  16.704 -0.9261 -0.5675  1.4246
12309TIP3    H258343   5.871   6.786  16.763  0.6711  1.0913  1.1428
12310TIP3   OH258344   0.215   2.032   2.571  0.3983 -0.1441 -0.0564
12310TIP3    H158345   0.159   2.060   2.499  0.1351 -1.2212 -0.2840
12310TIP3    H258346   0.155   2.023   2.646  0.7467  1.4154  0.4233
12311TIP3   OH258347   4.071   4.499  16.406 -0.4128 -0.6711 -0.3276
12311TIP3    H158348   4.137   4.483  16.473 -1.5459  0.8760  1.2159
12311TIP3    H258349   4.103   4.454  16.329  0.9676 -2.4406  1.2437
12312TIP3   OH258350   0.530   0.278   5.912 -0.1140  0.4308  0.0680
12312TIP3    H158351   0.547   0.301   5.821  0.7456 -1.8581 -0.3773
12312TIP3    H258352   0.471   0.202   5.906 -0.8065  0.8578  1.4293
12313TIP3   OH258353   0.410   5.478  14.846  0.4549 -0.5132 -0.3863
12313TIP3    H158354   0.354   5.442  14.777  1.4431 -1.1080 -0.8945
12313TIP3    H258355   0.385   5.570  14.852  1.3796 -0.0825 -2.5818
12314TIP3   OH258356   2.419   2.804   1.289  0.0702  0.3327 -0.0584
12314TIP3    H158357   2.468   2.858   1.351  1.5948 -1.2287  0.1471
12314TIP3    H258358   2.426   2.851   1.206  3.0975 -0.4660 -0.3363
12315TIP3   OH258359   5.047   2.013  11.933 -0.3836  0.5849  0.3537
12315TIP3    H158360   5.128   2.001  11.983  0.1150  0.5277 -0.4471
12315TIP3    H258361   5.011   1.924  11.924  0.3034  0.3891 -0.6437
12316TIP3   OH258362   0.132   0.116   4.057 -0.0064 -0.3096 -0.1272
12316TIP3    H158363   0.140   0.032   4.013  0.9604 -0.8398  1.0182
12316TIP3    H258364   0.068   0.102   4.126 -0.2811  0.0565 -0.3050
12317TIP3   OH258365   3.291   5.955  15.688 -0.0177 -0.3832  0.1421
12317TIP3    H158366   3.257   5.962  15.777  0.1650  0.4249  0.1521
12317TIP3    H258367   3.334   5.870  15.686 -2.3141 -1.5835  0.0309
12318TIP3   OH258368   3.172   1.759  12.850  0.0194 -0.9935 -0.2040
12318TIP3    H158369   3.079   1.741  12.834 -0.2003  1.3389 -1.9526
12318TIP3    H258370   3.205   1.791  12.766  2.1654 -0.8453  0.6557
12319TIP3   OH258371   4.158   1.144  12.202 -0.4833 -1.0397  0.2373
12319TIP3    H158372   4.154   1.132  12.107 -1.8696 -1.0660  0.2937
12319TIP3    H258373   4.224   1.082  12.232  0.4691 -0.5357 -0.7915
12320TIP3   OH258374   1.650   1.702   5.590  0.1508  0.5438  0.1438
12320TIP3    H158375   1.589   1.710   5.663 -0.4962  1.9223 -0.5335
12320TIP3    H258376   1.631   1.616   5.552  0.8356 -0.4044  1.8831
12321TIP3   OH258377   4.728   6.750   5.067 -0.3868 -0.5141 -0.0117
12321TIP3    H158378   4.739   6.691   5.142  2.7386  1.0294  0.8385
12321TIP3    H258379   4.714   6.691   4.992  1.0491 -2.2729  1.0668
12322TIP3   OH258380   0.264   4.822   6.241 -0.1370  0.0771  0.6669
12322TIP3    H158381   0.271   4.748   6.302  1.2395  1.7975  2.6571
12322TIP3    H258382   0.332   4.883   6.269 -0.7811  1.8041 -1.3904
12323TIP3   OH258383   5.031   1.877   1.623  0.1991  0.2090 -0.2260
12323TIP3    H158384   4.994   1.959   1.590  1.0826  0.5308 -0.4323
12323TIP3    H258385   4.973   1.809   1.589 -1.4557  0.8425  1.2607
12324TIP3   OH258386   1.022   2.276  14.845 -0.3395  0.0647  0.5992
12324TIP3    H158387   1.099   2.222  14.824  0.1928 -0.9401  4.7560
12324TIP3    H258388   0.948   2.216  14.835 -0.5231  0.6870 -2.1455
12325TIP3   OH258389   6.510   2.817  16.054  0.3839  0.3001  0.5319
12325TIP3    H158390   6.456   2.769  15.991 -0.1468  0.3002  0.9806
12325TIP3    H258391   6.483   2.909  16.043  0.5483  0.3460  0.5075
12326TIP3   OH258392   4.463   2.802   4.581 -0.0825  1.0970 -0.5173
12326TIP3    H158393   4.546   2.764   4.609 -0.1002 -1.1330 -3.2298
12326TIP3    H258394   4.399   2.732   4.592 -0.9062  1.6234 -1.8060
12327TIP3   OH258395   0.052   5.026  15.062  0.3687  0.0760  0.0749
12327TIP3    H158396   0.134   5.041  15.110 -0.3483  1.5100  0.8854
12327TIP3    H258397   0.023   5.114  15.035  0.2052 -0.6164 -2.0836
12328TIP3   OH258398   3.510   6.054  16.791  0.1325  0.4187  0.6280
12328TIP3    H158399   3.580   6.114  16.814  2.7448 -1.7763 -1.2559
12328TIP3    H258400   3.537   5.970  16.830 -1.0001 -0.6398 -0.8019
12329TIP3   OH258401   5.965   3.534   5.062  0.2516 -0.3726 -0.0590
12329TIP3    H158402   5.953   3.616   5.014 -0.1230 -0.1380  0.4229
12329TIP3    H258403   5.876   3.498   5.071  0.0940  0.4167  1.8761
12330TIP3   OH258404   2.554   2.834   1.675 -0.2249 -0.2427  0.0750
12330TIP3    H158405   2.577   2.863   1.763  2.3629  1.9504 -1.2669
12330TIP3    H258406   2.614   2.761   1.657  0.6448  0.6409 -0.6295
12331TIP3   OH258407   0.734   1.405  13.275 -0.1820 -0.3717 -0.0720
12331TIP3    H158408   0.673   1.346  13.318  0.5768  0.1019  1.6932
12331TIP3    H258409   0.681   1.480  13.248 -0.1140  0.8717  3.0615
12332TIP3   OH258410   0.682   2.115  12.480 -0.0078 -0.0192  0.0981
12332TIP3    H158411   0.669   2.207  12.505  2.7476  0.5064 -0.2100
12332TIP3    H258412   0.731   2.120  12.397  1.8311 -1.7353  1.0275
12333TIP3   OH258413   2.713   1.480  13.882  0.3221 -0.5567  0.6155
12333TIP3    H158414   2.622   1.499  13.860  0.7816  0.1692 -0.7030
12333TIP3    H258415   2.759   1.563  13.868  1.1904 -0.9079  1.3017
12334TIP3   OH258416   6.027   3.607  13.678  0.3564  0.3108  0.3164
12334TIP3    H158417   6.047   3.685  13.730 -0.2774  0.8229 -0.2018
12334TIP3    H258418   6.080   3.617  13.599  0.4980  0.0733  0.3810
12335TIP3   OH258419   0.104   3.009  15.315  0.0423 -0.3647  0.0133
12335TIP3    H158420   0.159   2.932  15.326 -0.7010 -0.6247  1.9486
12335TIP3    H258421   0.150   3.078  15.364  0.4806  0.3500 -1.3490
12336TIP3   OH258422   5.531   5.040  12.407 -0.2051  0.0811 -0.2792
12336TIP3    H158423   5.451   5.087  12.433 -0.0004  0.4844 -0.3811
12336TIP3    H258424   5.596   5.109  12.392  0.5543 -0.3169  1.0991
12337TIP3   OH258425   2.561   5.705  11.815 -0.2672  0.1533  0.3823
12337TIP3    H158426   2.653   5.695  11.839 -0.2372 -1.6608 -0.3546
12337TIP3    H258427   2.513   5.648  11.876 -0.6047 -1.0739 -0.9885
12338TIP3   OH258428   3.444   1.662  12.776  0.0981 -0.2321  0.0646
12338TIP3    H158429   3.411   1.585  12.823 -2.1821  0.7175  0.1087
12338TIP3    H258430   3.447   1.731  12.842 -0.5100  0.4026 -0.5539
12339TIP3   OH258431   3.118   4.072  14.600  0.1628 -0.4384  0.1554
12339TIP3    H158432   3.099   4.120  14.519  0.9920 -1.0233 -0.3968
12339TIP3    H258433   3.196   4.116  14.636  0.6053 -1.0353 -0.0741
12340TIP3   OH258434   3.232   4.112   3.438 -0.6413  0.1992 -0.0389
12340TIP3    H158435   3.165   4.167   3.397 -0.6471  1.7292  1.9111
12340TIP3    H258436   3.268   4.167   3.508  1.3663 -1.2800  0.1286
12341TIP3   OH258437   2.886   2.943   0.075 -0.0103  0.5214  0.1344
12341TIP3    H158438   2.872   2.972   0.165 -1.2512 -0.2959  0.2057
12341TIP3    H258439   2.962   2.885   0.081 -1.6311 -1.5579  1.0872
12342TIP3   OH258440   6.285   4.853  16.773 -0.7385 -0.0804  0.1513
12342TIP3    H158441   6.337   4.924  16.734 -1.5843  1.2724  1.4033
12342TIP3    H258442   6.340   4.775  16.764  0.8660  1.0206  0.0857
12343TIP3   OH258443   5.838   2.853  12.052  0.3935 -0.0641  0.6151
12343TIP3    H158444   5.831   2.792  11.979  1.5836 -0.9857  1.2434
12343TIP3    H258445   5.764   2.913  12.041 -0.7507 -1.5614 -0.0617
12344TIP3   OH258446   1.352   3.842   0.391  0.7247 -0.0748  0.1303
12344TIP3    H158447   1.410   3.766   0.398 -2.3734 -2.4556  0.9570
12344TIP3    H258448   1.363   3.889   0.473  1.4233 -0.5468  0.3050
12345TIP3   OH258449   0.626   4.369   0.492 -0.3041  0.9608 -0.2515
12345TIP3    H158450   0.536   4.387   0.520 -0.0095  1.2356  0.5188
12345TIP3    H258451   0.673   4.451   0.505  0.0157  0.8722 -0.8267
12346TIP3   OH258452   1.765   4.934   1.887 -0.3807  0.1333  0.4912
12346TIP3    H158453   1.686   4.976   1.922 -0.9580  0.2698 -0.9275
12346TIP3    H258454   1.735   4.849   1.855 -0.4046  1.0359 -1.9871
12347TIP3   OH258455   6.698   3.125   4.682 -0.0080 -0.1203  0.0158
12347TIP3    H158456   6.771   3.084   4.728 -0.0874 -1.1879 -0.8004
12347TIP3    H258457   6.719   3.113   4.589 -0.5898  0.7077 -0.2299
12348TIP3   OH258458   1.074   6.740  13.942 -0.9131  0.4358  0.2656
12348TIP3    H158459   1.023   6.814  13.973  0.1250  0.1440  2.7863
12348TIP3    H258460   1.111   6.769  13.859 -1.7752  2.1631  0.4615
12349TIP3   OH258461   5.743   2.479  13.801  0.2238 -0.0041 -0.0682
12349TIP3    H158462   5.716   2.397  13.843 -1.8572  1.1018  0.8650
12349TIP3    H258463   5.761   2.538  13.875 -0.8395  1.1507 -0.7162
12350TIP3   OH258464   1.192   3.053   4.640 -0.3072  0.1904 -0.5134
12350TIP3    H158465   1.156   3.085   4.557 -2.7088  0.8096  0.7057
12350TIP3    H258466   1.117   3.010   4.682  1.3679 -1.8004  0.5049
12351TIP3   OH258467   2.506   1.443  15.969  0.2928 -0.3143  0.2512
12351TIP3    H158468   2.528   1.393  15.890  1.6462  0.0959  0.3602
12351TIP3    H258469   2.573   1.416  16.033 -0.1798  0.1331  0.9347
12352TIP3   OH258470   6.547   3.387   2.582  0.1672 -0.3049 -0.0247
12352TIP3    H158471   6.513   3.323   2.519  0.0826  0.3864 -0.6738
12352TIP3    H258472   6.552   3.338   2.665 -3.8866 -0.0398  0.4797
12353TIP3   OH258473   4.345   2.314   2.841  0.5913 -0.5340 -0.4126
12353TIP3    H158474   4.312   2.253   2.775 -1.5575  0.8409 -0.6440
12353TIP3    H258475   4.408   2.369   2.794  0.5152 -0.8172 -0.8452
12354TIP3   OH258476   2.880   5.220   3.707 -0.4271 -0.0597  0.1796
12354TIP3    H158477   2.817   5.191   3.642  1.8826  0.0887 -2.1937
12354TIP3    H258478   2.912   5.140   3.748 -1.1925 -0.2096  0.4905
12355TIP3   OH258479   1.289   6.283   2.502 -0.1179 -0.2228  0.2191
12355TIP3    H158480   1.300   6.289   2.596  0.8074 -0.0534  0.0994
12355TIP3    H258481   1.348   6.349   2.466 -0.6793 -0.0779 -0.4697
12356TIP3   OH258482   1.953   2.671   4.558  0.0815 -0.0407  0.2957
12356TIP3    H158483   2.047   2.658   4.544  0.0101  0.0707 -0.3134
12356TIP3    H258484   1.916   2.671   4.470 -0.5749 -0.6921  0.5651
12357TIP3   OH258485   4.818   0.171   5.707  0.8355  0.2635  0.2701
12357TIP3    H158486   4.879   0.244   5.698  0.1391  0.9151  0.8767
12357TIP3    H258487   4.775   0.185   5.791  0.7106 -0.8525  0.3958
12358TIP3   OH258488   0.153   4.085  13.769  0.5112  0.2812  0.0304
12358TIP3    H158489   0.088   4.144  13.732  0.3202 -0.5725 -1.0324
12358TIP3    H258490   0.219   4.076  13.700  1.2051  0.2930  0.6890
12359TIP3   OH258491   3.529   1.733  12.097  0.4123  0.8352 -0.3966
12359TIP3    H158492   3.456   1.690  12.052  0.4328 -0.3479  0.6443
12359TIP3    H258493   3.607   1.688  12.063  0.4295 -0.0350  0.7524
12360TIP3   OH258494   4.127   5.535  12.908 -0.4386 -0.5175 -0.0189
12360TIP3    H158495   4.170   5.520  12.824 -0.0772 -0.2242  0.1104
12360TIP3    H258496   4.180   5.485  12.971  0.7116  1.1859  0.3958
12361TIP3   OH258497   0.332   1.539  11.446 -0.2750 -0.0132 -0.0340
12361TIP3    H158498   0.409   1.486  11.429 -0.0123  0.6359 -0.8738
12361TIP3    H258499   0.258   1.478  11.436  0.0853 -0.4894  0.1742
12362TIP3   OH258500   4.908   1.936  12.432 -0.0622  0.0127 -0.0956
12362TIP3    H158501   4.909   2.031  12.420 -1.2381  0.0964  0.3987
12362TIP3    H258502   4.888   1.901  12.345  2.7547  0.0750 -0.8458
12363TIP3   OH258503   3.747   5.861  15.976  0.1550  0.4202  0.4272
12363TIP3    H158504   3.783   5.783  16.018 -0.3629 -0.3342 -0.5013
12363TIP3    H258505   3.655   5.860  16.000 -0.1925 -0.1347 -0.8739
12364TIP3   OH258506   6.008   6.745   2.174 -0.1253 -0.0755  0.4000
12364TIP3    H158507   6.102   6.764   2.167 -0.1615 -0.4542 -1.5826
12364TIP3    H258508   5.968   6.801   2.107 -1.4227  0.7032  1.7977
12365TIP3   OH258509   0.057   0.814   0.269 -0.1889 -0.1076  0.0545
12365TIP3    H158510   0.093   0.757   0.337  0.9798 -0.6283 -0.9883
12365TIP3    H258511   0.089   0.901   0.291 -0.7553 -0.0781  0.8056
12366TIP3   OH258512   4.040   5.361   2.999 -0.0158 -0.1133 -0.1692
12366TIP3    H158513   4.039   5.304   3.076 -0.9131 -0.9905 -0.8251
12366TIP3    H258514   3.978   5.321   2.939  0.5198  0.6978 -1.2701
12367TIP3   OH258515   5.277   0.783   0.185 -0.3025  0.5823 -0.6238
12367TIP3    H158516   5.286   0.764   0.092  1.9361 -0.5378 -0.2191
12367TIP3    H258517   5.261   0.697   0.225 -0.1035  0.9097  0.1617
12368TIP3   OH258518   2.332   5.990  15.771 -0.2144  0.0247  0.3221
12368TIP3    H158519   2.348   6.078  15.736  0.0593  0.0518  0.5114
12368TIP3    H258520   2.264   5.953  15.715 -0.9763  0.6992  0.7927
12369TIP3   OH258521   2.131   2.731   5.438 -0.3239 -0.3500 -0.3613
12369TIP3    H158522   2.157   2.640   5.423  0.3887 -0.2527  0.2435
12369TIP3    H258523   2.107   2.763   5.352  1.7728 -0.3922 -0.9934
12370TIP3   OH258524   2.717   1.137   3.378  0.5893 -0.3014  0.0989
12370TIP3    H158525   2.705   1.075   3.307  0.3288  0.4283 -0.4971
12370TIP3    H258526   2.777   1.203   3.344 -0.8877  0.9917 -0.0638
12371TIP3   OH258527   2.484   4.511  13.571  0.2570  0.1501 -0.5705
12371TIP3    H158528   2.565   4.533  13.525 -0.4028  1.1162 -1.2755
12371TIP3    H258529   2.470   4.584  13.632  0.0439 -0.1396 -0.2687
12372TIP3   OH258530   1.328   5.302   4.399 -0.2014  0.5639  0.1639
12372TIP3    H158531   1.342   5.392   4.430 -0.6588  0.4444  0.7377
12372TIP3    H258532   1.407   5.281   4.349  0.4109  0.8820  0.9792
12373TIP3   OH258533   0.794   5.431   5.490  0.3219  0.3509  0.2535
12373TIP3    H158534   0.722   5.492   5.506  0.8992  1.0966  0.0053
12373TIP3    H258535   0.837   5.464   5.411 -0.5814 -1.5066 -1.0544
12374TIP3   OH258536   0.810   1.523  16.706  0.2785  0.3212  0.4287
12374TIP3    H158537   0.745   1.477  16.653  1.0986 -1.4928  0.9579
12374TIP3    H258538   0.894   1.489  16.676  1.0316  2.8578 -0.4496
12375TIP3   OH258539   5.860   1.500   1.744  0.1859 -0.5007  0.5410
12375TIP3    H158540   5.874   1.416   1.699  0.4859 -1.1157  1.7549
12375TIP3    H258541   5.814   1.476   1.825 -2.3294  0.8337 -0.4605
12376TIP3   OH258542   4.883   5.672  16.249 -0.5662 -0.2815 -0.2031
12376TIP3    H158543   4.957   5.664  16.189  0.1742  0.3308  0.6148
12376TIP3    H258544   4.916   5.637  16.332  0.0923  3.5007  1.2380
12377TIP3   OH258545   6.482   6.013   3.568  0.7063 -0.0842 -0.0919
12377TIP3    H158546   6.393   5.979   3.559  1.0324 -0.9830  0.0379
12377TIP3    H258547   6.471   6.101   3.604  0.0087 -1.2437  2.6479
12378TIP3   OH258548   5.467   3.077   2.779  0.4559 -0.0123 -0.0378
12378TIP3    H158549   5.535   3.057   2.843  0.6225  0.4492 -0.0707
12378TIP3    H258550   5.512   3.127   2.711 -0.6070  3.2035  1.5660
12379TIP3   OH258551   4.081   2.668   4.930 -0.4263 -0.0983  0.1712
12379TIP3    H158552   4.045   2.737   4.985 -1.7613  0.4326 -1.3604
12379TIP3    H258553   4.169   2.653   4.966 -1.0500  0.6226  2.0869
12380TIP3   OH258554   3.755   5.828   6.683 -0.3527  0.5072 -0.6327
12380TIP3    H158555   3.809   5.900   6.652  0.2623  0.3257  0.0039
12380TIP3    H258556   3.818   5.761   6.709 -0.8882  0.3261  0.1829
12381TIP3   OH258557   4.281   0.883   5.352  0.2695  0.4625 -0.5365
12381TIP3    H158558   4.348   0.940   5.389  1.5651 -0.5784 -1.2637
12381TIP3    H258559   4.320   0.847   5.272 -1.0049 -0.4292 -0.7760
12382TIP3   OH258560   0.342   6.305  11.202  0.6051 -0.2457  0.2748
12382TIP3    H158561   0.350   6.390  11.158  0.7801  0.6838  2.0256
12382TIP3    H258562   0.265   6.316  11.258 -0.8121 -2.0830 -1.2673
12383TIP3   OH258563   5.681   4.923  14.754  0.6635  0.3964  0.3275
12383TIP3    H158564   5.717   4.990  14.812 -0.2202  2.2381 -1.2171
12383TIP3    H258565   5.718   4.841  14.786  1.5585  1.5924  2.4001
12384TIP3   OH258566   5.883   2.711  12.441 -0.4676 -0.0230 -0.5025
12384TIP3    H158567   5.966   2.759  12.446 -0.4405 -0.1989  0.8895
12384TIP3    H258568   5.908   2.619  12.452 -1.0246  0.0764  1.9107
12385TIP3   OH258569   4.705   5.921   1.233 -0.1650  0.5618  0.1028
12385TIP3    H158570   4.738   5.860   1.300  0.8700 -0.4036 -1.2508
12385TIP3    H258571   4.638   5.872   1.186 -0.6721  1.1298  0.2264
12386TIP3   OH258572   3.798   6.178   2.760 -0.1712 -0.0777 -0.1076
12386TIP3    H158573   3.821   6.254   2.814 -1.6360  0.8789 -0.7788
12386TIP3    H258574   3.759   6.116   2.821 -1.0022  0.6329  0.1006
12387TIP3   OH258575   6.078   0.171  11.590 -0.2145 -0.4898 -0.3087
12387TIP3    H158576   6.012   0.102  11.581 -0.7685 -0.2685  1.8724
12387TIP3    H258577   6.052   0.238  11.527 -1.6416 -0.7395  0.0072
12388TIP3   OH258578   2.859   1.300   3.903 -0.9074 -0.8309 -0.2584
12388TIP3    H158579   2.807   1.305   3.982 -0.0616 -1.2107  0.3277
12388TIP3    H258580   2.928   1.237   3.923 -0.1834 -0.2899 -0.9958
12389TIP3   OH258581   5.775   1.538  14.232  0.2977  0.2548  0.6257
12389TIP3    H158582   5.708   1.485  14.190 -2.1099  2.3876  1.6841
12389TIP3    H258583   5.764   1.522  14.326  0.4662  1.5074  0.8750
12390TIP3   OH258584   2.285   3.587  15.382  0.6255  0.4553 -0.2712
12390TIP3    H158585   2.380   3.584  15.399  0.5479 -1.7110 -0.0255
12390TIP3    H258586   2.269   3.511  15.327 -0.5557  2.4193 -2.7027
12391TIP3   OH258587   4.312   4.421   2.277 -0.6944  0.6233 -0.4342
12391TIP3    H158588   4.332   4.328   2.268 -0.1798  0.3578  2.8639
12391TIP3    H258589   4.390   4.459   2.318 -0.5762  2.6926 -2.4301
12392TIP3   OH258590   1.379   2.819   5.493  0.5979 -0.6234  0.0314
12392TIP3    H158591   1.361   2.870   5.414 -0.9203  0.3586  0.9901
12392TIP3    H258592   1.464   2.850   5.523 -0.5381  1.7370  0.8851
12393TIP3   OH258593   2.462   1.491  11.066 -0.1507  0.3287  0.2521
12393TIP3    H158594   2.535   1.457  11.118 -0.2331  1.7800  1.3555
12393TIP3    H258595   2.480   1.460  10.977  1.4575  0.1015  0.6317
12394TIP3   OH258596   1.341   6.267   3.759 -0.0390  0.7385  0.3711
12394TIP3    H158597   1.295   6.184   3.767  1.8913 -0.7495 -2.7577
12394TIP3    H258598   1.389   6.277   3.841  0.7066 -1.8847  0.2842
12395TIP3   OH258599   3.538   5.809   4.604 -0.3619  1.2433  0.2063
12395TIP3    H158600   3.585   5.857   4.672  0.7072  1.1460 -0.4612
12395TIP3    H258601   3.459   5.862   4.589  0.1066  2.0395  0.4785
12396TIP3   OH258602   5.648   6.323   3.740  0.1443 -0.1788 -0.6727
12396TIP3    H158603   5.572   6.270   3.717  0.2955 -0.4425 -0.5709
12396TIP3    H258604   5.639   6.339   3.834 -0.7036  1.2695 -0.9840
12397TIP3   OH258605   0.736   4.593  12.343 -0.1617  0.0668 -0.4601
12397TIP3    H158606   0.688   4.675  12.350 -1.6905 -0.7244 -1.5001
12397TIP3    H258607   0.735   4.573  12.249  0.0767 -1.2260 -0.1867
12398TIP3   OH258608   6.716   6.145  15.291  0.1644 -0.0273  0.6335
12398TIP3    H158609   6.726   6.202  15.215 -2.1302 -1.5987 -0.9399
12398TIP3    H258610   6.794   6.090  15.290  0.6799  0.6994  0.0626
12399TIP3   OH258611   3.167   3.535  14.426  0.0463 -0.0558 -0.5577
12399TIP3    H158612   3.186   3.623  14.394  2.0153 -1.1065 -2.3784
12399TIP3    H258613   3.230   3.521  14.497 -1.1888  0.5101  0.6614
12400TIP3   OH258614   6.783   0.107   2.964  0.3217 -0.5398  0.4226
12400TIP3    H158615   6.846   0.074   2.900 -1.0776  1.1250 -1.8935
12400TIP3    H258616   6.798   0.202   2.965 -1.1637 -0.2961  0.8989
12401TIP3   OH258617   2.296   2.858   0.037 -0.5067  0.6910 -0.7681
12401TIP3    H158618   2.258   2.772   0.051 -0.4738  0.6418 -0.9780
12401TIP3    H258619   2.387   2.841   0.012  0.1390  0.8622  1.3380
12402TIP3   OH258620   2.467   4.195  13.226 -0.0850  0.1937  0.0815
12402TIP3    H158621   2.478   4.274  13.172  0.0351  0.3529  0.3374
12402TIP3    H258622   2.500   4.221  13.312  0.7778 -0.4065 -0.0547
12403TIP3   OH258623   4.935   6.608   4.553  0.6711  0.0240  0.0114
12403TIP3    H158624   4.952   6.593   4.460 -1.3474 -0.2917 -0.3373
12403TIP3    H258625   4.882   6.688   4.555 -1.3300 -1.2757  0.6612
12404TIP3   OH258626   5.266   5.463  13.506  0.1775 -0.2039 -0.2835
12404TIP3    H158627   5.237   5.387  13.557 -0.5357  1.2549  1.5665
12404TIP3    H258628   5.361   5.460  13.511  0.1481 -0.8667 -0.0517
12405TIP3   OH258629   4.702   2.091  11.344 -0.9712 -0.7453 -0.3765
12405TIP3    H158630   4.661   2.170  11.308 -0.1578 -0.4779 -0.7507
12405TIP3    H258631   4.757   2.124  11.416  0.8948 -0.6937 -1.7726
12406TIP3   OH258632   4.778   1.166  16.109 -0.5850 -0.3087 -0.3623
12406TIP3    H158633   4.834   1.224  16.161 -1.3443  1.8792 -1.9059
12406TIP3    H258634   4.823   1.159  16.024  0.1993 -3.1369  0.2457
12407TIP3   OH258635   6.249   2.505  15.190  0.6321  0.3569  0.3206
12407TIP3    H158636   6.292   2.423  15.211  0.9424  0.0130 -1.5562
12407TIP3    H258637   6.255   2.512  15.095 -0.0478  2.1888  0.3810
12408TIP3   OH258638   0.521   5.270   5.648  0.2874 -1.0020  0.2474
12408TIP3    H158639   0.434   5.279   5.688  0.2984  0.7438 -0.0767
12408TIP3    H258640   0.574   5.336   5.692  1.1098 -1.1577 -0.4958
12409TIP3   OH258641   3.052   3.441  10.534 -0.0957 -0.1292 -0.8199
12409TIP3    H158642   3.045   3.536  10.545  0.8222  0.1038 -2.0938
12409TIP3    H258643   2.967   3.414  10.500 -0.4397  0.2074 -0.2247
12410TIP3   OH258644   6.033   6.212  16.649 -0.3314 -0.4392 -0.0401
12410TIP3    H158645   6.099   6.214  16.580  1.3469 -1.6998  1.4999
12410TIP3    H258646   6.032   6.302  16.683  0.2342 -0.2901 -0.4075
12411TIP3   OH258647   3.524   2.913  12.095 -0.3226 -0.2085  0.7343
12411TIP3    H158648   3.491   2.990  12.050  2.3157 -1.1678 -3.0596
12411TIP3    H258649   3.604   2.943  12.140 -0.1654 -0.3765  0.5697
12412TIP3   OH258650   6.257   3.846  11.610  0.0245 -0.1553  0.4498
12412TIP3    H158651   6.200   3.896  11.670  0.5424 -0.0930  0.8881
12412TIP3    H258652   6.294   3.913  11.552 -0.1539 -0.1686  0.3169
12413TIP3   OH258653   4.782   0.298  12.980 -0.1818 -0.0746 -0.0953
12413TIP3    H158654   4.732   0.241  13.038  1.4805  0.2262  1.6589
12413TIP3    H258655   4.806   0.241  12.906  1.2891 -1.6222  1.5369
12414TIP3   OH258656   2.314   3.749   5.036 -0.5386  0.3127 -0.2041
12414TIP3    H158657   2.353   3.731   4.951 -0.5238 -1.8051  0.2031
12414TIP3    H258658   2.220   3.756   5.019 -0.4611  0.5997 -0.5027
12415TIP3   OH258659   3.708   6.782  15.431 -0.0158 -0.3304 -0.6232
12415TIP3    H158660   3.676   6.766  15.342 -1.1041 -1.4422 -0.0463
12415TIP3    H258661   3.728   6.875  15.433 -2.6852  0.2723 -1.1744
12416TIP3   OH258662   6.708   3.209   5.019 -0.1702 -0.5792 -0.3432
12416TIP3    H158663   6.773   3.208   4.949 -0.9267  0.7470 -1.0887
12416TIP3    H258664   6.758   3.191   5.099  1.3831  1.9158 -0.6980
12417TIP3   OH258665   5.937   2.546   2.077  0.2011  0.1122  0.1053
12417TIP3    H158666   5.925   2.484   2.005  1.0112 -0.9814  0.8954
12417TIP3    H258667   6.032   2.552   2.088  0.0961  0.6684  0.7551
12418TIP3   OH258668   4.682   6.498   4.148  0.0519  0.2712  0.0203
12418TIP3    H158669   4.631   6.426   4.109 -0.0813  0.4993 -0.2303
12418TIP3    H258670   4.618   6.568   4.158 -0.2396 -0.2444  1.9427
12419TIP3   OH258671   2.474   5.821  12.843  0.0878  0.4878 -0.6518
12419TIP3    H158672   2.449   5.913  12.830 -1.1335  0.0326 -1.6356
12419TIP3    H258673   2.391   5.774  12.845  0.7301 -0.6563 -0.5675
12420TIP3   OH258674   5.298   0.133  12.402  0.6276  0.9986  0.3300
12420TIP3    H158675   5.376   0.189  12.409  0.8259  0.7224  0.3307
12420TIP3    H258676   5.327   0.059  12.348  0.7152  0.2826  1.3422
12421TIP3   OH258677   3.137   0.675  15.505 -0.0005 -0.1531 -0.0038
12421TIP3    H158678   3.228   0.652  15.485 -0.3337 -1.2090 -0.3309
12421TIP3    H258679   3.088   0.652  15.426 -0.0615  3.7358 -1.2018
12422TIP3   OH258680   6.521   5.291   3.629 -0.3115 -0.2607  0.8029
12422TIP3    H158681   6.594   5.351   3.613 -0.6495 -0.5070 -1.8718
12422TIP3    H258682   6.562   5.207   3.645  0.0104 -0.1672  0.4504
12423TIP3   OH258683   2.427   5.168  13.201 -0.0647 -0.2932 -0.3709
12423TIP3    H158684   2.523   5.165  13.204 -0.0287 -1.7542 -2.1764
12423TIP3    H258685   2.407   5.224  13.126 -0.6409  0.6274  0.4620
12424TIP3   OH258686   5.148   5.946  12.037  0.7116  0.3116 -0.1688
12424TIP3    H158687   5.240   5.921  12.042  0.7481  0.7428  1.7909
12424TIP3    H258688   5.148   6.041  12.051  0.0791  0.4984 -1.4097
12425TIP3   OH258689   2.035   2.585   1.096 -0.0499 -0.1376 -0.9791
12425TIP3    H158690   2.055   2.676   1.118  2.8844 -0.8772 -0.3620
12425TIP3    H258691   2.002   2.548   1.178  0.9732 -0.2104 -0.5892
12426TIP3   OH258692   3.234   0.150  12.084 -0.3059  0.2224 -0.2946
12426TIP3    H158693   3.154   0.108  12.052  0.0730 -0.7605  0.0251
12426TIP3    H258694   3.253   0.218  12.020  0.4648 -1.7493 -2.2181
12427TIP3   OH258695   4.724   1.595   4.121 -0.6271 -0.2236 -0.2288
12427TIP3    H158696   4.630   1.609   4.134 -0.9921 -3.0319  0.4852
12427TIP3    H258697   4.764   1.619   4.205 -0.7916  0.1439 -0.2551
12428TIP3   OH258698   2.782   5.468   3.503 -0.3965  0.0294 -0.0590
12428TIP3    H158699   2.744   5.530   3.565  2.4975  1.1292  0.6775
12428TIP3    H258700   2.742   5.384   3.526 -2.9971  1.2505  0.0975
12429TIP3   OH258701   5.513   4.825   4.525 -0.3760  0.0302  0.1577
12429TIP3    H158702   5.594   4.862   4.490 -0.1602 -0.3607  0.2461
12429TIP3    H258703   5.486   4.760   4.460 -0.6108  0.1492  0.1360
12430TIP3   OH258704   2.897   2.424  14.934 -0.0231  0.2723  0.2344
12430TIP3    H158705   2.870   2.474  14.858  2.5087  3.4636  1.3251
12430TIP3    H258706   2.849   2.463  15.007 -0.2143 -0.8325  0.7131
12431TIP3   OH258707   6.600   5.913   3.330  0.1771  0.0845 -0.2598
12431TIP3    H158708   6.563   5.949   3.410 -2.3546  0.4348 -1.5512
12431TIP3    H258709   6.569   5.823   3.327  1.9921 -0.5824  0.1767
12432TIP3   OH258710   6.210   1.545   3.943  0.2272  0.4196  0.2539
12432TIP3    H158711   6.253   1.598   3.876 -0.2489 -0.3209 -0.6420
12432TIP3    H258712   6.236   1.455   3.923 -1.5508 -0.0150 -0.1621
12433TIP3   OH258713   4.994   1.617   4.021 -0.4143  0.0624 -0.7995
12433TIP3    H158714   4.974   1.710   4.035 -2.5040 -0.0272 -3.0057
12433TIP3    H258715   4.924   1.570   4.066 -0.1604 -0.4474 -0.9345
12434TIP3   OH258716   3.768   6.555   3.866  0.2304 -0.2085  0.0539
12434TIP3    H158717   3.732   6.562   3.954 -0.0054 -0.2511 -0.0383
12434TIP3    H258718   3.763   6.643   3.830  0.9527 -0.0513  0.3243
12435TIP3   OH258719   0.065   1.544  13.136 -0.4444 -0.2710 -0.0008
12435TIP3    H158720  -0.016   1.557  13.086  0.2010  2.3295 -0.4450
12435TIP3    H258721   0.039   1.491  13.212 -2.2098 -0.8747 -1.0021
12436TIP3   OH258722   2.447   2.381  16.646  0.3237 -1.0824  0.4902
12436TIP3    H158723   2.497   2.303  16.671 -0.4679 -1.5085  0.7561
12436TIP3    H258724   2.514   2.444  16.619  1.1224 -1.0755  2.4031
12437TIP3   OH258725   1.967   3.613  14.645  0.1481  0.0455  0.2815
12437TIP3    H158726   1.944   3.668  14.570 -1.3077 -1.1438 -0.1862
12437TIP3    H258727   1.920   3.653  14.718  1.0445  0.8235  0.4442
12438TIP3   OH258728   3.580   2.219   5.800  0.4672  0.1692 -0.1924
12438TIP3    H158729   3.587   2.134   5.758 -1.5709 -0.5034  0.7635
12438TIP3    H258730   3.497   2.216   5.847  0.8668  2.2983  0.7235
12439TIP3   OH258731   3.483   5.764   3.305 -0.2347  0.3025  0.1340
12439TIP3    H158732   3.442   5.699   3.248 -0.8745 -0.7131  1.7107
12439TIP3    H258733   3.421   5.836   3.309 -0.4086  0.1627 -0.0310
12440TIP3   OH258734   6.540   1.521  13.307  0.1467  0.4735 -0.2168
12440TIP3    H158735   6.485   1.530  13.230 -0.2922 -0.7194 -0.0588
12440TIP3    H258736   6.492   1.461  13.364  0.8396  0.7149  0.6383
12441TIP3   OH258737   4.960   2.471  14.687 -0.5733 -0.2972  0.3421
12441TIP3    H158738   4.887   2.414  14.664  0.8673 -2.3831  0.7113
12441TIP3    H258739   5.007   2.484  14.604  0.5208 -1.7960  0.6952
12442TIP3   OH258740   0.543   1.800  11.852 -0.3520  0.0153 -0.5307
12442TIP3    H158741   0.533   1.814  11.758 -0.9842 -0.7673 -0.5862
12442TIP3    H258742   0.455   1.813  11.888 -0.3818 -0.9847 -0.2257
12443TIP3   OH258743   0.891   4.168  12.171 -0.1026  0.0935 -0.2926
12443TIP3    H158744   0.820   4.139  12.113  0.3288 -0.4830 -0.5368
12443TIP3    H258745   0.971   4.132  12.132 -0.0699 -2.7278  2.1828
12444TIP3   OH258746   0.853   2.563  11.896  0.0931  0.2796  0.1456
12444TIP3    H158747   0.797   2.500  11.850  1.1825 -0.3990 -0.2785
12444TIP3    H258748   0.933   2.567  11.843  1.0322  0.1160  1.5290
12445TIP3   OH258749   1.921   2.156  16.835  0.3332 -0.4639 -0.0930
12445TIP3    H158750   1.938   2.085  16.774 -0.7283 -0.6130 -0.2175
12445TIP3    H258751   1.870   2.117  16.905 -2.6153  0.6886 -1.4755
12446TIP3   OH258752   0.234   5.135   3.702  0.1787  0.1865 -0.4121
12446TIP3    H158753   0.201   5.124   3.613 -0.3476  1.9048 -0.4558
12446TIP3    H258754   0.196   5.062   3.751  1.3165 -1.3617 -1.8038
12447TIP3   OH258755   1.178   4.016  16.581 -0.1326 -0.2529 -0.7976
12447TIP3    H158756   1.083   4.025  16.587 -0.2538 -0.3651 -2.3445
12447TIP3    H258757   1.211   4.105  16.593 -0.2749 -0.5833  2.2695
12448TIP3   OH258758   5.174   6.236   4.392  0.1991 -0.2555  0.3885
12448TIP3    H158759   5.128   6.307   4.349  0.7553 -1.1468 -1.7342
12448TIP3    H258760   5.173   6.164   4.329 -2.0895 -2.8534  3.1908
12449TIP3   OH258761   3.365   1.568   5.076  0.3346 -0.7781 -0.8450
12449TIP3    H158762   3.457   1.579   5.052  0.0208 -0.4737 -1.8876
12449TIP3    H258763   3.316   1.614   5.009 -0.5112  0.9386  0.9103
12450TIP3   OH258764   6.178   0.107  15.586 -0.7076  0.1480 -0.0993
12450TIP3    H158765   6.100   0.101  15.530 -1.1808  1.7932  0.3521
12450TIP3    H258766   6.162   0.184  15.641  1.3119  0.5882 -0.0973
12451TIP3   OH258767   2.792   6.630  15.665 -0.2271  0.5473 -0.6588
12451TIP3    H158768   2.810   6.718  15.697 -2.6365  1.3480 -1.4375
12451TIP3    H258769   2.794   6.638  15.570  1.6070 -0.6955 -0.7453
12452TIP3   OH258770   5.405   5.032  15.697  0.5026 -0.1143 -0.0687
12452TIP3    H158771   5.426   4.947  15.734  1.9859 -0.5440 -1.8013
12452TIP3    H258772   5.488   5.063  15.660 -0.4297  1.2462 -1.0672
12453TIP3   OH258773   2.103   0.522  10.731  0.0937 -0.1241  0.0495
12453TIP3    H158774   2.104   0.459  10.659  0.3166  0.7137 -0.6919
12453TIP3    H258775   2.156   0.595  10.699  1.8998 -0.5936  1.8376
12454TIP3   OH258776   4.155   2.363   1.553  0.3081  0.4313 -0.1346
12454TIP3    H158777   4.184   2.272   1.551  0.1043  0.3851 -0.8455
12454TIP3    H258778   4.060   2.358   1.563  0.2094  0.5590 -1.0043
12455TIP3   OH258779   0.371   0.207  16.923  0.2680 -0.4012 -0.0275
12455TIP3    H158780   0.320   0.235  17.000 -1.2377  0.9929 -1.4902
12455TIP3    H258781   0.311   0.149  16.875  0.6400 -0.0538 -0.9225
12456TIP3   OH258782   4.435   1.090  17.028 -0.6107 -0.3101  0.7818
12456TIP3    H158783   4.490   1.165  17.004 -1.4311  0.1078  0.2046
12456TIP3    H258784   4.468   1.018  16.975 -0.1255 -0.2477  0.9956
12457TIP3   OH258785   6.771   4.929   5.863 -0.2539 -0.0854 -0.4574
12457TIP3    H158786   6.777   4.902   5.955 -1.0274  0.4609 -0.2508
12457TIP3    H258787   6.859   4.912   5.828  0.7748  1.9695  0.9962
12458TIP3   OH258788   3.766   0.936   2.450  0.0684  0.1789  0.1905
12458TIP3    H158789   3.785   1.030   2.439 -1.5932  0.4622 -0.4272
12458TIP3    H258790   3.810   0.895   2.376  1.6803  0.3483  1.0479
12459TIP3   OH258791   2.138   6.329   3.587  0.2968  0.5372 -0.1496
12459TIP3    H158792   2.132   6.240   3.552  0.1539  0.6450 -0.3996
12459TIP3    H258793   2.205   6.371   3.533  1.3795  0.1563  0.8811
12460TIP3   OH258794   3.077   2.687  15.131  0.2943 -0.0312  0.4944
12460TIP3    H158795   3.171   2.669  15.129  0.1872 -0.4743 -0.7110
12460TIP3    H258796   3.042   2.625  15.195  0.7094 -0.4038  0.3549
12461TIP3   OH258797   2.209   5.201   4.768 -0.4715  0.1175 -0.3635
12461TIP3    H158798   2.128   5.174   4.810 -0.1367  0.9750  0.8587
12461TIP3    H258799   2.233   5.283   4.812  2.7228 -1.7465  1.5920
12462TIP3   OH258800   6.063   4.461  13.656  0.0391  0.2596  0.0993
12462TIP3    H158801   6.106   4.427  13.734 -0.8110  1.2535  1.0173
12462TIP3    H258802   6.080   4.555  13.658 -0.8460  0.4373 -0.3725
12463TIP3   OH258803   4.571   4.354   4.269 -0.2865  0.4059  0.2539
12463TIP3    H158804   4.535   4.430   4.315 -0.2661  0.2343  0.5496
12463TIP3    H258805   4.656   4.339   4.310  1.2011  2.2570 -1.9806
12464TIP3   OH258806   5.503   6.374   0.372 -0.0044  0.6654 -0.8890
12464TIP3    H158807   5.458   6.428   0.437  0.9459 -0.7035  0.9442
12464TIP3    H258808   5.441   6.305   0.351  1.4673 -1.7989  2.3789
12465TIP3   OH258809   2.787   5.489   1.526 -0.4315  0.5343 -0.4314
12465TIP3    H158810   2.822   5.577   1.512  1.5466  0.1410  1.6811
12465TIP3    H258811   2.858   5.431   1.499 -1.3964 -0.4067 -0.9742
12466TIP3   OH258812   2.516   5.946   3.040 -0.0768 -0.7819 -0.8324
12466TIP3    H158813   2.433   5.916   3.078 -0.4142 -0.1695 -1.0618
12466TIP3    H258814   2.567   5.867   3.026 -0.1942 -1.0662  0.3301
12467TIP3   OH258815   2.235   4.738  12.693 -0.0292  0.3692 -0.1147
12467TIP3    H158816   2.226   4.705  12.783 -1.1251  0.1428 -0.2967
12467TIP3    H258817   2.287   4.818  12.703  0.3315  0.0540  0.6533
12468TIP3   OH258818   5.944   0.315  11.150  0.1484  0.3190 -0.5872
12468TIP3    H158819   5.918   0.364  11.072 -1.9414 -1.8523 -1.3212
12468TIP3    H258820   6.008   0.252  11.118  2.4054  2.1098  0.2523
12469TIP3   OH258821   3.320   0.369  15.632  0.5375 -0.1865 -0.1451
12469TIP3    H158822   3.395   0.423  15.658  1.5826 -2.4948  1.9057
12469TIP3    H258823   3.360   0.287  15.602 -1.0679 -0.3832 -1.7773
12470TIP3   OH258824   4.878   4.184  12.101  0.0002  0.3796  0.5354
12470TIP3    H158825   4.786   4.186  12.074  0.5153  1.5003 -1.2445
12470TIP3    H258826   4.901   4.091  12.097 -1.0443  0.0856  1.0125
12471TIP3   OH258827   1.440   2.938   3.285 -0.1909  0.0626  0.4162
12471TIP3    H158828   1.349   2.931   3.314 -0.1826  1.9494  0.9674
12471TIP3    H258829   1.434   2.955   3.191 -0.4676  1.3258  0.6490
12472TIP3   OH258830   2.262   2.144  14.464 -0.5741 -0.2134  0.4924
12472TIP3    H158831   2.308   2.199  14.402  2.2768 -1.8030  1.1290
12472TIP3    H258832   2.216   2.080  14.409 -1.9972  1.3099 -0.1357
12473TIP3   OH258833   5.818   6.392  11.290 -0.1651 -0.0635  0.1993
12473TIP3    H158834   5.742   6.438  11.253 -1.5185 -1.2915  1.4104
12473TIP3    H258835   5.819   6.418  11.383  1.4868  0.6993 -0.0023
12474TIP3   OH258836   4.694   2.307  14.901 -0.3677 -0.1182  0.0816
12474TIP3    H158837   4.711   2.393  14.938  1.1687 -0.5826  0.4737
12474TIP3    H258838   4.712   2.316  14.808  1.4946 -0.4411  0.3897
12475TIP3   OH258839   3.162   5.559  15.710 -0.2268 -0.2894  0.2182
12475TIP3    H158840   3.160   5.492  15.779  0.8627  0.4267  0.9638
12475TIP3    H258841   3.154   5.509  15.628 -0.1437 -1.2739  0.7996
12476TIP3   OH258842   0.949   0.066  16.645 -0.2356  0.2408 -0.2041
12476TIP3    H158843   0.929   0.111  16.727  0.3888 -0.6879  0.4624
12476TIP3    H258844   1.038   0.093  16.623 -0.5268  0.7564 -0.7539
12477TIP3   OH258845   6.439   2.862   3.426 -0.1449 -0.0785  0.3955
12477TIP3    H158846   6.479   2.944   3.397  2.9877 -1.9084 -0.7225
12477TIP3    H258847   6.403   2.824   3.346  0.5764 -0.9544  0.4908
12478TIP3   OH258848   5.294   1.334   1.750  0.5547 -0.3326  0.3947
12478TIP3    H158849   5.296   1.280   1.672  1.5529  0.8488 -0.4114
12478TIP3    H258850   5.205   1.370   1.752  1.2795  1.7095 -1.6654
12479TIP3   OH258851   1.399   2.940   6.070  0.9803  0.6649  0.1822
12479TIP3    H158852   1.304   2.950   6.072  0.7114 -1.7734  1.1624
12479TIP3    H258853   1.426   2.939   6.162  1.7811 -0.0947 -0.0474
12480TIP3   OH258854   3.596   1.327   0.151 -0.2798 -0.2750 -0.2431
12480TIP3    H158855   3.598   1.246   0.100 -0.8402 -0.4043 -0.0522
12480TIP3    H258856   3.627   1.394   0.090  2.5720 -1.0080  0.2896
12481TIP3   OH258857   0.190   6.248   0.596  0.3037  0.6570  0.4028
12481TIP3    H158858   0.280   6.229   0.623  0.4904  0.0321 -0.6391
12481TIP3    H258859   0.140   6.248   0.678  1.4990  2.4532  1.1640
12482TIP3   OH258860   6.453   1.616  11.802 -0.1193  0.0088  0.1787
12482TIP3    H158861   6.538   1.577  11.826  0.1873  1.1803  1.0803
12482TIP3    H258862   6.388   1.561  11.847  0.0695 -1.5556 -1.3983
12483TIP3   OH258863   0.803   3.563  11.792 -0.3060 -0.3073 -0.0339
12483TIP3    H158864   0.754   3.644  11.792 -0.2119 -0.2270  1.2680
12483TIP3    H258865   0.789   3.525  11.705 -2.1566  0.0047  0.1177
12484TIP3   OH258866   6.059   2.850  12.230 -0.0449  0.2048  0.5341
12484TIP3    H158867   5.993   2.855  12.161  0.8612  0.1469 -0.3505
12484TIP3    H258868   6.075   2.756  12.242 -2.0885  0.1026  2.6588
12485TIP3   OH258869   6.323   6.252  14.065 -0.4920  0.3347 -0.0004
12485TIP3    H158870   6.274   6.287  13.991  1.1973  0.3438 -1.1407
12485TIP3    H258871   6.270   6.274  14.142 -1.6983  1.3353 -1.1004
12486TIP3   OH258872   6.424   3.116   4.601  0.1146 -0.3177 -0.2074
12486TIP3    H158873   6.359   3.184   4.617  0.7957 -0.2090  2.3294
12486TIP3    H258874   6.506   3.154   4.631  0.7458 -1.7596 -0.0768
12487TIP3   OH258875   4.284   4.697   5.768 -0.7462 -0.2373 -0.2876
12487TIP3    H158876   4.217   4.651   5.818 -0.1557 -0.7758  0.0160
12487TIP3    H258877   4.353   4.632   5.754 -0.0398  0.4650 -0.1203
12488TIP3   OH258878   1.086   0.673  14.708  0.6160  0.1034  0.1434
12488TIP3    H158879   1.019   0.605  14.718  2.5046 -1.5354  2.3872
12488TIP3    H258880   1.044   0.742  14.657 -2.8587 -0.7438  1.7343
12489TIP3   OH258881   2.050   5.347   4.216  0.0816  0.6911 -0.2236
12489TIP3    H158882   2.050   5.252   4.203 -0.2744  0.7301 -0.5455
12489TIP3    H258883   2.060   5.359   4.310 -0.6031  0.3188 -0.1019
12490TIP3   OH258884   4.184   5.968   4.834  0.3717  0.1040 -0.2679
12490TIP3    H158885   4.150   5.967   4.923  1.2397 -0.5096  0.0608
12490TIP3    H258886   4.193   6.061   4.813 -0.7488  0.2640 -0.0794
12491TIP3   OH258887   1.107   6.730  13.545 -0.2019 -0.2807  0.3895
12491TIP3    H158888   1.050   6.789  13.594  0.5973  0.1688  0.7834
12491TIP3    H258889   1.172   6.700  13.609  0.5987 -0.0109 -0.2830
12492TIP3   OH258890   5.515   5.724  10.992  0.1837 -0.4463 -0.4645
12492TIP3    H158891   5.556   5.791  11.046 -0.3110 -0.8136  0.3846
12492TIP3    H258892   5.531   5.752  10.902  0.5192  0.4746 -0.1252
12493TIP3   OH258893   6.605   5.022  16.190  0.4645 -0.2165  0.3305
12493TIP3    H158894   6.546   5.080  16.238  0.4126  1.5244 -1.7726
12493TIP3    H258895   6.691   5.063  16.199  0.3146  0.6374 -1.7535
12494TIP3   OH258896   3.490   4.165  16.768 -0.0988 -0.4411 -0.5393
12494TIP3    H158897   3.468   4.072  16.771  0.4707 -0.6034 -1.0988
12494TIP3    H258898   3.464   4.192  16.680 -1.2556  0.1901 -0.0108
12495TIP3   OH258899   5.471   3.130   3.711 -0.6655  0.2425 -0.2807
12495TIP3    H158900   5.427   3.045   3.704  1.6400 -1.2437  2.1504
12495TIP3    H258901   5.411   3.184   3.762 -1.9322 -0.0779 -1.4128
12496TIP3   OH258902   5.903   0.866   2.648 -0.3021  0.0772  0.1908
12496TIP3    H158903   5.936   0.915   2.573 -1.8056  1.9914  0.7662
12496TIP3    H258904   5.973   0.803   2.668  1.2391  1.3455 -1.1376
12497TIP3   OH258905   4.557   1.430   1.983 -0.0893  0.4593  0.1232
12497TIP3    H158906   4.546   1.381   1.902  3.9165  1.2508 -1.0197
12497TIP3    H258907   4.507   1.511   1.970 -1.0517 -0.2572 -0.7325
12498TIP3   OH258908   0.296   4.677  16.590 -0.0411 -0.2628  0.2534
12498TIP3    H158909   0.278   4.656  16.499 -0.2599  3.1911 -0.5672
12498TIP3    H258910   0.387   4.709  16.590 -0.4299  0.8766  1.0299
12499TIP3   OH258911   2.820   5.953   0.591 -0.0608  0.3318 -0.1474
12499TIP3    H158912   2.849   5.895   0.661 -0.0981 -0.6896 -0.9703
12499TIP3    H258913   2.887   6.021   0.587  1.3611 -1.0902 -0.9097
12500TIP3   OH258914   4.854   4.951  14.223  0.0841  0.1551  0.1787
12500TIP3    H158915   4.833   4.963  14.316 -1.6624 -0.3106 -0.1367
12500TIP3    H258916   4.813   4.867  14.201  0.7859  0.1080 -0.9276
12501TIP3   OH258917   0.343   3.157   4.445 -0.1667 -0.0341 -0.4410
12501TIP3    H158918   0.297   3.185   4.524 -0.0549 -3.0559  0.7400
12501TIP3    H258919   0.409   3.225   4.431 -0.3674  0.6866  1.8898
12502TIP3   OH258920   0.363   2.267   2.822 -0.4351  0.1363 -0.4443
12502TIP3    H158921   0.441   2.261   2.766 -0.9702  1.7910 -1.3936
12502TIP3    H258922   0.331   2.177   2.827  1.1903 -0.4751 -0.5411
12503TIP3   OH258923   2.952   0.884  15.068 -0.1015 -0.0948  0.0489
12503TIP3    H158924   2.928   0.945  15.138 -1.7474  0.1263 -0.6723
12503TIP3    H258925   3.003   0.937  15.007 -1.7981  0.6815 -0.7333
12504TIP3   OH258926   6.679   5.574   5.652 -0.5706 -0.0842  0.6484
12504TIP3    H158927   6.628   5.645   5.614 -0.2267 -0.1214  0.1127
12504TIP3    H258928   6.759   5.616   5.685  0.0758 -0.3622 -0.5420
12505TIP3   OH258929   2.032   4.334   5.948 -0.3832 -0.2776  0.6198
12505TIP3    H158930   1.976   4.356   5.873 -0.6776 -0.1030  0.8897
12505TIP3    H258931   2.120   4.359   5.920 -0.2061 -1.9904 -0.3946
12506TIP3   OH258932   6.424   3.540   4.702  0.1449  0.5283 -0.0764
12506TIP3    H158933   6.416   3.468   4.764  3.7241 -0.1870 -0.3673
12506TIP3    H258934   6.399   3.501   4.618  3.0824 -0.7507 -0.4211
12507TIP3   OH258935   6.175   2.540   2.225 -0.8232 -0.5243 -0.3611
12507TIP3    H158936   6.265   2.532   2.257  0.0627 -0.6283 -2.7798
12507TIP3    H258937   6.151   2.631   2.242  0.4789  0.0529 -1.5806
12508TIP3   OH258938   3.379   4.099  11.691  0.2287 -0.2440  0.0362
12508TIP3    H158939   3.401   4.047  11.614 -1.6740 -1.2678  0.1578
12508TIP3    H258940   3.464   4.128  11.726  1.1971 -1.4340 -1.2799
12509TIP3   OH258941   4.326   3.140  12.571  0.0804  0.2002  0.6660
12509TIP3    H158942   4.395   3.181  12.622 -1.6602  3.0020  0.8553
12509TIP3    H258943   4.367   3.062  12.533  2.5675  0.3680  2.8875
12510TIP3   OH258944   6.561   5.322   3.930 -0.5613  0.2040  0.3242
12510TIP3    H158945   6.546   5.357   4.017  0.4544 -3.3090  2.0125
12510TIP3    H258946   6.474   5.303   3.896 -1.0981  3.5605 -0.3905
12511TIP3   OH258947   3.796   4.788  16.439  0.2865  0.5384  0.6818
12511TIP3    H158948   3.842   4.714  16.478  1.1541  1.2891  1.0938
12511TIP3    H258949   3.750   4.829  16.512 -0.0645  0.5049  0.4831
12512TIP3   OH258950   6.137   3.540   3.456 -0.7931 -0.4069 -0.5169
12512TIP3    H158951   6.098   3.622   3.427  1.0913  1.5963  2.3412
12512TIP3    H258952   6.065   3.491   3.495 -0.9733  2.2013  2.5401
12513TIP3   OH258953   6.643   5.697   4.029 -0.1365 -0.6430  0.2154
12513TIP3    H158954   6.555   5.705   4.064 -1.1697 -2.8831 -1.7073
12513TIP3    H258955   6.646   5.762   3.958 -0.1275 -0.3518  0.4815
12514TIP3   OH258956   0.729   5.964   5.687  0.2251  0.5307  0.5645
12514TIP3    H158957   0.743   6.008   5.770  3.0288 -3.3466  2.2677
12514TIP3    H258958   0.668   5.893   5.707 -0.3109  0.5148 -1.0406
12515TIP3   OH258959   2.444   4.773   0.570 -0.5226  0.3201 -0.1622
12515TIP3    H158960   2.517   4.789   0.630 -0.9704 -0.3739  0.5703
12515TIP3    H258961   2.437   4.677   0.566 -0.4997  0.3504 -1.3206
12516TIP3   OH258962   3.798   6.638  11.954 -0.2943 -0.0294 -0.2304
12516TIP3    H158963   3.756   6.672  12.033 -0.2128 -0.8196  0.1593
12516TIP3    H258964   3.877   6.691  11.944  0.3060 -0.6912  0.8853
12517TIP3   OH258965   5.752   5.644   2.854  0.0883  0.2363 -0.2755
12517TIP3    H158966   5.823   5.619   2.914 -0.8745 -1.9465  0.0326
12517TIP3    H258967   5.779   5.727   2.817  1.2102  1.1362  2.4263
12518TIP3   OH258968   3.711   1.706  12.706  0.4494  0.0705 -0.4869
12518TIP3    H158969   3.617   1.689  12.696  0.2211  0.8245  0.2637
12518TIP3    H258970   3.752   1.620  12.700 -0.5745 -0.6742  2.3689
12519TIP3   OH258971   5.629   6.346   4.615  0.3330  0.4365 -0.1366
12519TIP3    H158972   5.641   6.252   4.621  0.5498  0.5350  1.2347
12519TIP3    H258973   5.547   6.357   4.566  0.3317 -0.4546 -0.3411
12520TIP3   OH258974   4.794   3.711   2.622  0.0562  0.8032 -0.5110
12520TIP3    H158975   4.749   3.710   2.706 -0.7914 -3.5595 -0.9069
12520TIP3    H258976   4.729   3.747   2.561 -0.5848  0.6623  0.0817
12521TIP3   OH258977   1.702   0.267   3.852 -0.8690 -1.1565  0.0197
12521TIP3    H158978   1.638   0.321   3.898  0.4049  0.2092  0.1886
12521TIP3    H258979   1.671   0.177   3.867 -2.1845 -0.5755  0.9423
12522TIP3   OH258980   3.773   0.931  14.105 -0.4160  0.5261  0.0359
12522TIP3    H158981   3.753   0.994  14.174  0.7944  0.6429  0.2803
12522TIP3    H258982   3.854   0.962  14.066  0.4029 -1.0885  0.4108
12523TIP3   OH258983   1.693   1.533   4.123  0.7415  0.6021  0.2468
12523TIP3    H158984   1.780   1.538   4.163  0.4295  1.0107  0.8915
12523TIP3    H258985   1.646   1.608   4.159 -0.4302 -0.5901  1.2580
12524TIP3   OH258986   3.744   3.039  15.334 -1.5168 -0.4141  0.3670
12524TIP3    H158987   3.686   3.104  15.295 -0.0658  1.3563  1.1369
12524TIP3    H258988   3.771   3.077  15.418  1.7009 -0.6581 -0.5027
12525TIP3   OH258989   5.986   6.687   4.410  0.1745 -0.6048 -0.2889
12525TIP3    H158990   6.059   6.723   4.459  0.9370 -1.1604 -1.0108
12525TIP3    H258991   5.933   6.763   4.386  1.2511 -0.0662 -0.9553
12526TIP3   OH258992   1.096   0.481   1.816 -0.0536 -0.2443 -0.6094
12526TIP3    H158993   1.063   0.427   1.744  0.0011  0.2771 -1.0364
12526TIP3    H258994   1.061   0.568   1.798 -0.5710 -0.2541  0.3606
12527TIP3   OH258995   4.765   2.985   3.474 -0.1831  0.1187  0.2344
12527TIP3    H158996   4.701   2.935   3.525 -0.2354 -0.0124  0.0416
12527TIP3    H258997   4.757   2.951   3.385  0.0083  0.2481  0.1663
12528TIP3   OH258998   5.719   2.992   3.754  0.6595  0.2201  0.3776
12528TIP3    H158999   5.654   3.060   3.740  1.0479  0.6408  0.6135
12528TIP3    H259000   5.736   2.956   3.667  0.1835  0.1718  0.3042
12529TIP3   OH259001   0.716   6.217   6.006  0.1965 -0.7888  0.5417
12529TIP3    H159002   0.809   6.208   6.029  0.8651  1.8376 -0.8957
12529TIP3    H259003   0.693   6.306   6.035 -1.2177 -0.5566 -1.2070
12530TIP3   OH259004   3.274   1.408   6.417  0.5654 -0.2022  0.3070
12530TIP3    H159005   3.324   1.328   6.430 -0.3020 -0.8574 -0.3367
12530TIP3    H259006   3.185   1.386   6.447  0.5129  0.7617  0.8867
12531TIP3   OH259007   5.772   1.022  15.137  0.0926  0.6829 -0.1836
12531TIP3    H159008   5.716   0.950  15.168  0.0892 -0.4322 -2.7006
12531TIP3    H259009   5.839   1.030  15.205 -0.8564 -0.5960  0.9438
12532TIP3   OH259010   5.816   6.580  16.579 -0.1378 -0.4797 -0.0791
12532TIP3    H159011   5.778   6.534  16.504  0.7298 -1.6095  0.1589
12532TIP3    H259012   5.745   6.636  16.611 -1.0199 -1.1839 -0.7644
12533TIP3   OH259013   3.350   5.438  12.788  0.4093  0.2862  0.6539
12533TIP3    H159014   3.354   5.356  12.739  0.5576 -0.3460  1.6930
12533TIP3    H259015   3.439   5.472  12.787  0.5600 -0.0836  1.0598
12534TIP3   OH259016   1.521   6.266  17.216  0.5907 -0.3085  0.0365
12534TIP3    H159017   1.516   6.205  17.143 -2.9715  0.8918 -0.8342
12534TIP3    H259018   1.467   6.227  17.285 -2.1088  1.9412 -0.6954
12535TIP3   OH259019   1.300   1.286  13.964  0.2743  0.2057 -0.1362
12535TIP3    H159020   1.329   1.203  13.925 -0.8383  0.1240 -0.7893
12535TIP3    H259021   1.365   1.304  14.032 -0.1719 -1.8416  0.8716
12536TIP3   OH259022   2.802   3.246   3.862  0.6846 -0.0602 -0.2676
12536TIP3    H159023   2.800   3.275   3.771 -0.0595 -0.8373 -0.5104
12536TIP3    H259024   2.842   3.318   3.910 -2.1228  1.8400 -0.6755
12537TIP3   OH259025   5.629   2.811   5.904  0.2168  0.2058 -0.5447
12537TIP3    H159026   5.600   2.755   5.977  0.5126  1.4238  0.5219
12537TIP3    H259027   5.696   2.758   5.859  0.6303 -0.2335  0.5637
12538TIP3   OH259028   1.715   5.446   2.002  0.1152 -0.0073  0.0216
12538TIP3    H159029   1.751   5.534   2.012 -0.0919  0.0399  0.3733
12538TIP3    H259030   1.775   5.390   2.051 -0.5106  0.1280  0.9534
12539TIP3   OH259031   0.381   1.277  13.130 -0.1928  0.5938  0.1759
12539TIP3    H159032   0.391   1.185  13.153  2.2413  0.9808  0.7465
12539TIP3    H259033   0.335   1.316  13.204 -1.4780 -0.1809 -0.1848
12540TIP3   OH259034   1.792   0.915  12.852  0.7339  1.1587  0.2075
12540TIP3    H159035   1.878   0.904  12.894  1.9133  0.7850 -2.2312
12540TIP3    H259036   1.812   0.953  12.767 -1.2478 -1.8183 -1.6605
12541TIP3   OH259037   2.940   3.721  13.507 -0.2690 -0.5577 -0.3523
12541TIP3    H159038   2.928   3.726  13.412 -0.0815 -0.8064 -0.3885
12541TIP3    H259039   3.010   3.784  13.525 -1.0748  0.3154 -0.2378
12542TIP3   OH259040   0.865   1.575   3.047  0.5393  0.3070 -0.0264
12542TIP3    H159041   0.913   1.545   2.969 -1.4078 -0.1694 -1.0715
12542TIP3    H259042   0.872   1.671   3.044 -0.1097  0.3222 -1.1667
12543TIP3   OH259043   0.223   5.216   0.675  0.5829  0.3382 -0.3198
12543TIP3    H159044   0.160   5.217   0.604 -0.5908 -1.8423  0.6457
12543TIP3    H259045   0.308   5.228   0.632 -0.3502  1.8835 -1.7636
12544TIP3   OH259046   4.383   0.863  11.103  0.5594  0.2385 -0.7939
12544TIP3    H159047   4.295   0.894  11.080 -0.6884  0.4274  3.6820
12544TIP3    H259048   4.382   0.770  11.082 -1.4286 -0.1714  0.9182
12545TIP3   OH259049   5.971   2.513   1.375  0.2989  0.2209 -0.3225
12545TIP3    H159050   6.014   2.575   1.434 -0.6321 -0.0873  0.7031
12545TIP3    H259051   5.992   2.427   1.413 -1.1995  0.0715  0.1809
12546TIP3   OH259052   0.224   1.317   2.850 -0.1939 -0.4280  0.6906
12546TIP3    H159053   0.256   1.232   2.823 -0.8971 -0.5049  0.0677
12546TIP3    H259054   0.146   1.298   2.902 -0.4053 -0.1648  0.4737
12547TIP3   OH259055   6.316   4.680  14.999  0.4540 -0.0405 -0.3590
12547TIP3    H159056   6.300   4.620  14.926 -2.1134  1.0198 -0.7133
12547TIP3    H259057   6.280   4.763  14.970  0.2448  0.6307  1.7695
12548TIP3   OH259058   1.900   4.663  16.705 -0.2852 -0.3875 -0.3252
12548TIP3    H159059   1.974   4.605  16.686 -0.1814 -0.3049 -0.1806
12548TIP3    H259060   1.911   4.736  16.644  0.0977 -0.0786  0.1135
12549TIP3   OH259061   5.277   2.262  15.430  0.1936  0.6717  0.3735
12549TIP3    H159062   5.217   2.336  15.433 -0.0911  0.4778 -0.3390
12549TIP3    H259063   5.356   2.297  15.388 -0.6314  0.1196 -1.7183
12550TIP3   OH259064   5.338   5.847   2.877  0.3636  0.7169 -0.0972
12550TIP3    H159065   5.371   5.860   2.788  0.4565 -1.4415 -0.4039
12550TIP3    H259066   5.409   5.803   2.923  0.3672  1.9270  1.1142
12551TIP3   OH259067   4.300   5.563  13.398  0.3743 -0.7082 -0.1176
12551TIP3    H159068   4.270   5.506  13.328  0.9366 -0.4079 -0.6049
12551TIP3    H259069   4.345   5.505  13.459 -2.6822 -1.4588  1.5276
12552TIP3   OH259070   6.732   4.202  12.906 -0.2890 -0.1153 -0.0364
12552TIP3    H159071   6.729   4.132  12.842 -0.6445 -1.9743  1.9548
12552TIP3    H259072   6.640   4.227  12.919 -0.4322 -1.3449  1.4295
12553TIP3   OH259073   5.633   6.779  16.625 -0.0483 -0.1353  0.2709
12553TIP3    H159074   5.600   6.830  16.551  0.4388 -0.2612 -0.0371
12553TIP3    H259075   5.624   6.838  16.700  1.9469  0.9977 -0.3396
12554TIP3   OH259076   5.631   3.305  16.810  0.1122  0.6610 -0.1237
12554TIP3    H159077   5.665   3.321  16.899  1.7082 -1.3816 -0.3536
12554TIP3    H259078   5.694   3.349  16.753  1.2391 -1.3068 -0.4320
12555TIP3   OH259079   6.121   1.061   4.979 -0.3141 -0.3501  0.1658
12555TIP3    H159080   6.204   1.081   5.022 -0.5245 -0.4198  0.6035
12555TIP3    H259081   6.068   1.018   5.047  0.0017 -2.0770 -0.6481
12556TIP3   OH259082   3.514   1.094   3.196  0.0290  0.4456 -0.6315
12556TIP3    H159083   3.443   1.119   3.255 -0.3517  0.7257 -1.2163
12556TIP3    H259084   3.593   1.106   3.248 -0.4692 -2.0365  0.8116
12557TIP3   OH259085   5.461   4.608  13.783 -0.6477 -0.3201  0.1281
12557TIP3    H159086   5.477   4.561  13.865 -1.1471 -1.2977 -0.3345
12557TIP3    H259087   5.492   4.549  13.715 -1.5594 -0.1147 -0.4740
12558TIP3   OH259088   6.097   1.938  15.088 -0.0233  0.3982  0.4186
12558TIP3    H159089   6.046   1.996  15.145 -0.3373  2.2376 -1.6225
12558TIP3    H259090   6.037   1.916  15.017  0.3354 -1.8983  0.7888
12559TIP3   OH259091   5.697   4.603  12.961 -0.7251  0.3207 -0.6418
12559TIP3    H159092   5.666   4.683  12.919  1.5998  1.3721 -0.4040
12559TIP3    H259093   5.642   4.593  13.038 -1.7454  1.0941 -1.2629
12560TIP3   OH259094   4.983   0.131  13.546 -0.2043 -0.2359 -0.6155
12560TIP3    H159095   5.035   0.112  13.624 -1.3313 -1.2176 -0.0921
12560TIP3    H259096   4.892   0.128  13.577 -0.6506 -0.5232 -1.9492
12561TIP3   OH259097   2.199   6.766   3.745  0.0012 -0.3186  0.2105
12561TIP3    H159098   2.176   6.782   3.836  0.8738  2.1329  0.0644
12561TIP3    H259099   2.116   6.756   3.700 -0.4555 -0.8770  1.1669
12562TIP3   OH259100   2.036   1.361  14.226 -0.5133  0.3526  0.0436
12562TIP3    H159101   2.104   1.306  14.264  0.5276  1.6999  0.1377
12562TIP3    H259102   2.048   1.352  14.131  0.4174  1.3488  0.0635
12563TIP3   OH259103   6.767   6.397   5.971 -0.0604 -0.3303 -0.2206
12563TIP3    H159104   6.677   6.379   5.996 -0.0366  1.2616  1.1023
12563TIP3    H259105   6.815   6.318   5.997 -0.6064 -0.0295  1.7462
12564TIP3   OH259106   0.140   0.561  16.891 -0.2862  0.2048 -0.5264
12564TIP3    H159107   0.106   0.645  16.922 -1.2063 -0.0036 -0.9422
12564TIP3    H259108   0.147   0.507  16.970 -0.2301  0.4935 -0.3357
12565TIP3   OH259109   0.769   5.945   0.099 -0.4309 -0.5943 -0.1099
12565TIP3    H159110   0.770   6.027   0.149 -2.0729 -1.0391  0.6693
12565TIP3    H259111   0.827   5.962   0.025 -1.2480  1.4969 -0.3111
12566TIP3   OH259112   1.919   0.516   4.778  0.2985 -0.2998 -0.0250
12566TIP3    H159113   1.859   0.541   4.848  1.4117  1.5860  0.2926
12566TIP3    H259114   1.985   0.585   4.777  1.8444 -1.7572 -1.1189
12567TIP3   OH259115   3.665   1.495  16.308 -0.5934  0.1908 -0.3474
12567TIP3    H159116   3.578   1.464  16.334 -0.5905  2.0878  2.0855
12567TIP3    H259117   3.724   1.459  16.374 -0.1966  2.7573  0.7575
12568TIP3   OH259118   0.760   0.341   0.484  0.4298  0.2938  0.3176
12568TIP3    H159119   0.667   0.365   0.482 -0.1496 -1.8751  0.3256
12568TIP3    H259120   0.806   0.422   0.460 -1.5417  0.9259 -1.4518
12569TIP3   OH259121   5.361   0.001   1.142  0.1145 -0.2677  0.2265
12569TIP3    H159122   5.333   0.090   1.119 -0.9710 -0.1603  1.8842
12569TIP3    H259123   5.456   0.004   1.136  0.0044  0.5029 -1.4846
12570TIP3   OH259124   1.197   4.886  10.597 -0.3025  0.2403 -0.1272
12570TIP3    H159125   1.119   4.938  10.577 -0.8195 -1.0291 -1.4986
12570TIP3    H259126   1.173   4.837  10.676 -0.4709  0.6985  0.1102
12571TIP3   OH259127   4.199   2.650  13.285  0.1265 -0.0336 -0.6281
12571TIP3    H159128   4.283   2.664  13.242  0.1939  1.1235 -0.1379
12571TIP3    H259129   4.144   2.721  13.254  0.0770  0.6332  0.9293
12572TIP3   OH259130   3.454   6.284   1.860  0.5218 -0.4566  0.2937
12572TIP3    H159131   3.377   6.306   1.914  0.0810  0.2429 -0.6099
12572TIP3    H259132   3.450   6.345   1.787  2.6610  0.4243  0.8871
12573TIP3   OH259133   3.420   6.260  11.486  0.3390 -0.6078 -0.1516
12573TIP3    H159134   3.450   6.338  11.531  0.5636  1.1527 -3.2233
12573TIP3    H259135   3.328   6.277  11.466 -0.8825 -3.0122  2.9600
12574TIP3   OH259136   2.270   3.026  15.007  0.0307  0.0511  0.1988
12574TIP3    H159137   2.344   2.966  15.008 -0.5165 -0.6305  0.4306
12574TIP3    H259138   2.309   3.113  14.996  0.9596 -0.1563  1.7384
12575TIP3   OH259139   4.608   6.685  13.660  0.2615  0.2054 -0.6668
12575TIP3    H159140   4.618   6.681  13.564 -1.4266  0.9678 -0.8922
12575TIP3    H259141   4.616   6.778  13.681  1.9975 -0.0986  0.1163
12576TIP3   OH259142   5.349   6.012   3.131 -0.2828  0.1026  0.6066
12576TIP3    H159143   5.283   6.054   3.186  0.3455 -0.9855  2.2268
12576TIP3    H259144   5.304   5.936   3.094 -0.3345  0.1364  0.5996
12577TIP3   OH259145   3.568   1.350   1.103  0.2703 -0.1744  0.5267
12577TIP3    H159146   3.614   1.385   1.179 -0.5031 -1.3814  1.5561
12577TIP3    H259147   3.477   1.380   1.113  0.2944  0.2144 -0.2815
12578TIP3   OH259148   5.511   0.435  12.873 -0.4632 -0.1458 -0.5747
12578TIP3    H159149   5.502   0.368  12.805 -2.0191  0.4656 -0.9841
12578TIP3    H259150   5.470   0.396  12.951  0.0242 -0.2755 -0.3797
12579TIP3   OH259151   4.169   6.528   4.272  0.0243  0.0464  0.2551
12579TIP3    H159152   4.093   6.554   4.220 -0.8102  0.0000  1.4464
12579TIP3    H259153   4.220   6.472   4.213 -1.3658 -0.7450 -0.2154
12580TIP3   OH259154   4.514   2.779  15.914 -0.2102  0.0789  0.3622
12580TIP3    H159155   4.493   2.711  15.850 -0.9542 -1.9139  2.6299
12580TIP3    H259156   4.520   2.860  15.863 -2.4956 -1.1482 -1.9521
12581TIP3   OH259157   4.968   2.923   2.138 -0.4025 -0.3315 -0.2344
12581TIP3    H159158   5.019   2.874   2.203 -1.4535 -2.0372 -0.6538
12581TIP3    H259159   4.963   2.864   2.062 -2.4958  0.0270 -0.4011
12582TIP3   OH259160   2.440   3.070   0.254  0.0355  0.4090  0.1256
12582TIP3    H159161   2.457   2.978   0.235  0.3751  0.3858  0.5277
12582TIP3    H259162   2.491   3.117   0.187 -0.8084  0.3015 -0.6074
12583TIP3   OH259163   2.053   1.784  13.201  0.2038  0.3476 -0.4531
12583TIP3    H159164   2.012   1.779  13.287 -0.8588  1.4474 -0.8767
12583TIP3    H259165   2.121   1.717  13.203  0.7969  0.9829  1.5411
12584TIP3   OH259166   2.229   0.928  12.406  0.9151  0.0530 -0.4588
12584TIP3    H159167   2.254   0.929  12.498 -0.5741 -0.9229 -0.0143
12584TIP3    H259168   2.225   1.020  12.381  2.7522  0.2788  0.0400
12585TIP3   OH259169   6.638   1.327   0.540 -0.6446 -0.4871  0.2263
12585TIP3    H159170   6.616   1.414   0.574 -0.4869 -0.7820  1.1112
12585TIP3    H259171   6.677   1.343   0.455 -1.2674  0.2645  0.0799
12586TIP3   OH259172   2.987   5.242   6.013 -0.2045  0.1188 -0.6807
12586TIP3    H159173   2.930   5.174   6.051 -0.7020  1.0145  0.2201
12586TIP3    H259174   3.025   5.286   6.089  1.2436 -0.0903 -1.2832
12587TIP3   OH259175   2.453   2.153   2.005 -0.3777  0.1038 -0.3191
12587TIP3    H159176   2.455   2.161   2.101  1.2594 -0.6629 -0.2799
12587TIP3    H259177   2.386   2.216   1.978  0.3213  1.5416  1.2015
12588TIP3   OH259178   5.845   3.614   2.608 -0.4965 -0.2090  0.0715
12588TIP3    H159179   5.859   3.697   2.654 -0.7690  0.2430 -0.6539
12588TIP3    H259180   5.755   3.618   2.578 -1.1800 -1.6636  1.8018
12589TIP3   OH259181   1.227   3.252   1.988  0.1095 -0.2501  0.0718
12589TIP3    H159182   1.133   3.254   2.000  0.2594  3.1752  1.1306
12589TIP3    H259183   1.240   3.234   1.895 -1.5985  0.5520 -0.3245
12590TIP3   OH259184   2.577   1.693   6.073 -0.2127  0.2197  0.8348
12590TIP3    H159185   2.629   1.770   6.095 -0.3449  0.4908  0.2024
12590TIP3    H259186   2.486   1.722   6.079 -0.2412  0.5936 -1.0867
12591TIP3   OH259187   6.676   4.023  14.874  1.0508 -0.0525  0.1749
12591TIP3    H159188   6.605   4.026  14.810 -0.4720 -1.2792  1.7577
12591TIP3    H259189   6.747   4.072  14.833  0.7240 -2.1734 -3.1586
12592TIP3   OH259190   3.517   0.314  13.716  0.4084 -0.4444 -0.3856
12592TIP3    H159191   3.444   0.376  13.718 -0.4032 -1.4480  1.1792
12592TIP3    H259192   3.476   0.228  13.704  1.2579 -1.1123  1.3674
12593TIP3   OH259193   4.332   4.396   1.829  0.3489  0.0966 -0.4291
12593TIP3    H159194   4.350   4.311   1.871  0.5756  0.5609  0.4322
12593TIP3    H259195   4.268   4.376   1.761  1.0324 -0.9046 -0.7784
12594TIP3   OH259196   4.590   0.383  13.228  0.0228 -0.0011  0.0795
12594TIP3    H159197   4.632   0.427  13.302 -0.4879 -1.2654  1.1450
12594TIP3    H259198   4.577   0.293  13.258 -1.1842 -0.2489 -1.1426
12595TIP3   OH259199   0.900   2.831   1.657 -0.3742  0.3198  0.7744
12595TIP3    H159200   0.953   2.908   1.677  0.7772 -0.5187  0.9827
12595TIP3    H259201   0.903   2.824   1.561 -0.4140  0.4809  0.7606
12596TIP3   OH259202   6.183   4.237   1.209  0.0378 -0.3366 -0.3172
12596TIP3    H159203   6.140   4.315   1.243  0.0756 -1.0307  1.3616
12596TIP3    H259204   6.117   4.195   1.154 -0.6295 -0.1081  0.2926
12597TIP3   OH259205   3.929   2.247   4.944  0.0082 -0.1112 -0.2566
12597TIP3    H159206   4.012   2.202   4.928  0.2488  0.0197  0.6186
12597TIP3    H259207   3.945   2.338   4.919  1.2277  0.7083  3.2905
12598TIP3   OH259208   4.349   1.579   1.018  0.0117  0.0931  0.4662
12598TIP3    H159209   4.326   1.554   1.107  1.4704 -0.6064  0.6651
12598TIP3    H259210   4.426   1.635   1.028 -1.1517  1.8682 -0.2216
12599TIP3   OH259211   5.057   5.347  14.823 -0.1770 -0.2091  0.0776
12599TIP3    H159212   5.037   5.433  14.785  0.1662  0.1668  0.7492
12599TIP3    H259213   5.000   5.287  14.775 -1.4546  0.5817  0.5833
12600TIP3   OH259214   4.126   0.790  10.208 -0.0207  0.3952 -0.7199
12600TIP3    H159215   4.071   0.868  10.215 -0.0847  0.4754 -1.8793
12600TIP3    H259216   4.066   0.717  10.225 -0.2340  0.5405 -0.8419
12601TIP3   OH259217   0.695   2.147  16.019 -0.4034 -0.1631  0.3745
12601TIP3    H159218   0.681   2.184  15.932  0.2979  1.2480  0.8457
12601TIP3    H259219   0.786   2.117  16.018  0.1440  1.3636  1.1265
12602TIP3   OH259220   2.575   3.296   4.008  0.4249  0.5399 -0.0282
12602TIP3    H159221   2.628   3.352   4.065 -0.2981  0.0431  1.1498
12602TIP3    H259222   2.635   3.268   3.939  1.2702  1.2895  0.3970
12603TIP3   OH259223   5.916   4.102  11.524  0.4001  0.2773  0.3349
12603TIP3    H159224   5.828   4.141  11.520  1.6124  3.2488  1.4056
12603TIP3    H259225   5.938   4.084  11.433 -0.6109  1.1540 -0.0971
12604TIP3   OH259226   4.281   2.865   3.398  0.2197 -0.7065  0.3712
12604TIP3    H159227   4.368   2.872   3.357  0.0433  0.2304  0.1473
12604TIP3    H259228   4.221   2.897   3.331 -0.1507  0.0919  1.0730
12605TIP3   OH259229   2.656   2.945  11.252  0.5664  0.1685  0.6008
12605TIP3    H159230   2.684   3.036  11.252 -0.0611  0.3612  0.3002
12605TIP3    H259231   2.592   2.939  11.323 -0.4326  0.2839 -0.2882
12606TIP3   OH259232   4.372   1.997   3.153 -0.3566 -0.2794  0.3652
12606TIP3    H159233   4.443   1.996   3.218  0.8486 -0.5083 -0.9389
12606TIP3    H259234   4.361   2.089   3.131  1.3207 -0.4858 -1.3557
12607TIP3   OH259235   3.070   0.268   3.671 -0.5377  0.0098  0.4773
12607TIP3    H159236   3.005   0.302   3.733 -1.0375  0.8164 -0.4696
12607TIP3    H259237   3.018   0.218   3.607  0.1019 -1.7999  1.3584
12608TIP3   OH259238   3.763   6.606  14.960 -0.5936 -0.1624 -0.0815
12608TIP3    H159239   3.686   6.586  15.013 -0.4550 -0.8715 -0.1435
12608TIP3    H259240   3.772   6.701  14.966 -0.8274 -0.1911  0.8267
12609TIP3   OH259241   5.629   5.167   1.342  0.0447 -0.3275  0.1804
12609TIP3    H159242   5.666   5.189   1.427  1.1681 -0.4730 -0.2700
12609TIP3    H259243   5.576   5.089   1.359  0.4890 -0.5161  0.6945
12610TIP3   OH259244   5.622   0.410   1.299  0.0063 -0.1957 -0.0844
12610TIP3    H159245   5.705   0.409   1.348  0.1841 -1.2365 -0.3920
12610TIP3    H259246   5.596   0.319   1.293 -0.3670 -0.0289 -1.3413
12611TIP3   OH259247   1.693   1.513  16.623 -0.4103  0.5443  0.5093
12611TIP3    H159248   1.721   1.426  16.652  0.4524  0.7511  0.3335
12611TIP3    H259249   1.698   1.568  16.701 -0.3094  0.5827  0.4754
12612TIP3   OH259250   1.865   0.282   0.201  0.4548  0.2903  0.1180
12612TIP3    H159251   1.836   0.360   0.154  0.4038  0.3332  0.2211
12612TIP3    H259252   1.902   0.226   0.133  1.4212  0.8305  0.1955
12613TIP3   OH259253   6.208   2.375   0.714  0.1060 -0.6006 -0.1607
12613TIP3    H159254   6.156   2.317   0.769 -0.1629 -0.2141 -0.0004
12613TIP3    H259255   6.157   2.456   0.710 -0.1159 -0.7834 -1.3728
12614TIP3   OH259256   2.648   5.002   5.421 -0.4143 -0.1328  0.0621
12614TIP3    H159257   2.714   5.027   5.485  0.8570  0.6498 -1.5415
12614TIP3    H259258   2.648   5.072   5.356 -2.3801 -0.4334 -0.3104
12615TIP3   OH259259   0.776   1.774   4.811 -0.2524  0.9586  0.4306
12615TIP3    H159260   0.710   1.833   4.846 -1.0802  0.5711 -0.4777
12615TIP3    H259261   0.854   1.829   4.801 -0.8330  1.7478  0.1895
12616TIP3   OH259262   2.451   0.677   3.288 -0.0853 -0.1561 -0.0307
12616TIP3    H159263   2.387   0.683   3.359 -0.8613 -2.7265 -0.4496
12616TIP3    H259264   2.441   0.759   3.239 -1.6332  0.3393  1.0840
12617TIP3   OH259265   6.118   1.930  11.514 -0.1439  0.1184 -0.0726
12617TIP3    H159266   6.139   1.883  11.594 -1.5888  1.3192  1.0312
12617TIP3    H259267   6.203   1.960  11.481  0.5217 -1.0125  0.6111
12618TIP3   OH259268   6.381   2.268  15.540  0.6427  0.6622  0.1603
12618TIP3    H159269   6.388   2.205  15.469 -2.4582 -0.5517  0.8258
12618TIP3    H259270   6.437   2.233  15.609 -1.7455 -1.9355  0.8547
12619TIP3   OH259271   4.759   2.210   0.215 -0.1993  0.0281 -0.1713
12619TIP3    H159272   4.683   2.195   0.271 -0.5761  2.3146 -0.0217
12619TIP3    H259273   4.728   2.188   0.127 -1.7225  2.8839 -0.4203
12620TIP3   OH259274   2.819   5.321  12.091  0.6373 -0.0647  0.4454
12620TIP3    H159275   2.896   5.349  12.042  1.0045 -2.5296 -0.4850
12620TIP3    H259276   2.813   5.227  12.075 -1.8556 -0.1469  1.5180
12621TIP3   OH259277   5.445   4.582  16.383 -0.1888  0.0563 -0.1103
12621TIP3    H159278   5.407   4.601  16.298  1.4337  2.1614 -0.4190
12621TIP3    H259279   5.518   4.644  16.391  1.3015 -1.8491  1.6973
12622TIP3   OH259280   2.418   4.393  16.199  0.8433  0.1519  0.4507
12622TIP3    H159281   2.403   4.299  16.206  1.8024 -0.1204 -0.9825
12622TIP3    H259282   2.384   4.429  16.281  1.9576 -1.6288  1.7302
12623TIP3   OH259283   4.795   5.443   4.992 -0.2089 -1.1226  0.2990
12623TIP3    H159284   4.765   5.358   5.023 -0.4606 -1.1376  0.0166
12623TIP3    H259285   4.830   5.426   4.905  1.2014 -1.2134  0.8745
12624TIP3   OH259286   5.547   2.453  15.519 -0.0346  0.0014 -0.3443
12624TIP3    H159287   5.513   2.463  15.430  2.4211 -1.0467 -1.4545
12624TIP3    H259288   5.601   2.532  15.533  0.2850 -0.2572 -0.1147
12625TIP3   OH259289   5.524   4.315  14.570 -0.3146 -0.2797  0.6492
12625TIP3    H159290   5.477   4.393  14.599  0.9344  0.4618  0.7495
12625TIP3    H259291   5.599   4.309  14.629  0.3912 -0.7093 -0.2742
12626TIP3   OH259292   2.656   0.810  15.832 -0.7285 -0.0032 -0.2501
12626TIP3    H159293   2.730   0.764  15.794 -0.5143 -0.5323  0.7834
12626TIP3    H259294   2.631   0.874  15.766  0.6060  0.1368 -0.6324
12627TIP3   OH259295   4.456   3.511   5.699 -0.0508 -0.5377 -0.1324
12627TIP3    H159296   4.393   3.578   5.726 -0.1958  0.2150 -2.2856
12627TIP3    H259297   4.529   3.522   5.759 -1.7236 -1.0857  2.0742
12628TIP3   OH259298   5.178   3.144  12.029 -0.2392  0.1751  0.2283
12628TIP3    H159299   5.095   3.109  11.996 -0.2980  0.6721 -0.1664
12628TIP3    H259300   5.241   3.073  12.018 -0.4547  0.0434 -0.1574
12629TIP3   OH259301   6.699   2.115  16.599  0.0730 -0.1921  0.4795
12629TIP3    H159302   6.632   2.169  16.640 -0.4570 -1.2977  1.0825
12629TIP3    H259303   6.661   2.027  16.595  1.1198 -0.6369 -0.0223
12630TIP3   OH259304   5.324   3.835  11.929  0.7057  0.0933  0.3257
12630TIP3    H159305   5.351   3.746  11.952  2.3489  0.7233  0.9155
12630TIP3    H259306   5.366   3.851  11.845 -1.9903 -0.7227 -1.2560
12631TIP3   OH259307   3.411   5.959   1.247 -0.0258 -0.3612  0.1570
12631TIP3    H159308   3.426   5.995   1.335 -1.8234 -3.4338  1.7813
12631TIP3    H259309   3.326   5.994   1.221  0.2012  0.0146 -0.0790
12632TIP3   OH259310   1.093   4.005   2.446  0.4937  0.4560  0.0880
12632TIP3    H159311   1.100   4.000   2.541  0.8095 -0.6651  0.0043
12632TIP3    H259312   1.026   4.072   2.431 -0.3715 -0.1584  1.1119
12633TIP3   OH259313   1.795   0.388  13.506  0.5075 -0.3767  0.1255
12633TIP3    H159314   1.851   0.465  13.499 -0.0995  0.2394  1.8239
12633TIP3    H259315   1.856   0.314  13.506  1.2482  0.2231  0.8104
12634TIP3   OH259316   5.731   1.256  15.276 -0.4431 -0.0130  0.3532
12634TIP3    H159317   5.821   1.278  15.301 -0.4444 -0.3850  0.6851
12634TIP3    H259318   5.740   1.217  15.189 -0.1559 -1.1226  0.8766
12635TIP3   OH259319   4.295   0.027  13.482 -0.4110  0.3640 -0.6147
12635TIP3    H159320   4.305  -0.016  13.566  0.3333  1.2183 -0.2574
12635TIP3    H259321   4.247  -0.036  13.428  0.0742 -0.6245  0.0990
12636TIP3   OH259322   0.336   3.534   0.332  0.3725  0.4573  0.7056
12636TIP3    H159323   0.404   3.594   0.361 -0.6622  1.8070  0.4173
12636TIP3    H259324   0.270   3.537   0.401  1.5134 -2.4227  1.9737
12637TIP3   OH259325   0.048   4.965  12.420 -0.1220 -0.5733  0.2217
12637TIP3    H159326   0.112   4.948  12.351  0.0715  0.3403  0.1659
12637TIP3    H259327   0.083   4.921  12.497  1.0257  0.6555  0.4120
12638TIP3   OH259328   3.715   5.218   4.137  0.2066 -0.4004 -0.1286
12638TIP3    H159329   3.787   5.234   4.197 -1.1237  0.3257  1.3131
12638TIP3    H259330   3.676   5.305   4.123 -1.5722 -1.0447  0.6699
12639TIP3   OH259331   5.411   2.370  16.256 -0.3724 -0.2384  0.7534
12639TIP3    H159332   5.377   2.418  16.180 -0.9090 -2.5306 -0.4745
12639TIP3    H259333   5.340   2.376  16.320  0.0854  1.7077  1.1386
12640TIP3   OH259334   0.349   1.300   5.883  0.1397 -0.1889  0.2094
12640TIP3    H159335   0.275   1.324   5.940 -0.9604  1.6072 -1.8869
12640TIP3    H259336   0.345   1.364   5.812  3.4865 -0.3674 -0.1737
12641TIP3   OH259337   0.408   0.453  14.201  0.4237 -0.0204  0.5221
12641TIP3    H159338   0.452   0.513  14.260  0.5797  0.4233 -0.0331
12641TIP3    H259339   0.453   0.464  14.117  0.0593 -0.4663  0.2593
12642TIP3   OH259340   0.362   4.508  10.858  0.1062 -0.0088  0.1457
12642TIP3    H159341   0.333   4.582  10.805  1.2709  1.4081  1.4798
12642TIP3    H259342   0.287   4.488  10.914 -0.3010 -0.0217 -0.3973
12643TIP3   OH259343   6.721   1.191  15.877 -0.0429  0.7002 -0.6474
12643TIP3    H159344   6.810   1.224  15.871 -0.2179  1.0992 -1.1237
12643TIP3    H259345   6.679   1.247  15.944  0.2712  0.0294  0.1183
12644TIP3   OH259346   0.733   4.546   6.621 -0.1197  0.0170 -0.0610
12644TIP3    H159347   0.643   4.516   6.632 -0.0031 -1.1428 -2.0605
12644TIP3    H259348   0.725   4.634   6.584 -0.4281  1.3698  3.0433
12645TIP3   OH259349   5.980   3.107   5.696  0.1613 -0.2011  0.0519
12645TIP3    H159350   5.995   3.065   5.780  1.2791  0.4993  0.2218
12645TIP3    H259351   5.990   3.201   5.714  0.2085 -0.0352 -0.8174
12646TIP3   OH259352   6.725   2.372   1.682  0.0824  0.5296 -0.0149
12646TIP3    H159353   6.701   2.314   1.610  1.7856 -0.6076  0.3054
12646TIP3    H259354   6.795   2.426   1.646  1.3260 -0.4233  0.9445
12647TIP3   OH259355   4.978   1.977  14.284 -0.1452 -0.5247 -0.4699
12647TIP3    H159356   5.001   1.917  14.354  0.7359  1.7175  1.2216
12647TIP3    H259357   5.024   2.058  14.306 -0.3012  0.3968 -3.3431
12648TIP3   OH259358   2.043   0.155  14.800 -0.1503  0.3382 -0.2091
12648TIP3    H159359   2.070   0.105  14.876  0.4411  2.6381  1.1315
12648TIP3    H259360   1.956   0.121  14.779 -0.1665 -0.5724  1.2416
12649TIP3   OH259361   6.188   6.763  16.047  0.4952 -0.3526 -0.8895
12649TIP3    H159362   6.147   6.677  16.054 -1.1975  0.5609  1.1734
12649TIP3    H259363   6.281   6.745  16.032  1.0754 -2.7120  4.4462
12650TIP3   OH259364   6.620   1.821   2.163  0.0717  0.1186  0.1313
12650TIP3    H159365   6.626   1.896   2.104 -0.8283  0.9967  1.1204
12650TIP3    H259366   6.709   1.808   2.196  0.3344  0.4200 -0.4604
12651TIP3   OH259367   5.188   6.196  12.630  0.4310 -0.1130  0.3512
12651TIP3    H159368   5.159   6.109  12.601 -0.7549  1.1382 -2.3065
12651TIP3    H259369   5.134   6.215  12.707 -1.3831 -0.4730 -0.8206
12652TIP3   OH259370   5.526   1.119  13.117  0.0955  0.8773 -0.0691
12652TIP3    H159371   5.590   1.162  13.174  1.5726  0.6686 -1.5269
12652TIP3    H259372   5.570   1.040  13.087 -0.7341  0.8735 -1.3302
12653TIP3   OH259373   2.530   4.558  11.454 -0.5264  0.0402  0.4159
12653TIP3    H159374   2.509   4.609  11.532 -0.6629  0.1171  0.3283
12653TIP3    H259375   2.589   4.489  11.486  1.2477  1.4060  0.2093
12654TIP3   OH259376   6.300   3.952  10.890  0.1123  0.3678  0.0632
12654TIP3    H159377   6.242   4.004  10.834 -0.4207  0.4475  0.6812
12654TIP3    H259378   6.369   3.921  10.831 -0.1789  0.8483 -0.5373
12655TIP3   OH259379   0.260   5.471  10.930 -0.0931  0.4685 -0.0118
12655TIP3    H159380   0.346   5.474  10.888 -0.2229  0.6689 -0.2687
12655TIP3    H259381   0.203   5.430  10.865  0.0213 -0.5680  0.5423
12656TIP3   OH259382   4.236   2.065   3.436 -0.1418 -0.4832 -0.0746
12656TIP3    H159383   4.213   2.077   3.528  1.7369 -1.7811  0.5819
12656TIP3    H259384   4.299   2.133   3.417 -0.6779 -0.0911 -0.4733
12657TIP3   OH259385   3.705   6.070   1.334 -0.6469 -0.2115 -0.0184
12657TIP3    H159386   3.779   6.037   1.385  0.2375 -0.2248 -1.2921
12657TIP3    H259387   3.631   6.016   1.362 -0.4532  0.6201  2.1674
12658TIP3   OH259388   2.394   6.234   1.432 -0.2510 -0.6718  0.3323
12658TIP3    H159389   2.417   6.319   1.393 -0.5496 -0.1059  1.3570
12658TIP3    H259390   2.478   6.190   1.444 -0.1634 -0.9156 -1.0677
12659TIP3   OH259391   4.195   4.510  10.759 -0.4985  0.6722  0.5647
12659TIP3    H159392   4.271   4.462  10.791 -0.1128  0.5243 -0.5423
12659TIP3    H259393   4.209   4.599  10.791  0.4062  0.7627 -0.0320
12660TIP3   OH259394   3.345   3.339  10.483 -0.2676 -0.6399 -0.0538
12660TIP3    H159395   3.340   3.434  10.497 -1.0007 -0.7750  0.6561
12660TIP3    H259396   3.439   3.319  10.486 -0.1679 -0.0710  0.6994
12661TIP3   OH259397   2.156   0.814  13.378 -0.9447 -0.5907  0.0700
12661TIP3    H159398   2.148   0.847  13.288 -0.8413  1.5238  0.8193
12661TIP3    H259399   2.076   0.762  13.391 -1.2473 -0.4219 -1.0416
12662TIP3   OH259400   4.125   2.447   5.261 -0.1701  0.1196 -0.1813
12662TIP3    H159401   4.051   2.502   5.286 -0.6876 -1.1527  1.1952
12662TIP3    H259402   4.160   2.488   5.182 -2.1421  0.9339 -0.6691
12663TIP3   OH259403   5.139   4.164   1.000  0.1979 -0.1610  0.0299
12663TIP3    H159404   5.160   4.211   0.919 -0.4181  0.1949  0.0758
12663TIP3    H259405   5.159   4.072   0.981  3.6969  0.3907  0.6936
12664TIP3   OH259406   1.961   6.531  13.988 -0.3038  0.2868 -0.1415
12664TIP3    H159407   1.929   6.595  13.924  1.3867 -0.3687 -1.7066
12664TIP3    H259408   1.948   6.446  13.946 -1.9943 -0.3891  1.6794
12665TIP3   OH259409   5.633   6.529  13.113  0.5418  0.5911  0.5598
12665TIP3    H159410   5.601   6.570  13.194 -0.2577  0.2721  0.4154
12665TIP3    H259411   5.573   6.455  13.099  0.5955  0.7280 -0.4021
12666TIP3   OH259412   5.311   3.504   2.834  0.6839  0.1534 -0.2278
12666TIP3    H159413   5.352   3.419   2.848  0.2691 -0.0235 -0.0737
12666TIP3    H259414   5.380   3.567   2.851  0.6779 -0.1165  0.8284
12667TIP3   OH259415   3.896   5.277  14.019  0.5126 -0.2472 -0.2730
12667TIP3    H159416   3.919   5.222  14.093  1.3940 -1.0569 -1.1332
12667TIP3    H259417   3.805   5.254  13.999  1.3135 -2.4827 -1.5319
12668TIP3   OH259418   3.152   3.264  14.601 -0.5381 -0.2879 -0.5572
12668TIP3    H159419   3.173   3.207  14.676 -1.4991  1.9755  1.5023
12668TIP3    H259420   3.193   3.221  14.526 -1.1306 -3.5999  0.9476
12669TIP3   OH259421   6.744   4.863  11.260  0.0437  0.2365  0.4944
12669TIP3    H159422   6.743   4.802  11.185 -1.8270 -0.5865  1.1549
12669TIP3    H259423   6.836   4.878  11.277  0.5144 -0.7114 -1.0825
12670TIP3   OH259424   0.483   2.328   0.911  0.4005  0.1489 -0.0088
12670TIP3    H159425   0.553   2.323   0.846  0.0750  1.4123 -0.4767
12670TIP3    H259426   0.509   2.266   0.980  1.9044  0.4994 -0.2477
12671TIP3   OH259427   4.809   5.373  16.019 -0.2186 -0.3009 -0.3660
12671TIP3    H159428   4.814   5.425  15.939  0.9286  1.7364  0.9720
12671TIP3    H259429   4.796   5.438  16.088  2.0295 -1.7265  1.4518
12672TIP3   OH259430   3.438   3.978  12.669  0.4681  0.1112  0.0538
12672TIP3    H159431   3.520   3.930  12.658  0.6053  0.4513 -0.3996
12672TIP3    H259432   3.384   3.921  12.724  2.2707  1.3508  3.2813
12673TIP3   OH259433   2.524   3.472   1.950  0.5947 -0.0351 -0.1560
12673TIP3    H159434   2.535   3.392   2.001 -2.6268 -0.6806 -0.3811
12673TIP3    H259435   2.531   3.542   2.014 -0.5558 -0.6997  0.7083
12674TIP3   OH259436   3.829   4.500   5.940  0.4363  0.2813  0.0163
12674TIP3    H159437   3.767   4.444   5.893  1.2937 -0.2275 -0.5315
12674TIP3    H259438   3.791   4.510   6.027  0.4458 -1.4730  0.2510
12675TIP3   OH259439   1.254   0.062  16.129  0.3225  0.2103 -0.1503
12675TIP3    H159440   1.289   0.139  16.083  0.1100  0.1359 -0.4380
12675TIP3    H259441   1.287   0.071  16.219  1.5172 -0.1291 -0.5403
12676TIP3   OH259442   5.996   3.099  11.963  0.7892  0.0371  0.0892
12676TIP3    H159443   6.006   3.106  11.868 -1.7760  1.0062 -0.1361
12676TIP3    H259444   5.974   3.007  11.979  2.1080 -0.3294 -0.1467
12677TIP3   OH259445   0.585   3.178  12.214  0.4561 -0.0499 -0.2993
12677TIP3    H159446   0.598   3.091  12.252 -1.8177  0.1334  1.0091
12677TIP3    H259447   0.561   3.233  12.289 -0.2183  1.2293 -1.4407
12678TIP3   OH259448   2.307   5.701  11.240  0.0207  0.2497  0.9014
12678TIP3    H159449   2.387   5.692  11.188  0.0695  0.4290  0.9437
12678TIP3    H259450   2.268   5.614  11.240  0.7179 -0.0627  1.6962
12679TIP3   OH259451   5.372   4.988  11.555  0.0235  0.8559  0.3103
12679TIP3    H159452   5.359   5.062  11.614 -1.1057  0.4709  0.5719
12679TIP3    H259453   5.292   4.937  11.564  0.8518 -0.4773  0.2491
12680TIP3   OH259454   4.431   1.130   3.114  0.2784  0.0803  0.6350
12680TIP3    H159455   4.421   1.210   3.165  2.5189  1.0932 -0.4461
12680TIP3    H259456   4.434   1.159   3.023  0.2394 -1.3294  0.1626
12681TIP3   OH259457   5.194   0.625   2.451  0.7055  0.0318 -0.4604
12681TIP3    H159458   5.116   0.633   2.395  0.6735  0.6796 -0.3291
12681TIP3    H259459   5.165   0.655   2.537  0.4853 -1.9201  0.1703
12682TIP3   OH259460   5.997   2.945   4.075  0.5307 -0.4233  0.3821
12682TIP3    H159461   5.944   2.865   4.076  1.5034 -1.0756  1.0185
12682TIP3    H259462   6.086   2.915   4.055  0.8613  0.5279  0.3687
12683TIP3   OH259463   3.881   3.877   0.564  0.2156  0.0413 -0.6167
12683TIP3    H159464   3.929   3.820   0.624 -0.5319  1.2410  1.1494
12683TIP3    H259465   3.795   3.835   0.554 -0.0738  0.4642  0.0922
12684TIP3   OH259466   6.447   5.816   5.847 -0.2863 -0.2021  0.3106
12684TIP3    H159467   6.507   5.876   5.892 -1.3843  1.2719 -0.1427
12684TIP3    H259468   6.417   5.866   5.771 -1.8967 -1.0137  0.4096
12685TIP3   OH259469   5.567   3.034  12.646 -0.2720 -0.0764 -0.2051
12685TIP3    H159470   5.542   3.108  12.591 -3.1477 -1.3370 -0.7080
12685TIP3    H259471   5.488   3.011  12.694  0.9137 -1.9957  0.9410
12686TIP3   OH259472   3.616   3.859   3.882  0.8631 -0.3257  0.4634
12686TIP3    H159473   3.533   3.907   3.883  0.1335 -1.4975 -1.0212
12686TIP3    H259474   3.651   3.873   3.794  1.0581 -1.7539  0.2886
12687TIP3   OH259475   4.296   2.562  13.762  0.2388  0.8136 -0.2293
12687TIP3    H159476   4.280   2.559  13.668  0.0471 -0.9085 -0.1402
12687TIP3    H259477   4.240   2.633  13.794 -1.2923  0.0111 -1.0917
12688TIP3   OH259478   6.570   6.362   2.255  0.4139  0.1127  0.0387
12688TIP3    H159479   6.491   6.339   2.206  0.7374  0.7228 -0.7760
12688TIP3    H259480   6.610   6.278   2.277  0.0043 -0.1764 -0.3176
12689TIP3   OH259481   5.041   5.447   5.697  0.8037  0.0895  0.7445
12689TIP3    H159482   4.998   5.421   5.615  0.2708  0.7205  0.8243
12689TIP3    H259483   4.999   5.394   5.764 -0.0999  0.9671  0.8713
12690TIP3   OH259484   2.824   6.131  14.230 -0.0640 -0.4012  0.4253
12690TIP3    H159485   2.756   6.097  14.173  0.5140 -2.0344  0.6838
12690TIP3    H259486   2.905   6.089  14.200  0.8311  1.4224  0.1938
12691TIP3   OH259487   3.187   4.728   3.981  0.2314 -0.5209 -0.2197
12691TIP3    H159488   3.258   4.771   4.029 -0.2232 -1.3240  1.2046
12691TIP3    H259489   3.109   4.745   4.034 -0.5932  0.0423 -1.5844
12692TIP3   OH259490   1.952   1.359   2.812  0.6991  0.1582  0.2326
12692TIP3    H159491   1.891   1.386   2.881  1.2450  1.1055  0.3426
12692TIP3    H259492   1.977   1.270   2.837 -2.0793 -0.9935 -0.8231
12693TIP3   OH259493   5.723   5.752   5.275  0.7684  0.1030  0.2344
12693TIP3    H159494   5.628   5.764   5.267  0.7031 -0.6500 -0.1441
12693TIP3    H259495   5.751   5.727   5.187  1.2217 -0.3573  0.5087
12694TIP3   OH259496   4.950   6.120  16.382  0.1285  0.2436 -0.5626
12694TIP3    H159497   4.866   6.158  16.406  0.1124  0.8370 -1.5254
12694TIP3    H259498   5.001   6.120  16.463 -0.4705  0.7477 -0.1832
12695TIP3   OH259499   6.338   4.406   3.394  0.5117 -0.0367 -0.5289
12695TIP3    H159500   6.316   4.318   3.364 -0.6066 -0.3940  1.3006
12695TIP3    H259501   6.264   4.460   3.367  0.4327  0.0228 -0.1975
12696TIP3   OH259502   4.271   3.513   4.403 -0.1574 -0.3643 -0.8598
12696TIP3    H159503   4.329   3.588   4.418 -0.7752 -0.2087  0.8613
12696TIP3    H259504   4.331   3.438   4.395  0.3405 -0.0835  0.0842
12697TIP3   OH259505   5.557   3.010   4.868  0.0198  0.1469 -0.3494
12697TIP3    H159506   5.631   3.067   4.845  0.4993 -0.6165 -0.7218
12697TIP3    H259507   5.559   2.940   4.802 -0.5987 -0.2659  0.0637
12698TIP3   OH259508   6.121   1.362  13.877 -0.2527  0.3751  0.2623
12698TIP3    H159509   6.124   1.395  13.967  0.0503 -0.0150  0.3986
12698TIP3    H259510   6.212   1.347  13.853 -0.3422  0.2954 -0.0414
12699TIP3   OH259511   5.410   4.541   0.030  0.1626 -0.3660 -0.3823
12699TIP3    H159512   5.326   4.573  -0.003  0.1522 -1.6702 -1.6539
12699TIP3    H259513   5.472   4.610   0.010 -0.4849  0.3399  0.0095
12700TIP3   OH259514   5.919   3.931   6.326 -0.1620 -0.4723  0.5401
12700TIP3    H159515   5.998   3.981   6.347  0.3694 -0.7296 -0.7660
12700TIP3    H259516   5.943   3.840   6.340  0.5684 -0.7492 -2.1039
12701TIP3   OH259517   2.673   0.378   1.406 -0.1028  0.3003 -0.6531
12701TIP3    H159518   2.693   0.439   1.477 -1.0083  0.4607 -0.5328
12701TIP3    H259519   2.626   0.306   1.448  0.8947 -0.4624 -0.8081
12702TIP3   OH259520   6.243   4.055   1.945  0.4323  0.2023  0.1787
12702TIP3    H159521   6.190   4.124   1.984  0.3767 -0.2646  0.9490
12702TIP3    H259522   6.329   4.095   1.932  0.0249  0.8185 -0.6449
12703TIP3   OH259523   4.155   0.749  12.057 -0.0464  0.0124  0.1878
12703TIP3    H159524   4.094   0.748  11.984  0.3446 -1.9207 -0.1563
12703TIP3    H259525   4.114   0.805  12.122 -0.6238  1.3912 -1.3126
12704TIP3   OH259526   5.701   5.251  13.301 -0.0947  0.1506 -0.2943
12704TIP3    H159527   5.619   5.276  13.344  1.1747  1.9757  1.1859
12704TIP3    H259528   5.708   5.157  13.313 -0.7778  0.3475  1.7308
12705TIP3   OH259529   5.038   2.502  15.731 -0.7958  0.7847  0.0322
12705TIP3    H159530   5.099   2.498  15.657 -1.3322 -0.1006 -0.3684
12705TIP3    H259531   4.960   2.545  15.696 -1.3553 -0.3457 -0.1497
12706TIP3   OH259532   0.090   6.406  11.686  0.1768 -0.0030  0.7013
12706TIP3    H159533   0.149   6.390  11.759 -0.4413 -0.1319  1.1754
12706TIP3    H259534   0.020   6.460  11.723  0.3401  0.7118 -0.0128
12707TIP3   OH259535   3.872   5.903  16.974  0.2646  0.7442 -0.3760
12707TIP3    H159536   3.780   5.881  16.992  0.7429 -0.3691  0.8122
12707TIP3    H259537   3.891   5.977  17.031  0.0400  1.1133 -0.7819
12708TIP3   OH259538   2.524   4.317   1.127  0.6951 -0.2475 -0.9765
12708TIP3    H159539   2.595   4.355   1.179  0.9772 -0.1817 -1.4007
12708TIP3    H259540   2.511   4.230   1.164  0.6603 -0.0713 -0.5778
12709TIP3   OH259541   1.403   6.543   1.898 -0.4775 -0.1080 -0.1046
12709TIP3    H159542   1.316   6.576   1.919  0.2996  3.1132 -1.6679
12709TIP3    H259543   1.463   6.601   1.944  0.9805  2.0373 -4.4303
12710TIP3   OH259544   5.933   2.699  13.622 -0.1798  0.3795 -0.1163
12710TIP3    H159545   6.007   2.760  13.623  0.4410 -0.3083 -1.6301
12710TIP3    H259546   5.890   2.712  13.706  0.9349  1.6872  0.2777
12711TIP3   OH259547   3.709   2.088   0.344 -0.2137  0.1953  0.3173
12711TIP3    H159548   3.669   2.158   0.396  0.9284  0.4039  0.9179
12711TIP3    H259549   3.789   2.065   0.392 -0.0556 -0.8170 -0.4212
12712TIP3   OH259550   0.544   5.853   3.551  0.0815  0.1858 -0.8324
12712TIP3    H159551   0.476   5.890   3.608 -0.7723 -1.1507 -0.9651
12712TIP3    H259552   0.569   5.771   3.593 -0.4982 -0.7819 -2.3163
12713TIP3   OH259553   1.866   6.661  13.762 -0.7074  0.0800  0.5965
12713TIP3    H159554   1.811   6.594  13.722 -1.0231  1.2852 -1.0684
12713TIP3    H259555   1.943   6.666  13.705 -1.9034  2.9648 -0.8827
12714TIP3   OH259556   5.889   6.445  12.022  0.4133 -0.3627  0.1799
12714TIP3    H159557   5.898   6.539  12.010 -0.0717 -0.6427 -2.6846
12714TIP3    H259558   5.979   6.413  12.027  0.6084  0.0153 -0.8725
12715TIP3   OH259559   4.875   3.303  15.242 -0.4531 -0.3662  0.1565
12715TIP3    H159560   4.838   3.245  15.176  0.5753 -0.9157  0.0589
12715TIP3    H259561   4.918   3.245  15.304  1.6203  0.3494 -0.5960
12716TIP3   OH259562   4.911   2.202  12.382  0.2515 -0.3525 -0.5305
12716TIP3    H159563   4.908   2.259  12.458  1.1369 -0.7982 -0.1538
12716TIP3    H259564   4.820   2.196  12.353 -0.1576 -0.5077  0.7425
12717TIP3   OH259565   5.151   1.252  16.898  0.3598 -0.2508 -0.2212
12717TIP3    H159566   5.086   1.286  16.959  0.5239  0.7243 -0.5917
12717TIP3    H259567   5.101   1.226  16.821  0.2988 -0.3693 -0.1411
12718TIP3   OH259568   1.980   4.144   4.229  0.5612  0.2054 -0.0979
12718TIP3    H159569   2.028   4.152   4.146 -0.0437  1.2844 -0.3562
12718TIP3    H259570   2.038   4.094   4.286  0.6754 -1.2060 -1.4081
12719TIP3   OH259571   0.535   1.966   0.863  0.3584 -0.0391  0.1179
12719TIP3    H159572   0.463   2.009   0.818 -0.7463 -1.4421  0.5196
12719TIP3    H259573   0.554   2.023   0.938 -0.2090  0.4208 -0.0853
12720TIP3   OH259574   3.201   6.551  15.965  0.3988  0.0780  0.2710
12720TIP3    H159575   3.156   6.625  16.008  0.2856 -0.4303  1.0394
12720TIP3    H259576   3.137   6.517  15.903  0.7493  1.1513 -0.6988
12721TIP3   OH259577   3.572   3.385  16.752  0.0360  0.3323  0.3132
12721TIP3    H159578   3.508   3.354  16.817  1.9911  1.2961  2.7869
12721TIP3    H259579   3.614   3.306  16.720  0.3898 -0.0472  1.6814
12722TIP3   OH259580   2.584   2.833  17.188 -0.2007  0.2366  0.7265
12722TIP3    H159581   2.569   2.741  17.211  0.7675 -0.1210 -0.0255
12722TIP3    H259582   2.675   2.849  17.212  0.0088  0.6398 -0.3109
12723TIP3   OH259583   2.374   2.596  14.536 -0.3176 -0.8720  0.3738
12723TIP3    H159584   2.445   2.556  14.588  0.6967  0.9481  0.4503
12723TIP3    H259585   2.341   2.667  14.592  0.5737  0.9124 -1.2794
12724TIP3   OH259586   2.773   6.076  13.278 -0.7013  0.7756  0.1144
12724TIP3    H159587   2.724   6.074  13.196 -1.8900 -0.9284  0.8373
12724TIP3    H259588   2.773   6.168  13.304 -3.0639  0.8957 -0.2008
12725TIP3   OH259589   1.416   6.353   5.759  0.1691  0.3278  0.4499
12725TIP3    H159590   1.494   6.312   5.795  1.7535  3.0119  0.1413
12725TIP3    H259591   1.364   6.377   5.836  0.0504 -0.6841  0.6848
12726TIP3   OH259592   3.062   5.556   4.875 -0.0256  0.2775 -0.6090
12726TIP3    H159593   3.078   5.565   4.781 -1.0883 -0.5187 -0.8783
12726TIP3    H259594   2.971   5.583   4.886  0.0282  0.1442  0.1489
12727TIP3   OH259595   6.310   3.833   5.632  0.3617  0.0485  0.4248
12727TIP3    H159596   6.349   3.920   5.631 -2.3576  1.3398  0.8216
12727TIP3    H259597   6.253   3.832   5.554 -0.8721 -0.7692  1.3225
12728TIP3   OH259598   5.202   4.240  17.213 -0.2563 -0.3538 -0.5537
12728TIP3    H159599   5.185   4.150  17.240 -0.0769 -0.3701 -0.4940
12728TIP3    H259600   5.242   4.280  17.290 -3.3602  0.6936  0.6049
12729TIP3   OH259601   5.914   5.939   6.320  0.3061  0.4132 -0.2199
12729TIP3    H159602   5.954   6.021   6.290 -0.1751  0.0478 -1.9425
12729TIP3    H259603   5.942   5.930   6.411  3.8450  0.3505 -1.2502
12730TIP3   OH259604   0.751   0.085  12.418  0.1225 -0.0160 -0.7578
12730TIP3    H159605   0.673   0.121  12.377  0.1265  1.9978  0.9376
12730TIP3    H259606   0.722   0.057  12.506  1.1270  0.0021 -0.4132
12731TIP3   OH259607   1.721   1.995  14.757  0.3885  0.0947 -1.0702
12731TIP3    H159608   1.715   1.949  14.673  0.7741  1.0805 -1.6498
12731TIP3    H259609   1.651   2.060  14.754 -0.9093 -1.2261  0.2411
12732TIP3   OH259610   5.048   1.473   6.480  0.4607 -0.0081 -0.2173
12732TIP3    H159611   5.040   1.399   6.420  1.8192  0.0414 -0.4783
12732TIP3    H259612   4.966   1.522   6.469 -1.1037 -2.2896  1.0909
12733TIP3   OH259613   1.030   3.689   3.709 -0.5186 -0.6733 -0.0775
12733TIP3    H159614   1.031   3.613   3.650 -1.7274  0.1168 -1.1285
12733TIP3    H259615   0.990   3.759   3.658  2.6962  1.3671  0.0709
12734TIP3   OH259616   5.229   2.519   1.688  0.0074 -0.3844 -0.6365
12734TIP3    H159617   5.304   2.554   1.639 -1.2549  0.5437 -1.9259
12734TIP3    H259618   5.153   2.544   1.637 -1.1707 -1.7801  0.4089
12735TIP3   OH259619   0.238   0.241   2.665  0.7447  0.3159 -0.2699
12735TIP3    H159620   0.266   0.175   2.601  0.4898  0.0014 -0.0610
12735TIP3    H259621   0.288   0.220   2.744 -1.4115 -1.4276  0.7086
12736TIP3   OH259622   3.404   0.832  11.200 -0.8088  0.0903 -0.4371
12736TIP3    H159623   3.478   0.799  11.150 -0.9907 -0.1166 -0.5703
12736TIP3    H259624   3.332   0.773  11.178 -1.1137  0.5231 -0.6121
12737TIP3   OH259625   3.900   3.755   2.970 -0.0198 -0.0862  0.3255
12737TIP3    H159626   3.985   3.798   2.966 -0.4820  0.7858 -0.6150
12737TIP3    H259627   3.839   3.825   2.993 -1.0470  0.2366 -3.0182
12738TIP3   OH259628   0.925   4.594  14.896 -0.1208  0.0444  0.1321
12738TIP3    H159629   0.976   4.532  14.949  2.8855  2.2621 -0.0585
12738TIP3    H259630   0.904   4.545  14.816 -1.9225 -2.2482  1.9122
12739TIP3   OH259631   5.840   5.945   5.610 -0.5728 -0.9607  0.1991
12739TIP3    H159632   5.935   5.952   5.607 -0.5068 -1.5727  0.7229
12739TIP3    H259633   5.810   5.986   5.529  0.1234 -0.5606  0.1439
12740TIP3   OH259634   1.888   0.791   0.913  0.0722  0.1401  0.1037
12740TIP3    H159635   1.844   0.738   0.979 -1.2555 -0.5224 -1.2602
12740TIP3    H259636   1.894   0.733   0.837  0.1897  1.3813 -0.8451
12741TIP3   OH259637   4.842   3.509   5.351  0.3396 -0.0129 -0.0728
12741TIP3    H159638   4.829   3.600   5.323 -0.5089 -0.5679 -1.5418
12741TIP3    H259639   4.759   3.466   5.332  0.0344 -0.6421  2.5368
12742TIP3   OH259640   4.929   4.214   0.803  0.7778 -0.3063  0.2634
12742TIP3    H159641   4.934   4.118   0.798  0.1611 -0.4058  1.4952
12742TIP3    H259642   4.925   4.233   0.896  0.6016  0.9162  0.0106
12743TIP3   OH259643   3.972   4.684   3.754  0.7519 -0.3134 -0.5218
12743TIP3    H159644   3.912   4.675   3.827 -0.9251 -0.3070 -1.8822
12743TIP3    H259645   4.002   4.775   3.759  1.7870 -0.7205  1.0046
12744TIP3   OH259646   2.362   2.072   3.493 -0.2423 -0.6367 -0.2154
12744TIP3    H159647   2.289   2.014   3.514 -0.7085  0.1079  0.2240
12744TIP3    H259648   2.322   2.151   3.459  0.2707  0.3901  1.4807
12745TIP3   OH259649   0.620   3.833   3.103  0.1825 -0.2674  0.9871
12745TIP3    H159650   0.535   3.810   3.068  0.7489 -1.0593  0.0988
12745TIP3    H259651   0.610   3.923   3.134 -0.3994  0.3685 -0.9928
12746TIP3   OH259652   6.230   0.219  13.526  0.0694  0.1866 -0.3262
12746TIP3    H159653   6.293   0.255  13.464  0.8592 -0.8664 -0.1431
12746TIP3    H259654   6.197   0.295  13.574 -1.0860  1.1048 -2.5071
12747TIP3   OH259655   4.611   3.069   4.092 -0.0319  0.5563  0.1239
12747TIP3    H159656   4.684   3.049   4.033  0.4519  1.7959  0.2757
12747TIP3    H259657   4.560   2.988   4.096 -0.2522  0.5464 -2.2389
12748TIP3   OH259658   0.622   1.602  12.159  0.8368  0.1429 -0.4643
12748TIP3    H159659   0.686   1.643  12.102  0.9810  0.4428 -0.0920
12748TIP3    H259660   0.628   1.508  12.139  3.3687 -0.1845  1.4777
12749TIP3   OH259661   4.130   1.480  15.354 -0.6796 -0.2936  0.4317
12749TIP3    H159662   4.207   1.431  15.327  0.2080  1.0539  0.4605
12749TIP3    H259663   4.079   1.418  15.407 -0.2320 -1.5627 -0.6130
12750TIP3   OH259664   6.270   3.845   2.845 -0.1934  0.1367 -0.2246
12750TIP3    H159665   6.204   3.878   2.905 -1.0055 -1.2419 -0.3238
12750TIP3    H259666   6.267   3.904   2.770 -0.7401  0.5657  0.1333
12751TIP3   OH259667   4.268   1.633  13.939  0.2919  0.1563  0.0457
12751TIP3    H159668   4.218   1.552  13.936  1.3517 -0.5020 -0.0215
12751TIP3    H259669   4.268   1.659  14.031  0.3387 -0.1682  0.1374
12752TIP3   OH259670   6.652   0.123   0.999 -0.4167  0.6274  0.0653
12752TIP3    H159671   6.692   0.180   0.934  2.4299 -1.9913 -0.6257
12752TIP3    H259672   6.692   0.149   1.082  0.2434  0.2610 -0.1267
12753TIP3   OH259673   3.913   4.358  15.381  0.1453 -0.4922  0.1505
12753TIP3    H159674   3.967   4.436  15.369 -0.6614 -0.1742 -1.4077
12753TIP3    H259675   3.836   4.389  15.428  0.1067 -0.4781  0.0759
12754TIP3   OH259676   6.158   2.033  11.171 -0.0027  0.0936  0.3600
12754TIP3    H159677   6.243   2.068  11.147 -0.5207  0.1407 -1.4855
12754TIP3    H259678   6.130   2.087  11.246  0.0922  2.3379 -1.1744
12755TIP3   OH259679   6.311   5.334   3.787  0.4884  0.4051 -0.3063
12755TIP3    H159680   6.382   5.309   3.728  0.1407  2.7783 -1.8222
12755TIP3    H259681   6.233   5.334   3.732 -0.1822  0.7524  0.6254
12756TIP3   OH259682   1.146   0.129  12.480 -0.1886  0.3463  0.3602
12756TIP3    H159683   1.112   0.157  12.565  1.8998 -0.5864  1.5197
12756TIP3    H259684   1.241   0.137  12.488  0.0748 -0.5954 -1.5780
12757TIP3   OH259685   1.394   5.941   0.132 -0.1195 -0.2674 -0.0521
12757TIP3    H159686   1.427   5.953   0.043 -1.5201  0.3993 -0.5033
12757TIP3    H259687   1.360   6.027   0.157  0.4867 -0.3893  1.2252
12758TIP3   OH259688   0.506   4.309  16.977 -0.2640 -0.2179 -0.0303
12758TIP3    H159689   0.580   4.355  17.017  0.3380 -0.6101 -0.6707
12758TIP3    H259690   0.465   4.374  16.921  0.6261 -0.4700 -0.9869
12759TIP3   OH259691   4.711   1.071  15.438 -0.3407 -0.5439  0.3412
12759TIP3    H159692   4.670   1.086  15.523 -1.0521  2.3737 -0.4326
12759TIP3    H259693   4.805   1.077  15.455 -0.4861  0.1824  0.8987
12760TIP3   OH259694   0.083   1.735   0.217  0.1737  0.4184 -0.3331
12760TIP3    H159695   0.062   1.692   0.135  1.0998 -0.1646 -0.2659
12760TIP3    H259696   0.155   1.794   0.196 -1.5738  2.5662 -0.6044
12761TIP3   OH259697   5.439   2.557  13.847  0.2457  0.2409 -0.5250
12761TIP3    H159698   5.452   2.563  13.942 -1.9762  4.0457 -0.3781
12761TIP3    H259699   5.365   2.497  13.837 -0.6553  1.2088  0.2529
12762TIP3   OH259700   6.271   5.228   2.597  0.3620  0.5681 -0.5475
12762TIP3    H159701   6.317   5.199   2.675  0.7994  1.5310 -0.4353
12762TIP3    H259702   6.317   5.308   2.571 -1.2006  1.5049 -0.4739
12763TIP3   OH259703   4.004   3.428   4.502  0.3641  0.0223  0.0140
12763TIP3    H159704   4.061   3.460   4.432  0.2327  1.0314  0.3595
12763TIP3    H259705   3.951   3.360   4.460  1.4378 -0.5424 -0.4431
12764TIP3   OH259706   2.246   3.108   2.793 -0.3192 -0.5567 -0.3784
12764TIP3    H159707   2.167   3.132   2.841  0.7357  0.7096  0.8029
12764TIP3    H259708   2.251   3.172   2.722  1.3354  1.4977  1.4873
12765TIP3   OH259709   5.056   4.612   6.838 -0.1525 -0.2094 -0.0454
12765TIP3    H159710   5.036   4.552   6.767  0.5248  1.0465 -1.3287
12765TIP3    H259711   4.972   4.649   6.863 -0.2649  0.1651 -0.9537
12766TIP3   OH259712   4.862   1.819  15.613 -0.0504 -0.5434 -0.0697
12766TIP3    H159713   4.830   1.758  15.547 -0.8586 -0.1086 -0.0788
12766TIP3    H259714   4.927   1.768  15.662 -1.6675 -1.8535  0.7740
12767TIP3   OH259715   2.917   2.228  12.893  0.4408  0.0096 -0.3250
12767TIP3    H159716   2.989   2.213  12.831 -0.5311 -1.8652 -1.0083
12767TIP3    H259717   2.889   2.318  12.874  1.1339 -0.0202 -1.5691
12768TIP3   OH259718   6.290   1.668  12.743 -0.1701  0.5128 -0.1027
12768TIP3    H159719   6.261   1.605  12.677 -1.2052  1.2453 -0.3641
12768TIP3    H259720   6.295   1.617  12.824 -0.0511 -0.1278 -0.5090
12769TIP3   OH259721   5.778   2.862  13.212  0.4780 -0.9249 -0.6084
12769TIP3    H159722   5.752   2.946  13.175 -1.7804 -0.7194  1.3216
12769TIP3    H259723   5.869   2.874  13.240  0.2068  0.8156 -0.4688
12770TIP3   OH259724   3.696   0.714   5.663 -0.0693 -0.7128 -0.3440
12770TIP3    H159725   3.633   0.695   5.732  0.1292  0.3524  0.1509
12770TIP3    H259726   3.759   0.773   5.705  0.4428 -0.6249 -1.2367
12771TIP3   OH259727   0.976   2.006   1.278  0.3719 -0.1648  0.7769
12771TIP3    H159728   0.968   2.009   1.183  0.6800 -0.2758  0.7487
12771TIP3    H259729   0.887   2.025   1.310  0.1305 -0.7521  0.4666
12772TIP3   OH259730   6.685   3.960  12.784  0.3662 -0.0525 -0.5419
12772TIP3    H159731   6.593   3.936  12.769  0.1369  1.0931 -1.0579
12772TIP3    H259732   6.723   3.966  12.697  0.7393  0.2218 -0.3606
12773TIP3   OH259733   1.625   2.229  11.697 -0.0747  0.2009  0.0642
12773TIP3    H159734   1.610   2.185  11.613  0.7325 -2.9730  1.5484
12773TIP3    H259735   1.717   2.254  11.696  0.1430 -0.5917  0.3567
12774TIP3   OH259736   3.642   5.766   3.813  0.1613 -0.2807 -0.4677
12774TIP3    H159737   3.654   5.850   3.768 -0.1755 -0.7047 -1.3752
12774TIP3    H259738   3.617   5.706   3.743 -0.0240 -1.0384  0.2490
12775TIP3   OH259739   2.393   6.029  12.218  0.9857  0.1047  0.3022
12775TIP3    H159740   2.330   6.028  12.146 -2.8496  0.0241  3.4994
12775TIP3    H259741   2.398   6.120  12.245  0.2000 -0.2581  1.7246
12776TIP3   OH259742   2.169   3.800  13.199 -0.1077 -0.0746 -0.1934
12776TIP3    H159743   2.251   3.751  13.191  0.1736  0.3739 -0.0864
12776TIP3    H259744   2.196   3.891  13.193 -0.7120  0.0472 -1.0769
12777TIP3   OH259745   2.726   6.226   0.055  0.0020 -0.1526 -0.0643
12777TIP3    H159746   2.769   6.308   0.031 -1.1187  0.2354 -0.7807
12777TIP3    H259747   2.766   6.160  -0.003  2.1709 -0.4641  1.7232
12778TIP3   OH259748   2.944   3.152  12.243 -0.1683 -0.0131 -0.3984
12778TIP3    H159749   3.015   3.121  12.186 -1.0096 -0.5408 -1.1711
12778TIP3    H259750   2.937   3.084  12.310  1.1185  0.8251  0.6112
12779TIP3   OH259751   5.113   2.179   4.308 -0.6771  0.2613 -0.2608
12779TIP3    H159752   5.154   2.158   4.392  0.6632 -0.2742 -1.0310
12779TIP3    H259753   5.089   2.094   4.271 -0.1964  0.4180 -0.9373
12780TIP3   OH259754   6.617   0.822   5.189  0.0817  0.2428  0.7876
12780TIP3    H159755   6.599   0.854   5.277  1.0007  0.5495  0.8666
12780TIP3    H259756   6.536   0.837   5.141 -0.6439 -0.5168  1.7479
12781TIP3   OH259757   5.874   0.700   0.293  0.3444 -0.3422  0.2886
12781TIP3    H159758   5.954   0.667   0.334  1.7006  0.1678 -1.8706
12781TIP3    H259759   5.905   0.761   0.227 -1.9700  1.8945  1.2191
12782TIP3   OH259760   6.313   1.073   4.631 -0.3091  0.0635  0.0510
12782TIP3    H159761   6.330   1.024   4.550 -1.6477  3.4857 -2.3970
12782TIP3    H259762   6.220   1.059   4.648 -0.2911  0.3286  0.3613
12783TIP3   OH259763   3.564   2.778  13.443 -0.3150 -0.3684 -0.4596
12783TIP3    H159764   3.520   2.705  13.486 -0.5936 -0.7274 -1.3420
12783TIP3    H259765   3.657   2.757  13.447 -0.5501 -2.2282 -3.2794
12784TIP3   OH259766   0.891   3.263  11.573 -0.3486 -0.5944 -0.2338
12784TIP3    H159767   0.979   3.254  11.611  0.2962  1.1510 -1.3027
12784TIP3    H259768   0.837   3.206  11.628  0.9305  0.3996  2.1449
12785TIP3   OH259769   1.558   2.068   1.943 -0.3580 -0.1945  0.2175
12785TIP3    H159770   1.628   2.014   1.907 -0.7737  0.3626 -1.4974
12785TIP3    H259771   1.597   2.113   2.018  0.4748 -1.5558  0.5958
12786TIP3   OH259772   2.029   2.390  14.661  0.0900  0.2419 -0.4425
12786TIP3    H159773   1.984   2.433  14.734 -1.4029 -1.4131 -0.3422
12786TIP3    H259774   2.033   2.298  14.687  0.7056 -0.1457 -1.8803
12787TIP3   OH259775   1.461   0.549  11.109 -0.2432  0.1383 -0.1209
12787TIP3    H159776   1.465   0.643  11.126 -1.4781  0.4715 -1.6157
12787TIP3    H259777   1.464   0.509  11.196 -2.9326  1.6825  0.7405
12788TIP3   OH259778   4.212   1.261  13.705 -0.0752 -0.3763 -0.2901
12788TIP3    H159779   4.258   1.291  13.627  1.3675 -0.0215  0.6870
12788TIP3    H259780   4.279   1.258  13.773 -1.7418  1.3831  1.4907
12789TIP3   OH259781   5.018   6.321  11.413 -0.3743  0.4546  0.1632
12789TIP3    H159782   4.936   6.347  11.373  0.0189  1.2294 -0.1566
12789TIP3    H259783   4.995   6.248  11.471 -0.6107 -2.2786 -3.2035
12790TIP3   OH259784   1.597   2.968   5.562  0.4054 -0.2479  0.6411
12790TIP3    H159785   1.652   2.978   5.640  0.0150  1.1497  0.7501
12790TIP3    H259786   1.525   3.030   5.575  0.1738 -0.2237 -0.6748
12791TIP3   OH259787   2.124   2.088  12.807 -0.0385 -0.4756 -0.1734
12791TIP3    H159788   2.121   2.144  12.729 -2.3582 -0.4303 -0.0788
12791TIP3    H259789   2.056   2.123  12.865 -0.2811 -2.2632  0.6629
12792TIP3   OH259790   5.261   5.980  12.899  0.2218  0.3430 -0.4148
12792TIP3    H159791   5.214   5.896  12.906  2.2868 -0.7430  0.6825
12792TIP3    H259792   5.213   6.039  12.957 -1.5044  0.0517 -1.5193
12793TIP3   OH259793   1.357   2.607  11.676 -0.3056  0.2292 -0.1494
12793TIP3    H159794   1.402   2.690  11.691 -0.0509  0.2759 -1.1392
12793TIP3    H259795   1.405   2.543  11.728 -0.4902  0.6927  0.5996
12794TIP3   OH259796   1.731   1.250  15.591 -0.0502 -0.3198  0.0460
12794TIP3    H159797   1.660   1.288  15.643 -0.6115 -0.8719 -0.3004
12794TIP3    H259798   1.713   1.278  15.502  0.4943  0.0160  0.0452
12795TIP3   OH259799   0.606   6.173   1.839  0.1404 -0.5117 -0.1934
12795TIP3    H159800   0.552   6.128   1.904 -0.3144  0.4078  0.0718
12795TIP3    H259801   0.596   6.266   1.859 -0.4670 -0.1669 -1.9258
12796TIP3   OH259802   4.919   3.633   6.088 -0.2974  0.3198  0.2990
12796TIP3    H159803   4.967   3.705   6.128  0.0454  0.8047 -0.9853
12796TIP3    H259804   4.831   3.668   6.074 -0.3168  0.2650  0.2844
12797TIP3   OH259805   3.175   1.628  16.709 -0.6677 -0.4167 -0.2597
12797TIP3    H159806   3.181   1.556  16.645 -1.9110  0.4987 -1.4392
12797TIP3    H259807   3.098   1.607  16.761 -0.8560 -0.0932 -0.4095
12798TIP3   OH259808   4.387   3.667  10.754  0.0525  0.1397  0.5990
12798TIP3    H159809   4.364   3.591  10.700  1.8059  1.3951 -2.0478
12798TIP3    H259810   4.466   3.640  10.801  0.4383  0.1409 -0.0322
12799TIP3   OH259811   2.065   5.416  12.922  0.0551  0.8426 -0.2272
12799TIP3    H159812   1.986   5.451  12.962 -0.3868 -0.9289  0.4852
12799TIP3    H259813   2.059   5.441  12.830 -1.0686  1.1650 -0.0696
12800TIP3   OH259814   0.727   0.779  10.990 -0.4522 -0.2140  0.8710
12800TIP3    H159815   0.720   0.719  10.915 -0.3813  0.9821 -0.1254
12800TIP3    H259816   0.659   0.845  10.973 -0.5393 -0.0225  1.9530
12801TIP3   OH259817   0.689   5.599  11.272  0.0719  0.8204  0.3975
12801TIP3    H159818   0.723   5.511  11.255 -1.3549  0.2936  0.1409
12801TIP3    H259819   0.634   5.618  11.195 -0.7103  1.3712  1.0801
12802TIP3   OH259820   5.721   5.311  12.090  0.3404  0.1342 -0.2302
12802TIP3    H159821   5.802   5.336  12.134  0.5705  1.6423 -1.4875
12802TIP3    H259822   5.715   5.369  12.015 -1.3577 -0.6989 -0.7704
12803TIP3   OH259823   4.215   6.396   4.027  0.8395 -0.3324 -0.0578
12803TIP3    H159824   4.123   6.372   4.016  1.3525 -1.4775 -2.3338
12803TIP3    H259825   4.262   6.313   4.018  2.1160  0.2975  0.6789
12804TIP3   OH259826   6.695   5.534  13.545  0.2649 -0.5996  0.2189
12804TIP3    H159827   6.633   5.575  13.484  0.8254  2.9257  1.8965
12804TIP3    H259828   6.642   5.470  13.593 -0.9416 -1.0316 -1.6281
12805TIP3   OH259829   0.770   5.574   4.580 -0.4861 -0.0890 -0.0080
12805TIP3    H159830   0.750   5.544   4.669 -0.7629  1.0181  0.3161
12805TIP3    H259831   0.686   5.576   4.535 -0.1134 -2.4922 -0.9115
12806TIP3   OH259832   3.381   0.027   3.962  0.7583  0.0836  0.6169
12806TIP3    H159833   3.367  -0.044   4.025 -2.8484 -0.8777 -1.1370
12806TIP3    H259834   3.359   0.107   4.011  1.1347 -0.3273  1.4776
12807TIP3   OH259835   0.397   0.968  12.539  0.0825 -0.5986 -0.0493
12807TIP3    H159836   0.410   0.896  12.600  0.5392 -0.3742  0.1223
12807TIP3    H259837   0.436   0.938  12.457  0.6767 -0.3753  0.1461
12808TIP3   OH259838   2.734   5.890   4.971  0.1734  0.0645  0.4146
12808TIP3    H159839   2.772   5.971   5.004 -0.4919  0.1878  0.8891
12808TIP3    H259840   2.652   5.880   5.020 -0.4257 -0.1781 -0.6180
12809TIP3   OH259841   5.595   4.803   5.119 -0.0224 -0.4282 -0.1240
12809TIP3    H159842   5.618   4.758   5.200  1.7126 -0.3889 -0.5665
12809TIP3    H259843   5.572   4.733   5.058  1.2871 -0.6533 -0.3824
12810TIP3   OH259844   0.794   4.044  14.390 -0.2431  0.5692  0.7760
12810TIP3    H159845   0.813   4.039  14.296 -0.2994  1.3847  0.7184
12810TIP3    H259846   0.703   4.073  14.394 -0.7731 -1.0851  1.0749
12811TIP3   OH259847   2.527   6.530   1.958 -0.1182  0.3225  0.2768
12811TIP3    H159848   2.448   6.578   1.932  1.7707  2.8701 -0.9324
12811TIP3    H259849   2.578   6.593   2.008  0.8427 -1.5421  1.6951
12812TIP3   OH259850   3.808   5.151   4.600 -0.3342  0.1917 -0.0211
12812TIP3    H159851   3.812   5.243   4.575  0.9290  0.6513  1.7675
12812TIP3    H259852   3.777   5.152   4.690  2.1044 -0.9701  0.8650
12813TIP3   OH259853   5.297   6.614  13.874 -0.2739  0.7097  0.9647
12813TIP3    H159854   5.237   6.541  13.892 -0.6293  0.7660  0.0350
12813TIP3    H259855   5.314   6.608  13.780  2.2012 -0.0686  1.4263
12814TIP3   OH259856   6.071   0.403  15.948  0.5094  0.0274 -0.7711
12814TIP3    H159857   6.089   0.314  15.920 -1.9164 -0.0598 -2.1646
12814TIP3    H259858   6.106   0.408  16.037 -0.5032 -2.7254 -0.1727
12815TIP3   OH259859   2.702   4.911   5.127  0.0843 -0.3220 -0.9305
12815TIP3    H159860   2.731   4.974   5.193  1.3288 -1.0149 -0.8009
12815TIP3    H259861   2.615   4.885   5.155 -0.0950  0.7183 -0.5224
12816TIP3   OH259862   2.029   4.120  14.553 -0.3124  0.0800  0.5997
12816TIP3    H159863   2.052   4.149  14.464 -0.2770  1.7327  1.1418
12816TIP3    H259864   1.934   4.130  14.557 -0.1476  1.4992  1.2593
12817TIP3   OH259865   0.015   1.084  11.616 -0.0567  1.2108 -0.2647
12817TIP3    H159866   0.047   1.039  11.537 -0.2713 -2.4155  1.6123
12817TIP3    H259867   0.082   1.151  11.634  2.0110 -0.4985 -1.3520
12818TIP3   OH259868   0.613   0.106  14.530 -0.0937  0.4398  0.2552
12818TIP3    H159869   0.537   0.152  14.496  0.9743  1.0919 -1.2887
12818TIP3    H259870   0.579   0.054  14.603 -2.0190  0.6598 -0.4661
12819TIP3   OH259871   1.016   6.055  15.028 -0.2390 -0.2058  0.1276
12819TIP3    H159872   1.049   6.020  14.945 -0.8150  1.5838 -0.8800
12819TIP3    H259873   0.975   6.138  15.004 -0.7932  0.1226  2.1529
12820TIP3   OH259874   4.925   5.598  11.843 -0.3733 -0.3375  0.1298
12820TIP3    H159875   4.926   5.556  11.757 -1.0490 -2.0102  0.9146
12820TIP3    H259876   4.857   5.664  11.836  0.4188  0.3839 -0.9997
12821TIP3   OH259877   4.315   2.971  15.558  0.0877  0.0080 -0.1233
12821TIP3    H159878   4.268   2.887  15.554 -0.5239  0.3800 -0.9918
12821TIP3    H259879   4.287   3.017  15.479  2.2710  0.0707 -0.8901
12822TIP3   OH259880   0.768   6.498  16.746  0.5469  0.1770 -0.0732
12822TIP3    H159881   0.766   6.551  16.826  2.2991  0.2517 -0.0488
12822TIP3    H259882   0.805   6.414  16.775  0.4436 -0.0696 -0.6523
12823TIP3   OH259883   6.066   0.167  16.529 -0.2535  0.0531 -0.3814
12823TIP3    H159884   6.119   0.107  16.476 -2.0481 -0.9398 -1.0872
12823TIP3    H259885   6.021   0.111  16.592 -0.8457  0.8329 -0.1043
12824TIP3   OH259886   5.589   3.080   0.111 -0.3163 -0.0884 -0.0516
12824TIP3    H159887   5.509   3.131   0.101  0.5370  1.4814  0.8458
12824TIP3    H259888   5.659   3.138   0.080  0.4386 -1.5681 -1.1663
12825TIP3   OH259889   5.146   4.953  11.970 -0.0912  0.8602  0.1959
12825TIP3    H159890   5.165   5.034  12.018  1.1885 -0.4855  2.0579
12825TIP3    H259891   5.169   4.972  11.879  0.2249  2.5760  0.6301
12826TIP3   OH259892   5.743   6.520  14.213  0.1246 -0.1662 -0.4017
12826TIP3    H159893   5.675   6.580  14.183  1.4893  0.6141 -1.9722
12826TIP3    H259894   5.822   6.573  14.218  1.2982 -1.7457 -1.5272
12827TIP3   OH259895   0.871   0.917  11.506 -0.4651 -0.4649  0.2250
12827TIP3    H159896   0.853   0.873  11.423  0.2411 -2.6899  1.2414
12827TIP3    H259897   0.792   0.970  11.522  0.1905  1.6452 -2.8521
12828TIP3   OH259898   5.194   1.496   2.681 -0.0526 -0.0762 -0.0011
12828TIP3    H159899   5.160   1.564   2.623  0.6591  0.3966  0.1349
12828TIP3    H259900   5.136   1.421   2.666 -0.1284  0.1762 -0.9968
12829TIP3   OH259901   4.970   2.847  13.247  0.4548 -0.1066  0.3971
12829TIP3    H159902   4.998   2.795  13.171 -2.4117  0.3126 -1.0164
12829TIP3    H259903   4.978   2.787  13.321 -1.5518 -2.1972 -1.0153
12830TIP3   OH259904   0.290   6.768   5.221 -0.5360  0.0747  0.1965
12830TIP3    H159905   0.316   6.810   5.139  0.5293 -1.2109 -0.1417
12830TIP3    H259906   0.194   6.774   5.222 -0.4061  2.9054  0.4019
12831TIP3   OH259907   4.741   5.654   0.528  0.3854  0.3229 -0.2696
12831TIP3    H159908   4.729   5.593   0.600  1.9721  0.7182  0.3487
12831TIP3    H259909   4.714   5.739   0.564 -0.8274  0.1740 -0.8050
12832TIP3   OH259910   2.531   6.772  12.920  0.4784  0.0308  0.4747
12832TIP3    H159911   2.512   6.756  12.828  2.0154 -1.5427  0.4026
12832TIP3    H259912   2.592   6.702  12.944  0.3456  0.6222  2.5950
12833TIP3   OH259913   3.784   0.261  15.504 -0.0602 -0.0343  0.5673
12833TIP3    H159914   3.874   0.229  15.493  0.3500  1.1743  0.3655
12833TIP3    H259915   3.762   0.301  15.420  0.0667  1.7779  1.3829
12834TIP3   OH259916   3.209   0.448   0.623  0.1023  0.0046  0.0168
12834TIP3    H159917   3.213   0.418   0.713  1.6434 -2.5907 -0.8688
12834TIP3    H259918   3.296   0.487   0.606  0.4252 -1.0496 -0.8317
12835TIP3   OH259919   1.913   2.186   0.879  0.0679  0.7149  0.2758
12835TIP3    H159920   1.973   2.120   0.843 -0.4263 -0.2442  1.1979
12835TIP3    H259921   1.962   2.268   0.872  0.7897  0.2274 -0.6463
12836TIP3   OH259922   0.379   0.203   0.738  0.2663 -0.3766 -0.0467
12836TIP3    H159923   0.417   0.167   0.818  0.4677  1.3395  0.6624
12836TIP3    H259924   0.389   0.298   0.748  0.5253 -0.1447 -2.2123
12837TIP3   OH259925   2.219   0.980  12.700  0.2288  0.4658 -0.4014
12837TIP3    H159926   2.159   1.040  12.744  0.6441  0.0932  0.6744
12837TIP3    H259927   2.307   1.013  12.721  0.5089 -1.4032  1.4983
12838TIP3   OH259928   5.158   3.626  15.745  0.2533 -0.2616  0.6263
12838TIP3    H159929   5.113   3.545  15.768 -1.5709  1.0850  1.9777
12838TIP3    H259930   5.094   3.695  15.762  1.8793  1.5032 -0.1659
12839TIP3   OH259931   3.503   4.130   2.542 -0.0879  0.8271  0.0302
12839TIP3    H159932   3.436   4.174   2.490 -0.1529  2.1509  1.1783
12839TIP3    H259933   3.498   4.174   2.628  0.9658 -0.3365  0.6960
12840TIP3   OH259934   1.324   5.614  17.165 -0.5742  0.3542 -0.2561
12840TIP3    H159935   1.354   5.526  17.190 -1.6541  0.3987  1.2884
12840TIP3    H259936   1.383   5.641  17.095 -0.5982 -1.8591 -1.1740
12841TIP3   OH259937   4.603   1.742   5.003  0.4638 -0.0973  0.1186
12841TIP3    H159938   4.661   1.696   4.942  0.4184 -1.2420  0.9262
12841TIP3    H259939   4.610   1.693   5.085 -1.2079  0.0989  0.3950
12842TIP3   OH259940   6.316   1.811  16.534  0.3421  0.0179 -0.6249
12842TIP3    H159941   6.284   1.885  16.586  1.5016 -1.6374  2.5960
12842TIP3    H259942   6.410   1.807  16.553  0.1394 -2.8176  0.0303
12843TIP3   OH259943   1.582   5.865   3.227  0.9495 -0.0855 -0.2733
12843TIP3    H159944   1.525   5.938   3.201  0.7213 -0.1573  0.0226
12843TIP3    H259945   1.545   5.834   3.309  0.7602 -0.8458 -0.6393
12844TIP3   OH259946   3.467   2.446   4.034  0.6212  0.2764 -0.1916
12844TIP3    H159947   3.481   2.419   3.943  0.2897  1.7270 -0.6872
12844TIP3    H259948   3.442   2.365   4.079 -1.5490 -0.0587 -1.9023
12845TIP3   OH259949   0.005   6.182   4.810 -0.5125 -0.5111  0.7798
12845TIP3    H159950  -0.029   6.217   4.892 -2.0159 -0.7956  0.2964
12845TIP3    H259951  -0.056   6.112   4.787 -0.6380  0.1763 -1.0430
12846TIP3   OH259952   2.415   1.432  14.667 -0.3055 -0.1279  0.0881
12846TIP3    H159953   2.384   1.457  14.754  1.8917  0.8384  0.6107
12846TIP3    H259954   2.466   1.507  14.637 -0.2829 -0.8227 -1.6713
12847TIP3   OH259955   3.812   0.436   1.842 -0.7239 -0.2967 -0.2974
12847TIP3    H159956   3.736   0.438   1.900  1.5466 -0.5710  2.8613
12847TIP3    H259957   3.806   0.352   1.797 -2.8598  0.1811 -0.9602
12848TIP3   OH259958   3.351   0.385  11.541 -0.1661  0.2208  0.2766
12848TIP3    H159959   3.440   0.385  11.576 -0.1949 -1.3296  0.3672
12848TIP3    H259960   3.335   0.477  11.517  2.0492  0.2181 -1.2911
12849TIP3   OH259961   2.145   0.940  13.943  0.0385  0.5327  0.1657
12849TIP3    H159962   2.178   0.947  14.032  0.2218  0.1305  0.1264
12849TIP3    H259963   2.207   0.882  13.898  0.5174  1.5205 -0.4920
12850TIP3   OH259964   5.537   4.426  13.592  0.2830  0.2918 -0.7109
12850TIP3    H159965   5.545   4.359  13.660  1.2124  1.0135 -0.0935
12850TIP3    H259966   5.627   4.453  13.575 -0.2094  3.2300  0.9252
12851TIP3   OH259967   2.168   0.213  14.138 -0.1502 -0.2528  0.4252
12851TIP3    H159968   2.093   0.153  14.142  0.4010 -0.9928 -0.1956
12851TIP3    H259969   2.130   0.299  14.151 -0.6333 -0.9264  4.0296
12852TIP3   OH259970   1.573   3.457   1.998 -0.2197  0.0262  0.4763
12852TIP3    H159971   1.648   3.438   1.942  1.4240  1.8146  2.0160
12852TIP3    H259972   1.504   3.483   1.937  0.6905 -0.6630 -0.8827
12853TIP3   OH259973   4.603   4.458  11.398  0.2085  0.4108  0.6751
12853TIP3    H159974   4.664   4.532  11.405  1.0555 -0.1064 -0.9960
12853TIP3    H259975   4.585   4.450  11.305 -0.6343 -0.8932  0.9372
12854TIP3   OH259976   3.162   4.755   0.934  0.2506 -0.0795  0.2246
12854TIP3    H159977   3.083   4.730   0.982 -0.4629  1.2140 -0.2515
12854TIP3    H259978   3.130   4.779   0.847  1.4393 -1.6213 -0.6540
12855TIP3   OH259979   1.907   2.946   4.423  0.1215 -0.0598  0.2436
12855TIP3    H159980   1.982   2.905   4.379 -0.6875 -0.2405 -0.9897
12855TIP3    H259981   1.842   2.876   4.430  0.0181  0.1317  1.1973
12856TIP3   OH259982   4.315   0.365   4.882  0.2364  0.6684 -0.8431
12856TIP3    H159983   4.362   0.344   4.801 -1.5144 -2.4778 -1.1385
12856TIP3    H259984   4.223   0.359   4.859 -0.2943  0.6300  1.1536
12857TIP3   OH259985   5.893   3.439   5.341  0.1975  0.1163 -0.0594
12857TIP3    H159986   5.956   3.466   5.274  0.5619  0.3911  0.3936
12857TIP3    H259987   5.938   3.369   5.389  0.7569  1.3425  1.2349
12858TIP3   OH259988   3.732   0.214   1.656  0.3672 -0.6558 -0.1200
12858TIP3    H159989   3.638   0.233   1.646  0.6143  0.8083  0.2455
12858TIP3    H259990   3.751   0.152   1.586 -0.6668 -0.1822 -0.8438
12859TIP3   OH259991   4.681   6.313  13.665 -0.1567  0.0895 -0.2093
12859TIP3    H159992   4.741   6.388  13.674  1.8054 -1.6131  1.4523
12859TIP3    H259993   4.613   6.329  13.730  1.0563 -0.2943  1.1671
12860TIP3   OH259994   5.520   5.801  14.733  0.3203  0.0234  0.1013
12860TIP3    H159995   5.448   5.761  14.783  0.8188  0.2132  0.9879
12860TIP3    H259996   5.503   5.777  14.642  0.4217 -1.9235  0.5748
12861TIP3   OH259997   5.802   5.672   5.031 -0.0656  0.3277  0.1528
12861TIP3    H159998   5.842   5.585   5.039 -0.4409 -0.0212 -1.6833
12861TIP3    H259999   5.868   5.725   4.987 -0.3620  0.6231  0.0620
12862TIP3   OH260000   3.943   3.452   2.078  0.3500  0.0972  0.1426
12862TIP3    H160001   3.912   3.362   2.093 -1.5362  0.8051  0.6259
12862TIP3    H260002   3.974   3.452   1.987  2.2623 -1.5501  0.7525
12863TIP3   OH260003   5.302   6.497   1.085  0.4257 -0.0949 -0.2058
12863TIP3    H160004   5.282   6.590   1.090 -1.1504 -0.4895  1.1222
12863TIP3    H260005   5.221   6.453   1.110  1.4107 -1.8210  0.0616
12864TIP3   OH260006   4.136   3.697   1.268 -0.1049  0.0575  0.9984
12864TIP3    H160007   4.055   3.734   1.304 -0.5220 -1.2944  1.4865
12864TIP3    H260008   4.204   3.729   1.327 -0.1908  1.7149  0.2258
12865TIP3   OH260009   5.252   3.591   0.589  0.0938 -0.4608 -0.2633
12865TIP3    H160010   5.339   3.629   0.578 -0.2074 -0.2925 -2.3490
12865TIP3    H260011   5.256   3.508   0.541 -0.8079 -0.5932 -0.1249
12866TIP3   OH260012   2.524   1.901  13.990 -0.5302 -0.2428  0.2813
12866TIP3    H160013   2.497   1.993  13.982  0.6403  0.0903  0.1246
12866TIP3    H260014   2.488   1.874  14.075  0.1162  0.7086  0.8775
12867TIP3   OH260015   0.196   0.143  16.719  0.2025 -0.4421  0.1208
12867TIP3    H160016   0.124   0.100  16.765 -1.1663  0.1236 -1.4865
12867TIP3    H260017   0.167   0.233  16.707  1.4049 -0.0722 -0.0914
12868TIP3   OH260018   0.439   6.297   5.279  0.1778 -0.0208 -0.3956
12868TIP3    H160019   0.400   6.275   5.364 -0.0391  0.6196 -0.3247
12868TIP3    H260020   0.527   6.327   5.299  0.4660 -0.7926 -0.4904
12869TIP3   OH260021   4.873   5.258  12.760  0.2425  0.3192  0.2474
12869TIP3    H160022   4.788   5.265  12.716 -0.2723 -1.8743  0.8470
12869TIP3    H260023   4.854   5.276  12.852 -0.1861 -3.1583  0.9202
12870TIP3   OH260024   6.409   5.726  15.414 -0.0526  0.6348  0.3317
12870TIP3    H160025   6.445   5.813  15.402 -0.5809  0.5494 -2.2414
12870TIP3    H260026   6.316   5.741  15.431  0.2195  0.6319  1.9210
12871TIP3   OH260027   0.740   2.563   0.291  0.2525 -0.5390 -0.4340
12871TIP3    H160028   0.779   2.489   0.337 -2.0866 -0.5654  1.6294
12871TIP3    H260029   0.683   2.523   0.225 -0.8480 -0.5734  0.5383
12872TIP3   OH260030   5.856   5.736   3.730  0.1395  0.7066  0.2430
12872TIP3    H160031   5.910   5.737   3.651  0.0389 -0.4454  0.1521
12872TIP3    H260032   5.905   5.787   3.794 -0.1825  2.3917 -0.8269
12873TIP3   OH260033   6.488   4.063   5.457 -0.3332  0.1712  0.6244
12873TIP3    H160034   6.476   4.040   5.550 -0.5383 -1.4012  0.2235
12873TIP3    H260035   6.432   4.140   5.444  0.9436  1.4063  2.1893
12874TIP3   OH260036   6.774   1.725   4.652 -0.1942 -0.3048 -0.1882
12874TIP3    H160037   6.701   1.664   4.663  0.0263 -0.4901  0.2691
12874TIP3    H260038   6.819   1.724   4.737  0.9883 -1.0227 -0.8078
12875TIP3   OH260039   2.124   5.891  16.423  0.1599  0.1781 -0.1002
12875TIP3    H160040   2.096   5.806  16.389  0.8810 -0.4098  0.7511
12875TIP3    H260041   2.214   5.901  16.391 -0.2292  1.0267 -0.9383
12876TIP3   OH260042   1.514   4.225  10.618  0.1316 -0.2458  0.1289
12876TIP3    H160043   1.490   4.185  10.534 -0.3840  0.9343 -0.3020
12876TIP3    H260044   1.599   4.267  10.600  1.0328 -1.7458  0.7815
12877TIP3   OH260045   3.043   6.526  12.882 -0.0313  0.3763  0.3715
12877TIP3    H160046   3.106   6.549  12.950 -0.8560 -1.5257  1.8348
12877TIP3    H260047   2.998   6.449  12.916 -2.0778  0.7713 -1.3340
12878TIP3   OH260048   0.194   4.633  13.831  0.1007  0.4228 -0.5973
12878TIP3    H160049   0.256   4.704  13.814 -1.4018  1.8003 -0.3858
12878TIP3    H260050   0.195   4.623  13.927 -0.5968  0.9953 -0.5261
12879TIP3   OH260051   6.081   0.620   0.572 -0.3743  0.5273  0.5699
12879TIP3    H160052   6.153   0.572   0.612 -0.4247  0.0155  0.0525
12879TIP3    H260053   6.090   0.603   0.478  0.4785  2.7074  0.2281
12880TIP3   OH260054   0.666   6.730  14.030 -0.3586 -0.2058  0.4474
12880TIP3    H160055   0.725   6.676  14.081 -1.0310 -1.1193  0.2755
12880TIP3    H260056   0.626   6.790  14.093 -0.3737 -0.5984  0.8069
12881TIP3   OH260057   3.781   5.712  11.733  0.1231  0.3335  0.6612
12881TIP3    H160058   3.858   5.655  11.740  0.6053  0.8942  0.0372
12881TIP3    H260059   3.812   5.798  11.761 -0.4685  0.4055  1.1002
12882TIP3   OH260060   2.674   2.202   3.305 -0.3853 -0.7611  0.2858
12882TIP3    H160061   2.658   2.263   3.233  0.6892 -1.4765 -0.5668
12882TIP3    H260062   2.693   2.259   3.380  0.2236 -0.0428 -0.4071
12883TIP3   OH260063   4.642   1.489  10.830  0.2391  0.0066 -0.0205
12883TIP3    H160064   4.675   1.462  10.915 -0.0137  0.5865  0.2595
12883TIP3    H260065   4.692   1.436  10.767  0.9194  0.0879  0.4507
12884TIP3   OH260066   4.210   5.740  13.960  0.3087 -0.2327  0.2589
12884TIP3    H160067   4.131   5.788  13.938 -0.2549  0.2378  3.0852
12884TIP3    H260068   4.223   5.680  13.887 -1.8963  0.6219 -0.8716
12885TIP3   OH260069   1.394   4.217  15.559  0.7407  0.4580 -1.1363
12885TIP3    H160070   1.323   4.156  15.539  0.5584 -0.4368  1.9627
12885TIP3    H260071   1.459   4.200  15.490 -1.1015 -0.2078 -2.7852
12886TIP3   OH260072   6.316   1.474  12.523 -0.5712 -0.3280 -0.4725
12886TIP3    H160073   6.378   1.527  12.473 -0.6343 -0.0875 -0.2953
12886TIP3    H260074   6.369   1.402  12.557  0.0028  0.8073  1.1288
12887TIP3   OH260075   2.301   3.386  17.035 -0.1435 -0.1484  0.3572
12887TIP3    H160076   2.312   3.477  17.009  1.1222 -0.7350 -1.2764
12887TIP3    H260077   2.281   3.389  17.129 -2.7022  1.9431 -0.2012
12888TIP3   OH260078   2.158   5.778  16.861 -0.1227 -0.0507 -0.3703
12888TIP3    H160079   2.110   5.841  16.806  0.4710  1.3186  0.6568
12888TIP3    H260080   2.207   5.832  16.922 -0.1883 -1.5576  1.0397
12889TIP3   OH260081   5.539   5.384  16.457 -0.6378  0.1860  0.0029
12889TIP3    H160082   5.584   5.462  16.488 -1.1573 -0.3023  2.0967
12889TIP3    H260083   5.528   5.330  16.536  0.3187 -2.2901 -1.5091
12890TIP3   OH260084   0.595   3.124  14.715 -0.0611  0.3443  0.0499
12890TIP3    H160085   0.620   3.096  14.627 -0.8787 -0.8002  0.1755
12890TIP3    H260086   0.500   3.116  14.717  0.0936 -1.2653  1.5853
12891TIP3   OH260087   3.360   0.476   5.797  0.8449  0.1290  0.0604
12891TIP3    H160088   3.299   0.414   5.837 -0.5342 -0.3929 -2.7454
12891TIP3    H260089   3.442   0.463   5.844 -0.6442 -0.5579  2.5783
12892TIP3   OH260090   2.154   1.841   0.499  0.3004  0.2403  0.2129
12892TIP3    H160091   2.091   1.911   0.479 -0.8268 -0.0834  2.4230
12892TIP3    H260092   2.195   1.869   0.581 -0.2238 -1.7216  1.1571
12893TIP3   OH260093   2.753   3.399  13.522 -0.2517  0.1852 -0.2194
12893TIP3    H160094   2.848   3.396  13.529 -0.2827 -1.6132 -0.4995
12893TIP3    H260095   2.726   3.457  13.593  1.0321  0.6326 -0.0733
12894TIP3   OH260096   4.575   4.782  14.029 -0.3334 -0.5777  0.0342
12894TIP3    H160097   4.586   4.854  13.967 -1.5439 -0.6741 -0.3056
12894TIP3    H260098   4.521   4.718  13.982 -0.0669 -1.2834  0.6779
12895TIP3   OH260099   4.695   1.434   1.152 -0.4775 -0.3912  0.2364
12895TIP3    H160100   4.690   1.434   1.056 -4.3376  1.6056  0.3239
12895TIP3    H260101   4.621   1.380   1.180  0.4173 -0.6818  2.1120
12896TIP3   OH260102   0.769   3.878  13.432 -0.0591 -0.1986 -0.4471
12896TIP3    H160103   0.819   3.832  13.499  0.7817 -0.1605 -1.0390
12896TIP3    H260104   0.827   3.879  13.355 -0.4980  0.8834 -0.7712
12897TIP3   OH260105   4.192   5.563   1.340  0.8494 -0.6660  0.0266
12897TIP3    H160106   4.120   5.621   1.362  0.5870 -1.6687  1.8853
12897TIP3    H260107   4.152   5.477   1.329  1.4431 -0.7955 -1.2073
12898TIP3   OH260108   2.358   3.488  15.944  0.7484  0.1154 -0.1662
12898TIP3    H160109   2.389   3.503  15.855  1.3456 -1.8235 -0.3136
12898TIP3    H260110   2.433   3.511  16.000  0.6137  0.6363 -0.1960
12899TIP3   OH260111   1.859   0.998   0.590 -0.4423  0.5631  0.3578
12899TIP3    H160112   1.918   0.923   0.594  0.0819  0.8242 -1.9441
12899TIP3    H260113   1.917   1.074   0.594 -0.7290  0.8237 -0.3173
12900TIP3   OH260114   1.076   5.363   0.992 -0.3271 -0.1526 -0.4726
12900TIP3    H160115   1.093   5.445   1.037 -0.8291 -1.1700  1.6135
12900TIP3    H260116   1.154   5.310   1.008  0.3402  0.1778 -2.4833
12901TIP3   OH260117   4.471   1.438  16.136  0.2436  0.0895 -0.6472
12901TIP3    H160118   4.443   1.430  16.045  1.2653 -2.6216 -0.7524
12901TIP3    H260119   4.397   1.478  16.180  0.1960  2.6585 -2.8693
12902TIP3   OH260120   1.134   4.843   0.416 -0.1562  0.2662  0.0160
12902TIP3    H160121   1.051   4.838   0.463 -0.4652 -0.1808 -0.5739
12902TIP3    H260122   1.169   4.930   0.437  0.1817 -0.2994  1.8475
12903TIP3   OH260123   0.332   4.554  14.453  0.4114 -0.0782 -0.0874
12903TIP3    H160124   0.260   4.615  14.466  1.3830  0.8197  1.2884
12903TIP3    H260125   0.384   4.593  14.382  1.1098  0.7824  0.8886
12904TIP3   OH260126   2.193   1.992  16.702 -0.2731  0.4047  0.3956
12904TIP3    H160127   2.152   2.021  16.621 -1.1423  1.8571  1.3381
12904TIP3    H260128   2.281   1.963  16.676 -0.9599 -0.2691 -1.2260
12905TIP3   OH260129   0.877   0.570   1.114  0.1473 -0.0123  0.2711
12905TIP3    H160130   0.785   0.562   1.139 -0.2869  0.5533 -1.0922
12905TIP3    H260131   0.896   0.664   1.120  0.8267 -0.2004  1.1757
12906TIP3   OH260132   5.762   5.032  16.142  0.8189  0.8436  0.2396
12906TIP3    H160133   5.691   5.070  16.193  0.4433  0.2046  0.2019
12906TIP3    H260134   5.803   4.969  16.202 -0.2452 -0.6342 -0.5548
12907TIP3   OH260135   0.008   1.890  13.700  0.2846  0.2162  0.0866
12907TIP3    H160136  -0.058   1.938  13.650 -0.1146  0.5271  0.8926
12907TIP3    H260137   0.039   1.823  13.641 -0.0385  0.7064 -0.6464
12908TIP3   OH260138   2.568   6.056   4.191 -0.2421  0.1360 -0.8200
12908TIP3    H160139   2.599   6.022   4.275  0.1613  0.7995 -0.6943
12908TIP3    H260140   2.536   5.979   4.144 -0.0898 -0.2967 -0.2207
12909TIP3   OH260141   3.176   3.048   0.467 -0.6858  0.2192 -0.0767
12909TIP3    H160142   3.138   2.969   0.428 -0.3783 -0.3388  0.7188
12909TIP3    H260143   3.245   3.074   0.406 -0.3256 -0.5401 -0.0024
12910TIP3   OH260144   3.435   5.217   0.357  0.1016  0.2552 -0.0064
12910TIP3    H160145   3.432   5.233   0.263  1.0099  0.3197 -0.0333
12910TIP3    H260146   3.431   5.304   0.397 -1.1313  0.1777  0.0415
12911TIP3   OH260147   5.362   4.886  15.410  0.4013 -0.6899  0.5087
12911TIP3    H160148   5.319   4.946  15.471  0.5723  0.7200 -0.7246
12911TIP3    H260149   5.425   4.839  15.463 -0.8945 -0.9791  1.8363
12912TIP3   OH260150   0.448   3.827   4.257  0.2506 -0.1012 -0.2635
12912TIP3    H160151   0.417   3.755   4.202 -2.6904  2.1901 -1.8487
12912TIP3    H260152   0.515   3.871   4.204  0.4031 -0.3536 -0.2760
12913TIP3   OH260153   5.624   4.602   4.936  0.1919 -0.4605 -0.4691
12913TIP3    H160154   5.566   4.526   4.921 -0.5129 -0.0231 -0.0118
12913TIP3    H260155   5.711   4.571   4.911 -0.4062 -0.8119 -2.1733
12914TIP3   OH260156   0.851   3.117   5.614 -0.4454 -0.2384 -0.2845
12914TIP3    H160157   0.907   3.195   5.618  0.4182 -0.9435  2.4912
12914TIP3    H260158   0.893   3.061   5.549 -0.7219  1.2929 -1.8372
12915TIP3   OH260159   5.140   5.171   5.451  0.2029 -0.2640 -0.5853
12915TIP3    H160160   5.119   5.118   5.528  0.9926 -1.9349 -1.4918
12915TIP3    H260161   5.065   5.230   5.441 -0.1307 -0.3531  1.1658
12916TIP3   OH260162   2.692   2.184  12.733 -0.1605 -0.1814  0.0025
12916TIP3    H160163   2.772   2.149  12.770  0.4594 -0.6836 -1.7785
12916TIP3    H260164   2.622   2.149  12.788  0.8444  0.5084  1.7415
12917TIP3   OH260165   4.314   0.159  12.404  0.1997 -0.4859 -0.4864
12917TIP3    H160166   4.386   0.112  12.361  0.2429  0.4249 -1.4490
12917TIP3    H260167   4.256   0.184  12.332  0.8048  1.9978 -0.1776
12918TIP3   OH260168   1.513   4.609  15.744 -0.1294 -0.2681  0.0155
12918TIP3    H160169   1.601   4.614  15.781 -1.1491 -0.4956  2.5877
12918TIP3    H260170   1.468   4.544  15.798 -2.2443  0.7372 -0.4755
12919TIP3   OH260171   6.387   1.089  11.587 -0.0263 -0.6817  0.1119
12919TIP3    H160172   6.357   1.113  11.499  0.2495  1.2383  0.5164
12919TIP3    H260173   6.320   1.124  11.645  0.7993 -0.1792  0.7748
12920TIP3   OH260174   3.695   1.142  10.790  0.0564 -0.4637  0.2209
12920TIP3    H160175   3.624   1.107  10.736  1.2224 -0.6678 -1.2427
12920TIP3    H260176   3.685   1.237  10.785 -0.8494 -0.5157  1.0439
12921TIP3   OH260177   2.932   1.875   0.202  0.0338 -0.1719 -0.4126
12921TIP3    H160178   2.905   1.941   0.138 -0.2078  0.5858  0.4621
12921TIP3    H260179   2.852   1.826   0.221 -0.1958  0.4722  0.3120
12922TIP3   OH260180   3.659   6.479   0.732 -0.2641 -0.6914  0.7147
12922TIP3    H160181   3.714   6.488   0.655 -2.1347  1.6823 -0.4265
12922TIP3    H260182   3.675   6.560   0.782 -1.5740 -0.6555  1.0924
12923TIP3   OH260183   0.323   2.935   5.884 -0.6323  0.5132 -0.3170
12923TIP3    H160184   0.310   2.843   5.910 -1.2899  0.3782 -1.0991
12923TIP3    H260185   0.418   2.944   5.875 -0.5111  0.1262  0.5526
12924TIP3   OH260186   1.506   4.633  12.557  0.0306 -0.3833 -0.0199
12924TIP3    H160187   1.459   4.658  12.636 -0.4152  2.2306 -1.0558
12924TIP3    H260188   1.451   4.567  12.515 -1.2692  0.5014  0.2804
12925TIP3   OH260189   5.821   5.295  12.633 -0.2006  0.0363 -0.1766
12925TIP3    H160190   5.914   5.274  12.623 -0.6334 -0.5652 -3.2900
12925TIP3    H260191   5.814   5.327  12.723  3.0547  0.3038  0.0541
12926TIP3   OH260192   4.021   1.597   2.306  0.0430 -0.0023  0.0395
12926TIP3    H160193   3.975   1.630   2.383 -1.1171  0.7594 -0.9500
12926TIP3    H260194   4.005   1.503   2.307  1.0089 -0.1535  1.3557
12927TIP3   OH260195   6.611   5.087   0.989  0.0372  0.5533  0.3246
12927TIP3    H160196   6.567   5.022   0.935 -0.9097  0.0758  1.6619
12927TIP3    H260197   6.655   5.037   1.057 -1.9106  1.3753  2.2392
12928TIP3   OH260198   0.931   0.063  10.718  0.1069 -0.2299 -1.1411
12928TIP3    H160199   0.913  -0.031  10.712 -1.1491 -0.0736 -0.1103
12928TIP3    H260200   1.026   0.068  10.731 -0.3140 -1.6272  3.4489
12929TIP3   OH260201   2.169   1.324   0.155 -0.7052  0.3692  0.3172
12929TIP3    H160202   2.166   1.385   0.229 -0.4069 -0.1213  0.7343
12929TIP3    H260203   2.086   1.278   0.159 -1.6788  1.9522 -1.0337
12930TIP3   OH260204   2.920   2.610   2.332  0.3808  0.0334 -0.1816
12930TIP3    H160205   2.991   2.613   2.396 -0.3386  0.5405  0.6108
12930TIP3    H260206   2.850   2.662   2.372  0.0841  0.7445 -1.5891
12931TIP3   OH260207   0.039   3.001  15.030 -0.5013  0.0542 -0.1460
12931TIP3    H160208   0.020   2.909  15.048  1.3533 -0.3041  0.0996
12931TIP3    H260209   0.091   3.031  15.105 -0.5942  1.1331 -0.4932
12932TIP3   OH260210   0.929   6.309  15.338  0.1255  0.0086 -0.2321
12932TIP3    H160211   0.935   6.255  15.417 -1.6422  0.7168  0.3989
12932TIP3    H260212   0.840   6.294  15.306  0.0595  1.5320 -0.7762
12933TIP3   OH260213   1.637   0.314   4.835 -0.0870  0.0773  0.8912
12933TIP3    H160214   1.721   0.297   4.877  0.2205  3.4817  1.7962
12933TIP3    H260215   1.630   0.247   4.766  2.8693 -0.8556  1.4428
12934TIP3   OH260216   3.586   6.474  14.069  0.9855 -0.2223  0.2969
12934TIP3    H160217   3.617   6.546  14.014  1.2325 -1.0707 -0.7052
12934TIP3    H260218   3.582   6.399  14.009  0.5230 -0.9825  1.2718
12935TIP3   OH260219   0.607   1.907   3.987  0.8444  0.7754 -0.3303
12935TIP3    H160220   0.646   1.820   3.995 -0.8675  0.1854  2.3456
12935TIP3    H260221   0.656   1.961   4.050 -0.0091  0.9966  0.1588
12936TIP3   OH260222   1.016   6.292   2.203 -0.0824 -0.2538  0.3516
12936TIP3    H160223   0.999   6.323   2.292  0.9302 -0.8856  0.7711
12936TIP3    H260224   1.077   6.219   2.214  1.1144  0.5285 -0.9598
12937TIP3   OH260225   3.522   4.286  17.085 -0.5456 -0.1683 -0.1334
12937TIP3    H160226   3.539   4.347  17.012  0.2612  0.8032  0.8395
12937TIP3    H260227   3.591   4.220  17.077 -1.4622 -1.0186 -1.2334
12938TIP3   OH260228   3.425   2.594  13.568 -0.2276 -0.1012 -0.3814
12938TIP3    H160229   3.331   2.597  13.586 -0.1181  2.3854  0.0062
12938TIP3    H260230   3.443   2.503  13.545 -2.3040 -1.0869  1.7433
12939TIP3   OH260231   1.077   4.772   1.148  0.5235  0.5447 -0.3940
12939TIP3    H160232   1.064   4.863   1.124 -1.3848  0.8043  1.4386
12939TIP3    H260233   1.123   4.775   1.232 -1.7372 -0.0660  0.9244
12940TIP3   OH260234   0.228   0.033  11.722 -0.1279 -0.4677 -0.1363
12940TIP3    H160235   0.245   0.111  11.774  0.0891 -1.3101  1.0741
12940TIP3    H260236   0.315  -0.005  11.708 -0.5112 -2.2175  2.0236
12941TIP3   OH260237   3.235   6.346  12.083 -0.1515  0.1329 -0.1459
12941TIP3    H160238   3.177   6.417  12.111 -1.2839 -1.2919  1.1976
12941TIP3    H260239   3.323   6.373  12.111 -0.5148  1.1910 -0.0411
12942TIP3   OH260240   1.171   1.253  11.768  0.0033 -0.3704 -0.1866
12942TIP3    H160241   1.076   1.262  11.760 -0.1005 -0.6054  0.6983
12942TIP3    H260242   1.205   1.275  11.681 -0.6955  2.0505  0.1150
12943TIP3   OH260243   0.058   1.884   5.066 -0.1741 -0.0347 -0.4712
12943TIP3    H160244   0.051   1.942   4.989  0.3463 -1.4141 -1.5774
12943TIP3    H260245  -0.001   1.923   5.130 -0.6101  1.1650 -1.5696
12944TIP3   OH260246   1.935   5.487  15.619 -0.4652  1.0117  0.1371
12944TIP3    H160247   1.962   5.433  15.544 -1.2810  1.3052 -0.3644
12944TIP3    H260248   1.999   5.558  15.622  0.5301  0.1133  0.7105
12945TIP3   OH260249   3.712   5.573  16.159  0.5446 -0.2124 -0.9514
12945TIP3    H160250   3.631   5.523  16.142 -0.4856  0.7159  1.1014
12945TIP3    H260251   3.769   5.511  16.204 -0.7794  0.4219  1.7078
12946TIP3   OH260252   2.652   5.054  14.441 -0.5163 -0.1011  0.1825
12946TIP3    H160253   2.567   5.014  14.461  0.1605 -1.0963  1.1046
12946TIP3    H260254   2.696   4.990  14.387 -1.2904  1.4587 -2.3720
12947TIP3   OH260255   5.664   3.107  14.053  0.4810 -0.1963  0.2698
12947TIP3    H160256   5.569   3.119  14.054  0.8164  2.9040  0.2186
12947TIP3    H260257   5.690   3.119  14.145  1.0410  1.2299 -0.0632
12948TIP3   OH260258   1.959   2.944   0.497  0.3145 -0.0261  0.8108
12948TIP3    H160259   2.043   2.939   0.543  0.0935  1.3961  1.4181
12948TIP3    H260260   1.952   3.035   0.469  0.3359 -0.8165 -1.9072
12949TIP3   OH260261   1.626   1.445   5.508 -0.6208 -0.5132 -0.1214
12949TIP3    H160262   1.685   1.385   5.462 -0.6186  0.3368 -1.2372
12949TIP3    H260263   1.589   1.393   5.579  0.3269 -1.4815 -0.3343
12950TIP3   OH260264   2.142   3.892  14.657 -0.1692 -0.2296  0.3223
12950TIP3    H160265   2.119   3.899  14.750  0.0489  2.4469  0.2188
12950TIP3    H260266   2.131   3.981  14.623 -1.2687 -1.3876 -2.4716
12951TIP3   OH260267   2.939   1.211   3.596 -0.1732 -0.2863  0.1046
12951TIP3    H160268   3.026   1.192   3.631 -0.0247  0.1442 -0.0270
12951TIP3    H260269   2.955   1.242   3.507 -0.4631 -0.2129  0.0758
12952TIP3   OH260270   2.414   5.246   1.429 -0.4786 -0.3936 -0.3432
12952TIP3    H160271   2.481   5.292   1.479 -0.0166 -0.8649 -0.5236
12952TIP3    H260272   2.382   5.178   1.488 -1.2989  0.2756 -0.0077
12953TIP3   OH260273   3.454   2.984  13.963  0.6989  0.4243  0.2461
12953TIP3    H160274   3.511   2.984  13.886 -0.7706 -0.4729 -0.8755
12953TIP3    H260275   3.513   3.003  14.036  2.4800 -0.7368 -0.8414
12954TIP3   OH260276   0.866   3.380   4.454 -0.0045 -0.1797  0.3085
12954TIP3    H160277   0.814   3.377   4.374 -0.9646  0.5194  0.8925
12954TIP3    H260278   0.932   3.447   4.438 -1.9838  2.0451  1.1305
12955TIP3   OH260279   5.425   6.075  15.254 -0.2837  0.2183 -0.1955
12955TIP3    H160280   5.432   6.006  15.188  0.8851  0.2886 -0.1455
12955TIP3    H260281   5.342   6.119  15.233 -0.9708 -1.1061 -0.3047
12956TIP3   OH260282   5.520   3.782   1.739  0.3319 -0.2326 -0.0074
12956TIP3    H160283   5.441   3.737   1.709 -0.5458  0.6242  1.0280
12956TIP3    H260284   5.539   3.846   1.670 -0.3961  0.1950  0.1936
12957TIP3   OH260285   6.109   2.469   5.626  0.2879  0.3706 -0.2543
12957TIP3    H160286   6.188   2.520   5.641  1.0549 -0.7209 -0.5205
12957TIP3    H260287   6.092   2.477   5.532 -0.8419  1.9064  0.0539
12958TIP3   OH260288   4.674   3.956  15.611 -0.3337  0.0022  0.2270
12958TIP3    H160289   4.607   3.913  15.559  0.2272 -1.6655  0.8669
12958TIP3    H260290   4.643   4.047  15.620 -1.2440 -0.1125 -1.5843
12959TIP3   OH260291   4.933   1.702  11.222 -0.5263 -0.1908  0.1210
12959TIP3    H160292   4.963   1.624  11.268 -0.6453  1.4079  3.0319
12959TIP3    H260293   4.848   1.722  11.261 -1.5209  0.1558 -2.1464
12960TIP3   OH260294   5.022   0.568  15.408 -1.1919  0.3578 -0.0052
12960TIP3    H160295   5.011   0.662  15.399 -0.3416  0.4652  0.0257
12960TIP3    H260296   4.979   0.531  15.330 -0.0424  0.8697 -0.8949
12961TIP3   OH260297   4.649   3.667  11.282  0.6877 -0.4981  0.2390
12961TIP3    H160298   4.589   3.723  11.234  0.5229 -1.6450 -0.9168
12961TIP3    H260299   4.594   3.627  11.350  0.0362 -1.8092 -1.0294
12962TIP3   OH260300   1.564   2.011   5.344  0.2308 -0.3506  0.3018
12962TIP3    H160301   1.618   2.020   5.266  0.3144 -1.3673  0.2413
12962TIP3    H260302   1.623   1.974   5.410 -1.0839 -4.2762 -0.5933
12963TIP3   OH260303   3.138   2.369   4.621 -0.3665  0.1851  0.2608
12963TIP3    H160304   3.074   2.378   4.691 -0.5111  1.6539 -0.0398
12963TIP3    H260305   3.218   2.407   4.656  0.7490 -2.8511  1.1157
12964TIP3   OH260306   6.211   3.202  16.750  0.2262  0.2937 -0.7342
12964TIP3    H160307   6.255   3.270  16.699 -0.7968  2.5080  1.2390
12964TIP3    H260308   6.145   3.166  16.691  0.0448  1.7701 -1.4325
12965TIP3   OH260309   2.659   3.105  11.578  1.2238  0.3326 -0.4160
12965TIP3    H160310   2.661   3.023  11.628  1.4034 -0.0110 -0.9809
12965TIP3    H260311   2.674   3.173  11.644  0.1267 -0.0148  0.2105
12966TIP3   OH260312   6.714   6.076   5.176  0.2996 -0.3244  0.4317
12966TIP3    H160313   6.718   5.984   5.150  1.4338 -0.5622  1.4054
12966TIP3    H260314   6.660   6.076   5.255 -0.7825  0.0304 -0.2900
12967TIP3   OH260315   4.457   4.682  12.705 -0.1528 -0.1959 -0.3406
12967TIP3    H160316   4.375   4.634  12.713 -0.5576  0.3753 -1.0074
12967TIP3    H260317   4.434   4.773  12.725  0.2423  0.0243 -0.8723
12968TIP3   OH260318   4.905   2.579   0.339 -0.5709 -0.0478  0.3077
12968TIP3    H160319   4.828   2.544   0.294  0.5162 -0.4294 -1.2872
12968TIP3    H260320   4.870   2.616   0.420 -1.7767 -4.9360  2.1865
12969TIP3   OH260321   5.986   6.417  16.305  0.4340 -0.6858  0.2299
12969TIP3    H160322   6.042   6.441  16.379 -0.7706  2.6461  0.1592
12969TIP3    H260323   5.907   6.382  16.346  0.6708 -0.9488  0.4648
12970TIP3   OH260324   3.008   5.106   2.531 -0.3271  0.2450  0.1556
12970TIP3    H160325   2.939   5.157   2.487 -0.6247  0.4476  0.8548
12970TIP3    H260326   3.076   5.097   2.465 -1.4573 -0.8362 -0.8901
12971TIP3   OH260327   3.447   0.698  16.865  0.4816  0.3113 -0.1952
12971TIP3    H160328   3.531   0.652  16.875  1.2831  1.7455 -0.2685
12971TIP3    H260329   3.471   0.789  16.849 -1.0869  0.6396 -0.7604
12972TIP3   OH260330   6.236   6.338   0.584 -0.0861 -0.0970  0.8206
12972TIP3    H160331   6.249   6.314   0.492 -0.5080 -1.1711  1.0299
12972TIP3    H260332   6.174   6.412   0.581 -1.1836 -1.0223  0.2991
12973TIP3   OH260333   4.468   0.156  14.934  0.2138  0.0805 -0.4593
12973TIP3    H160334   4.389   0.152  14.879 -0.0257  0.0270 -0.1082
12973TIP3    H260335   4.515   0.075  14.913 -1.5438 -1.6428  1.9426
12974TIP3   OH260336   0.672   0.134   6.167  0.7300  0.2303  0.1301
12974TIP3    H160337   0.605   0.193   6.133  1.5370 -0.2493 -2.3501
12974TIP3    H260338   0.649   0.124   6.260 -0.7870  2.5311  0.0498
12975TIP3   OH260339   2.742   3.338  11.728  0.3418  0.4146  0.1552
12975TIP3    H160340   2.817   3.325  11.786 -0.4001  1.1861  1.3028
12975TIP3    H260341   2.673   3.373  11.785 -0.9495 -0.4432 -0.8445
12976TIP3   OH260342   5.551   1.715  14.323  0.0568  0.1051 -0.4346
12976TIP3    H160343   5.617   1.690  14.387 -2.4499 -2.6580  1.2193
12976TIP3    H260344   5.559   1.648  14.254 -1.9056 -1.1300  0.4882
12977TIP3   OH260345   3.121   5.347  12.665 -0.7142 -0.2217  0.4456
12977TIP3    H160346   3.177   5.408  12.714 -1.2876  0.5764  0.1208
12977TIP3    H260347   3.045   5.399  12.640 -0.7176 -0.7816 -0.7617
12978TIP3   OH260348   1.358   1.901   1.938  0.2023  0.4642  0.1735
12978TIP3    H160349   1.426   1.968   1.933 -0.0537  0.7354  0.2670
12978TIP3    H260350   1.281   1.948   1.971 -0.3774  0.4421 -1.0812
12979TIP3   OH260351   0.379   4.805   5.325 -0.3221 -0.7483  0.7061
12979TIP3    H160352   0.319   4.745   5.280  1.1920 -3.2727  2.0190
12979TIP3    H260353   0.445   4.826   5.259 -0.3820 -1.1808  0.5080
12980TIP3   OH260354   4.006   6.759   6.431  0.7916  0.1460 -0.1252
12980TIP3    H160355   3.930   6.740   6.375 -0.1862  2.5065  0.3298
12980TIP3    H260356   3.981   6.726   6.517  0.1760  1.0476  0.0587
12981TIP3   OH260357   1.057   5.563  11.311  0.9265  0.3531  0.0274
12981TIP3    H160358   1.143   5.552  11.353  0.6956  0.3942  0.5155
12981TIP3    H260359   0.998   5.508  11.362  1.0163 -1.1422 -1.4429
12982TIP3   OH260360   3.524   3.785   5.181 -0.0496  0.4277 -0.7111
12982TIP3    H160361   3.573   3.862   5.153  1.7525 -0.4368 -0.0007
12982TIP3    H260362   3.580   3.711   5.159 -1.5017 -0.6552 -0.8324
12983TIP3   OH260363   6.116   1.175  16.487  0.0203  0.3962  0.5659
12983TIP3    H160364   6.118   1.191  16.393  0.2304  0.3531  0.5638
12983TIP3    H260365   6.046   1.231  16.520 -1.0411 -0.6602  0.1725
12984TIP3   OH260366   5.422   6.180  11.867  0.1476 -0.3405 -0.1078
12984TIP3    H160367   5.481   6.162  11.794  1.5953  0.9390  0.6974
12984TIP3    H260368   5.458   6.128  11.939 -0.8543 -1.0574 -0.1310
12985TIP3   OH260369   5.253   3.663  12.349 -0.4284  0.0404  0.2701
12985TIP3    H160370   5.249   3.749  12.391 -1.8411 -0.9115  2.1624
12985TIP3    H260371   5.347   3.644  12.341 -0.1342  0.8925  1.6386
12986TIP3   OH260372   3.810   2.590  13.307  0.5230  0.3685  0.2042
12986TIP3    H160373   3.867   2.523  13.269 -0.4964  0.1133 -0.9363
12986TIP3    H260374   3.752   2.541  13.366 -1.1941 -0.0291 -1.7327
12987TIP3   OH260375   0.465   3.938   2.512 -0.1848  0.4448 -0.0376
12987TIP3    H160376   0.466   3.975   2.423  0.0737 -0.0633 -0.2504
12987TIP3    H260377   0.405   3.864   2.506 -0.1026  0.3590  0.1875
12988TIP3   OH260378   6.756   3.946   4.876  0.2482  0.1545 -1.1475
12988TIP3    H160379   6.715   3.863   4.899  0.9059 -0.1895 -1.2110
12988TIP3    H260380   6.848   3.924   4.863  0.4982  0.9735 -0.7465
12989TIP3   OH260381   2.172   3.896  16.586 -0.1976 -0.4980 -0.0679
12989TIP3    H160382   2.171   3.850  16.669  0.5104 -2.0669 -0.9081
12989TIP3    H260383   2.226   3.841  16.529  1.3497  1.7749 -0.8628
12990TIP3   OH260384   4.057   5.083   4.453  0.2964  0.6576  0.4194
12990TIP3    H160385   3.996   5.071   4.525 -0.8457  1.3673 -0.4078
12990TIP3    H260386   4.026   5.024   4.385  1.3835 -0.0288  0.5037
12991TIP3   OH260387   1.883   3.039  13.650  0.1604 -0.8123 -0.2074
12991TIP3    H160388   1.862   3.116  13.704 -3.6946 -1.0462 -1.2092
12991TIP3    H260389   1.901   2.969  13.714 -0.1503 -0.0492  0.7338
12992TIP3   OH260390   5.366   1.004  17.174 -0.1803 -0.1031  0.4525
12992TIP3    H160391   5.321   1.061  17.236 -0.0659 -0.3008  0.7199
12992TIP3    H260392   5.410   1.064  17.114 -0.5260  0.0878  0.3934
12993TIP3   OH260393   2.029   1.212  12.176 -0.3870 -0.1073  0.0574
12993TIP3    H160394   1.962   1.279  12.161  2.3961  2.2601 -2.3368
12993TIP3    H260395   2.019   1.151  12.103  2.3109  2.2540 -2.4053
12994TIP3   OH260396   0.178   5.138  15.860 -0.2052  0.2908  0.4111
12994TIP3    H160397   0.267   5.157  15.831 -0.4330 -0.8163 -1.0510
12994TIP3    H260398   0.181   5.047  15.890 -0.3676  0.9020  2.3155
12995TIP3   OH260399   0.033   2.688   6.169  0.1366  0.7156 -0.5180
12995TIP3    H160400   0.047   2.656   6.079  1.4899  1.1580 -0.4762
12995TIP3    H260401   0.072   2.775   6.170  1.0851  0.2878  0.7913
12996TIP3   OH260402   6.660   1.862   0.334  0.5342 -0.0428 -0.0182
12996TIP3    H160403   6.654   1.866   0.430  1.4851  0.7783  0.0287
12996TIP3    H260404   6.741   1.814   0.318 -0.3358 -1.3879 -0.4390
12997TIP3   OH260405   6.148   1.240  13.050  0.5018 -0.1246  0.3022
12997TIP3    H160406   6.112   1.288  12.976 -0.4546 -0.0438  0.8121
12997TIP3    H260407   6.075   1.190  13.085  1.2967 -1.3451  0.2745
12998TIP3   OH260408   1.653   6.203   6.522 -0.3781 -0.3564 -0.4980
12998TIP3    H160409   1.646   6.116   6.563  0.9637  0.5441  1.7401
12998TIP3    H260410   1.573   6.212   6.471 -0.6120 -2.8438 -0.6235
12999TIP3   OH260411   1.461   0.593   2.648  0.3990 -0.5951  0.5374
12999TIP3    H160412   1.490   0.509   2.610 -1.1390 -1.1777  0.6307
12999TIP3    H260413   1.542   0.643   2.659  0.8994 -0.1522 -4.1013
13000TIP3   OH260414   3.018   3.724   3.814  0.2220  0.0812 -0.3123
13000TIP3    H160415   3.089   3.681   3.861  0.9829 -0.6184 -2.0497
13000TIP3    H260416   3.055   3.746   3.728 -0.6306  2.8092 -0.0428
13001TIP3   OH260417   2.428   2.627   2.962 -0.2020 -0.0558  0.5115
13001TIP3    H160418   2.383   2.575   2.896  0.5382 -1.3393  1.0084
13001TIP3    H260419   2.406   2.718   2.940 -1.8036 -0.5851 -0.1349
13002TIP3   OH260420   1.229   5.827   2.249  0.2031  0.3010 -0.3806
13002TIP3    H160421   1.168   5.773   2.198 -0.5279  0.5772  0.1940
13002TIP3    H260422   1.201   5.815   2.340 -1.2295  3.1403 -0.3822
13003TIP3   OH260423   3.945   5.436   1.901 -0.0212  0.7153  0.2043
13003TIP3    H160424   4.014   5.397   1.848 -0.3121  0.9132 -0.3240
13003TIP3    H260425   3.990   5.504   1.952  0.4694 -0.2707  1.0843
13004TIP3   OH260426   1.206   3.480   2.627 -0.2922  0.2147 -0.3661
13004TIP3    H160427   1.198   3.434   2.543  1.1900  0.5829 -0.7238
13004TIP3    H260428   1.217   3.572   2.603  4.5862 -0.1296 -0.0491
13005TIP3   OH260429   1.578   6.544  12.955  0.0837 -0.6163 -0.2593
13005TIP3    H160430   1.634   6.471  12.929  1.7310  1.1981 -1.9146
13005TIP3    H260431   1.562   6.593  12.874 -0.5821  1.1451  0.8922
13006TIP3   OH260432   0.559   6.020  14.604 -0.1796 -0.5057 -0.4179
13006TIP3    H160433   0.502   6.014  14.681  0.0226  1.8145 -0.0578
13006TIP3    H260434   0.646   6.039  14.640 -0.0502  0.4043 -1.1923
13007TIP3   OH260435   3.659   0.217  15.781  0.2026  0.2054 -0.1620
13007TIP3    H160436   3.729   0.186  15.725  0.4907  0.2819  0.1572
13007TIP3    H260437   3.604   0.140  15.796 -0.6704  0.4992 -1.7143
13008TIP3   OH260438   3.073   5.490   4.087 -0.4635  0.1004  0.3830
13008TIP3    H160439   2.999   5.436   4.058  0.4830  0.7146 -3.4518
13008TIP3    H260440   3.058   5.575   4.046  2.4107  0.1881 -0.5599
13009TIP3   OH260441   2.551   2.986   1.432  0.9317  0.0305 -0.1378
13009TIP3    H160442   2.535   2.966   1.524  1.0569  0.8134  0.0533
13009TIP3    H260443   2.623   3.050   1.434  0.3001  0.7623 -0.7344
13010TIP3   OH260444   2.429   6.002  15.432  0.7145 -0.3724  0.5105
13010TIP3    H160445   2.501   6.048  15.476 -0.4898 -0.4938  2.6649
13010TIP3    H260446   2.365   6.070  15.413 -0.1338 -0.8064  1.7796
13011TIP3   OH260447   4.435   5.376   4.131 -0.4796  0.6169 -0.2321
13011TIP3    H160448   4.425   5.432   4.054  2.5814  0.6397 -0.7027
13011TIP3    H260449   4.410   5.289   4.100 -0.1534  0.7941 -1.0274
13012TIP3   OH260450   3.672   4.841   0.099 -0.5401  0.2720  0.5475
13012TIP3    H160451   3.615   4.781   0.050 -0.2693  1.2613 -0.9928
13012TIP3    H260452   3.615   4.913   0.124 -0.6601 -0.1947  1.6487
13013TIP3   OH260453   3.697   4.849  16.672 -0.0169  0.3026 -0.1080
13013TIP3    H160454   3.612   4.875  16.707  0.8633  2.9417  0.2231
13013TIP3    H260455   3.754   4.844  16.749  0.8973  1.9128 -0.6472
13014TIP3   OH260456   0.886   6.107   5.464 -0.3055 -0.3949 -0.1263
13014TIP3    H160457   0.940   6.178   5.429  1.5906 -1.6224  0.2455
13014TIP3    H260458   0.872   6.130   5.556  1.9690 -1.4459  0.5138
13015TIP3   OH260459   5.165   0.131  12.664  0.3096  0.4060 -0.2061
13015TIP3    H160460   5.232   0.102  12.725 -0.6724 -1.5567 -0.0056
13015TIP3    H260461   5.199   0.107  12.578 -0.0822 -0.5793 -0.1053
13016TIP3   OH260462   1.628   1.303  13.544 -0.0096 -0.3013  0.0013
13016TIP3    H160463   1.644   1.236  13.611  1.6650 -0.6113 -0.6861
13016TIP3    H260464   1.671   1.270  13.466 -0.5371  0.8456 -0.7895
13017TIP3   OH260465   1.435   5.018  11.074  0.0328  0.1244  0.0029
13017TIP3    H160466   1.361   4.979  11.120 -0.7620  0.0083 -1.3491
13017TIP3    H260467   1.397   5.089  11.023  1.2490  1.7670  1.3109
13018TIP3   OH260468   1.978   6.769   5.526 -0.4967  0.5067  0.2466
13018TIP3    H160469   1.966   6.704   5.596  0.5503  0.3383  0.2774
13018TIP3    H260470   2.072   6.768   5.508 -0.7851  0.3805 -1.3299
13019TIP3   OH260471   4.655   4.483  15.176  0.6862 -0.3059 -0.4858
13019TIP3    H160472   4.605   4.557  15.141 -1.7308 -0.8751  1.6435
13019TIP3    H260473   4.738   4.486  15.128  0.7272  3.8620 -0.3608
13020TIP3   OH260474   2.195   6.065   1.513  0.1516  0.0191 -0.2977
13020TIP3    H160475   2.240   6.146   1.489 -0.4081  0.1374 -0.9688
13020TIP3    H260476   2.246   5.996   1.470  0.8095 -0.0194  0.5285
13021TIP3   OH260477   5.494   4.012   0.264  0.2099  0.3511  0.1196
13021TIP3    H160478   5.568   3.953   0.278  0.0135  0.3256  1.0775
13021TIP3    H260479   5.478   4.051   0.349  1.1872  2.8124 -0.7713
13022TIP3   OH260480   1.036   0.853   0.463  0.2477 -0.6141  1.0547
13022TIP3    H160481   1.005   0.873   0.375 -0.4549 -0.1769  1.3940
13022TIP3    H260482   1.130   0.871   0.461  0.3388 -1.1609  0.2375
13023TIP3   OH260483   0.628   0.613   5.592 -0.0598  0.3338  0.5830
13023TIP3    H160484   0.671   0.678   5.648  0.7223  1.3635 -1.1940
13023TIP3    H260485   0.573   0.664   5.533 -2.4225 -0.8627  1.6639
13024TIP3   OH260486   0.398   3.973  11.948 -0.5369 -0.2627  0.3998
13024TIP3    H160487   0.451   4.008  12.020 -0.5743  0.2497  0.1839
13024TIP3    H260488   0.370   4.051  11.900 -1.3003 -0.5420  0.3805
13025TIP3   OH260489   3.040   4.860  15.335 -0.2541  0.0552 -0.2439
13025TIP3    H160490   3.086   4.778  15.318  1.5874  1.3134 -1.6049
13025TIP3    H260491   3.074   4.920  15.269 -2.3618  1.6279  0.0465
13026TIP3   OH260492   2.418   0.895   0.124 -0.1439  0.3949 -0.3515
13026TIP3    H160493   2.473   0.907   0.046  1.5333  0.8914  0.8781
13026TIP3    H260494   2.338   0.945   0.104 -0.2931 -0.5280 -2.2509
13027TIP3   OH260495   3.105   6.747  14.119  0.1695  0.4325  0.7638
13027TIP3    H160496   3.032   6.793  14.159 -0.0462  0.6564  0.1199
13027TIP3    H260497   3.094   6.656  14.145  0.7346  0.7729  2.2458
13028TIP3   OH260498   5.369   6.033  13.463 -0.2847  0.1618 -0.0948
13028TIP3    H160499   5.428   5.988  13.523  1.6018  2.7526  0.0585
13028TIP3    H260500   5.424   6.057  13.389 -0.8455  3.5963  0.5411
13029TIP3   OH260501   5.552   0.752   2.646  0.3870  0.5456  0.0393
13029TIP3    H160502   5.596   0.832   2.618 -1.2324  1.5335  0.2198
13029TIP3    H260503   5.469   0.783   2.685 -0.1957 -1.2035  0.2290
13030TIP3   OH260504   1.028   0.985   0.221  0.2501  0.0431 -0.0928
13030TIP3    H160505   1.067   0.947   0.143  1.8409 -0.4897  0.9467
13030TIP3    H260506   1.074   1.067   0.234 -0.0812  0.1782  0.2406
13031TIP3   OH260507   3.365   4.415  12.105  0.3148  0.2189  0.0358
13031TIP3    H160508   3.446   4.398  12.057 -0.1549  0.5998 -0.9139
13031TIP3    H260509   3.295   4.390  12.045 -0.2680 -2.3823  1.7246
13032TIP3   OH260510   2.726   4.737  17.037 -0.1776  0.4381 -0.1425
13032TIP3    H160511   2.689   4.824  17.025  0.4454  0.6643 -0.4536
13032TIP3    H260512   2.659   4.677  17.006 -0.2578  0.8469 -0.7465
13033TIP3   OH260513   3.883   6.147   1.083 -0.1363  0.1841  0.3606
13033TIP3    H160514   3.788   6.160   1.083 -0.3104 -0.9952  1.9938
13033TIP3    H260515   3.917   6.227   1.123 -0.3046  1.2350 -1.4823
13034TIP3   OH260516   3.641   5.570   4.762  0.3426  0.5123  0.4862
13034TIP3    H160517   3.593   5.566   4.845  0.1000  1.0465  0.3792
13034TIP3    H260518   3.595   5.638   4.712  0.0273 -0.3314 -0.3808
13035TIP3   OH260519   1.332   6.598  15.598 -0.3941 -0.5519 -0.4082
13035TIP3    H160520   1.384   6.544  15.539  0.1313 -0.4613 -0.0330
13035TIP3    H260521   1.249   6.552  15.605  0.6712 -2.2951  1.3258
13036TIP3   OH260522   5.707   0.910  15.807  0.2347 -0.0794  0.0307
13036TIP3    H160523   5.707   0.918  15.902 -0.1866  0.7785 -0.0418
13036TIP3    H260524   5.791   0.870  15.786  0.4757  0.0634  0.7323
13037TIP3   OH260525   0.399   2.762   2.702 -0.0068 -0.3282  0.8670
13037TIP3    H160526   0.485   2.804   2.708 -0.0489 -0.0919 -0.1963
13037TIP3    H260527   0.342   2.829   2.664  0.0172 -1.4761 -1.2335
13038TIP3   OH260528   0.584   6.541  13.858 -0.4617  0.3504 -0.0126
13038TIP3    H160529   0.615   6.620  13.902 -1.4129  1.1163 -0.7036
13038TIP3    H260530   0.489   6.549  13.857 -0.5233 -0.3782 -0.8663
13039TIP3   OH260531   3.902   5.447  16.396 -0.2840  0.5329  0.4061
13039TIP3    H160532   3.990   5.476  16.417 -0.3136  0.4819  0.6024
13039TIP3    H260533   3.847   5.481  16.467 -0.1937 -0.7040  1.0916
13040TIP3   OH260534   4.448   0.211   3.541  0.3320 -0.0675 -1.1465
13040TIP3    H160535   4.484   0.200   3.453 -0.2125 -0.0357 -1.3768
13040TIP3    H260536   4.524   0.208   3.599  0.8352  1.2759 -1.7219
13041TIP3   OH260537   1.633   0.876   1.687  0.4497  0.6823 -0.5937
13041TIP3    H160538   1.702   0.936   1.715 -0.7499  0.9052  2.0515
13041TIP3    H260539   1.673   0.790   1.690  0.7765  0.8574  0.5097
13042TIP3   OH260540   3.359   3.599  10.956  0.1627 -0.0719  0.2624
13042TIP3    H160541   3.391   3.671  10.903  1.0972 -0.5051  0.2312
13042TIP3    H260542   3.312   3.543  10.894 -0.5138  0.4760  0.2755
13043TIP3   OH260543   5.555   2.301   1.552 -0.4518  0.4436  0.0019
13043TIP3    H160544   5.611   2.319   1.476 -0.4162 -3.7298 -1.1154
13043TIP3    H260545   5.467   2.293   1.515 -0.9059  1.3745  0.8758
13044TIP3   OH260546   3.197   1.084  12.372 -0.2745  0.0504 -0.1727
13044TIP3    H160547   3.147   1.020  12.321 -1.8818 -0.3737  1.8589
13044TIP3    H260548   3.218   1.154  12.310 -0.4083 -1.4051 -1.8899
13045TIP3   OH260549   0.365   5.553   0.047 -0.5226 -0.2656 -0.3545
13045TIP3    H160550   0.429   5.603   0.097 -1.0672  0.0543  0.0358
13045TIP3    H260551   0.297   5.531   0.111  0.2926 -2.5596 -0.2072
13046TIP3   OH260552   1.821   6.321   6.687  0.1371 -0.4377  0.1094
13046TIP3    H160553   1.913   6.301   6.673  0.2937  0.1610  0.2502
13046TIP3    H260554   1.778   6.296   6.606  0.5110 -0.2053 -0.1642
13047TIP3   OH260555   5.009   6.682  12.027  0.0707  0.3635 -0.2807
13047TIP3    H160556   5.098   6.648  12.035  0.2185  0.8109  0.0028
13047TIP3    H260557   4.955   6.605  12.011  0.3684 -0.0254  0.5696
13048TIP3   OH260558   1.621   3.336  13.008 -0.2350  0.0446  0.5072
13048TIP3    H160559   1.664   3.308  12.927  0.4565  0.3020  0.7804
13048TIP3    H260560   1.611   3.431  12.998 -1.3793 -0.1084  0.1452
13049TIP3   OH260561   2.852   6.227  15.148  0.3878 -0.0661  0.5548
13049TIP3    H160562   2.917   6.262  15.088 -0.8962 -0.1819 -0.9428
13049TIP3    H260563   2.894   6.231  15.234  1.3074  2.4817  0.0242
13050TIP3   OH260564   1.077   1.383  15.294 -0.1085  0.5987  0.2127
13050TIP3    H160565   1.107   1.474  15.295  3.4631 -0.5037  0.3639
13050TIP3    H260566   1.138   1.339  15.236 -1.9411 -1.6939 -0.0346
13051TIP3   OH260567   0.029   6.084   2.813  0.1258 -0.8161  0.3148
13051TIP3    H160568   0.041   6.100   2.719  1.0131 -0.2303  0.5181
13051TIP3    H260569   0.063   5.996   2.827  1.7781 -0.1732  0.4139
13052TIP3   OH260570   3.323   1.608  11.975  0.5429 -0.1421  0.1164
13052TIP3    H160571   3.298   1.636  11.887  2.7302  0.0235 -0.4698
13052TIP3    H260572   3.242   1.572  12.012 -0.6809  0.8344 -1.5277
13053TIP3   OH260573   5.013   0.895   2.810  0.4732  0.2547 -0.0349
13053TIP3    H160574   5.022   0.833   2.882 -0.7134 -0.3158 -0.3646
13053TIP3    H260575   5.040   0.979   2.847  0.5331 -0.1608  0.8745
13054TIP3   OH260576   4.506   3.277  12.241  0.1466 -0.5702 -0.5332
13054TIP3    H160577   4.547   3.290  12.327 -1.6026  1.6332  0.0184
13054TIP3    H260578   4.413   3.262  12.261 -0.2917  0.0478 -2.0297
13055TIP3   OH260579   2.757   2.584  12.046  0.0721  0.3072  0.1036
13055TIP3    H160580   2.663   2.585  12.066 -0.3266  0.9661 -1.7308
13055TIP3    H260581   2.791   2.510  12.097 -1.3688  0.2774  1.0703
13056TIP3   OH260582   0.447   3.587  15.772 -0.3861 -0.3256 -0.5842
13056TIP3    H160583   0.390   3.656  15.806  0.7242  0.3920 -0.1815
13056TIP3    H260584   0.457   3.608  15.679 -0.3776 -0.1716 -0.5489
13057TIP3   OH260585   2.834   2.721  11.158 -0.6245 -0.3716 -0.4436
13057TIP3    H160586   2.780   2.800  11.162 -0.5029 -0.1009 -2.8960
13057TIP3    H260587   2.774   2.649  11.175 -1.3038  0.0912 -0.8526
13058TIP3   OH260588   5.016   2.280   2.882  0.2078  0.1493  0.1500
13058TIP3    H160589   4.958   2.277   2.806  1.4395 -2.0661 -0.7713
13058TIP3    H260590   4.986   2.208   2.938 -0.0545  1.1310  1.2629
13059TIP3   OH260591   4.929   5.554   1.084  0.1622  0.3435  0.2249
13059TIP3    H160592   4.973   5.470   1.066  1.7174  1.4298 -1.1616
13059TIP3    H260593   4.994   5.605   1.132  0.2641  1.8070 -1.4500
13060TIP3   OH260594   4.849   4.029   1.028 -0.1050  0.5495  0.3547
13060TIP3    H160595   4.811   3.947   1.058  1.3039  0.2212  1.2840
13060TIP3    H260596   4.912   4.003   0.960 -0.1254  0.9068  0.1963
13061TIP3   OH260597   1.595   0.586   4.778  0.0777  0.6030 -0.6940
13061TIP3    H160598   1.587   0.539   4.695 -1.5230  1.2708 -0.9264
13061TIP3    H260599   1.617   0.517   4.841  0.4033 -0.0455 -1.4953
13062TIP3   OH260600   2.519   6.459  13.253 -0.0028 -0.1708  0.0131
13062TIP3    H160601   2.512   6.529  13.318  0.1612  0.9615 -1.1627
13062TIP3    H260602   2.507   6.378  13.303 -4.1022  0.8470  0.8172
13063TIP3   OH260603   3.124   1.717  17.053  0.1440 -0.7777  0.2284
13063TIP3    H160604   3.207   1.757  17.028  0.1703  0.8518  2.7638
13063TIP3    H260605   3.059   1.758  16.996  0.5447  1.0127  1.0175
13064TIP3   OH260606   5.237   3.286   1.142  0.6944 -0.0047 -0.0863
13064TIP3    H160607   5.274   3.303   1.228  0.8760 -0.4942 -0.0692
13064TIP3    H260608   5.275   3.203   1.115 -1.8189 -1.4779  0.7362
13065TIP3   OH260609   1.575   4.487   6.664  0.4978 -0.4430 -0.2760
13065TIP3    H160610   1.662   4.488   6.625 -0.5093 -0.8629 -2.6460
13065TIP3    H260611   1.515   4.494   6.589 -1.4682  2.3711  1.4885
13066TIP3   OH260612   2.384   6.437   1.173  0.0910 -0.1057 -0.3866
13066TIP3    H160613   2.363   6.520   1.131  0.9937  0.8322  0.9813
13066TIP3    H260614   2.476   6.421   1.152 -0.5891 -1.7471 -2.2589
13067TIP3   OH260615   6.451   2.579  12.591  0.3891  0.6293  0.0055
13067TIP3    H160616   6.492   2.522  12.525  0.4408  1.3948 -0.6252
13067TIP3    H260617   6.474   2.538  12.675 -1.0068 -1.2434 -0.4890
13068TIP3   OH260618   4.218   6.241   5.351 -0.2757 -0.4137  0.5946
13068TIP3    H160619   4.143   6.192   5.316  0.7055 -0.9066 -0.8948
13068TIP3    H260620   4.271   6.175   5.396 -0.5746 -0.1202  1.3855
13069TIP3   OH260621   1.204   3.672   4.588 -0.1093 -0.1402  0.5474
13069TIP3    H160622   1.172   3.681   4.677 -0.7577 -1.0880  0.4147
13069TIP3    H260623   1.128   3.645   4.537  0.0573  1.2059 -0.4562
13070TIP3   OH260624   0.378   5.898  11.749  0.0586 -0.4580  0.5931
13070TIP3    H160625   0.447   5.838  11.778 -0.3975 -0.9644  0.6293
13070TIP3    H260626   0.414   5.985  11.765  0.4176 -0.7274  1.2532
13071TIP3   OH260627   3.527   0.252   4.213 -0.1937  0.1714  0.1535
13071TIP3    H160628   3.491   0.283   4.296 -1.1050 -1.0809  0.2433
13071TIP3    H260629   3.620   0.271   4.218 -0.5517  1.8126  0.6853
13072TIP3   OH260630   2.070   6.308  13.807  0.1249 -0.1757 -0.1819
13072TIP3    H160631   2.043   6.235  13.863  0.3683  0.9915  1.4683
13072TIP3    H260632   2.003   6.311  13.739 -1.9298  0.3640  1.7988
13073TIP3   OH260633   1.030   5.338  13.301 -0.1883  0.0323 -0.3557
13073TIP3    H160634   0.987   5.332  13.215 -0.5189  0.1220 -0.1983
13073TIP3    H260635   1.123   5.333  13.281 -0.2811 -0.5496 -0.6741
13074TIP3   OH260636   6.667   2.588  16.436 -0.4713 -0.4528  0.6588
13074TIP3    H160637   6.683   2.633  16.520 -0.8345  0.2577  0.3551
13074TIP3    H260638   6.755   2.566  16.404 -0.0067  3.2971 -0.9450
13075TIP3   OH260639   2.999   0.602  16.246 -0.5301  0.0788 -0.0919
13075TIP3    H160640   3.081   0.555  16.260 -0.9371 -0.8114 -0.6049
13075TIP3    H260641   2.933   0.547  16.287 -0.8710  0.8062  0.3405
13076TIP3   OH260642   2.021   1.921  12.580 -0.3438  0.6265  0.1097
13076TIP3    H160643   2.092   1.866  12.547 -1.9993 -0.4563 -1.7118
13076TIP3    H260644   2.049   2.010  12.560  1.6968  0.4249  1.8051
13077TIP3   OH260645   3.668   3.633  12.171  0.2866  0.0298 -0.6552
13077TIP3    H160646   3.754   3.629  12.130  0.0621  2.3208 -1.4097
13077TIP3    H260647   3.611   3.585  12.112  0.6554  0.2399 -1.1848
13078TIP3   OH260648   2.798   3.737  13.728  0.3629 -0.2391 -0.2952
13078TIP3    H160649   2.868   3.723  13.664  0.0193 -0.6589 -0.5765
13078TIP3    H260650   2.720   3.700  13.688 -0.1880  0.9091 -0.3027
13079TIP3   OH260651   4.291   2.982   2.543 -0.2684  0.3784 -0.5949
13079TIP3    H160652   4.362   2.917   2.548  0.5142  1.2206 -0.6689
13079TIP3    H260653   4.214   2.936   2.577  0.7870  0.0955  1.4773
13080TIP3   OH260654   1.344   6.461  16.864  0.1474  0.2783  0.3906
13080TIP3    H160655   1.269   6.480  16.921 -1.7238  1.0016 -2.2579
13080TIP3    H260656   1.340   6.366  16.852  0.4419  0.1437  1.2899
13081TIP3   OH260657   5.311   2.831  11.338  0.1045  0.2312  0.9388
13081TIP3    H160658   5.288   2.903  11.279 -1.6472  0.7336  2.1600
13081TIP3    H260659   5.348   2.764  11.281  1.9782  2.1753 -0.1949
13082TIP3   OH260660   4.343   2.093   0.758 -1.0586 -0.4358 -0.4347
13082TIP3    H160661   4.318   2.085   0.666  0.2224 -1.2990 -0.7278
13082TIP3    H260662   4.264   2.122   0.803 -2.3451 -2.2964 -1.4460
13083TIP3   OH260663   1.282   2.146  14.799 -0.6725 -0.2730  0.1000
13083TIP3    H160664   1.373   2.131  14.821 -0.9508 -1.3984  0.5035
13083TIP3    H260665   1.254   2.068  14.752 -1.2180  0.3880 -0.6842
13084TIP3   OH260666   2.268   2.819  14.666  0.1094  0.6685  0.0398
13084TIP3    H160667   2.237   2.895  14.616 -0.5862 -0.1418 -0.7880
13084TIP3    H260668   2.339   2.853  14.720 -2.3002  2.6543  2.0931
13085TIP3   OH260669   6.733   4.885   4.454  0.7909  0.2720  0.5967
13085TIP3    H160670   6.775   4.957   4.406 -0.6327 -0.9350 -2.5573
13085TIP3    H260671   6.797   4.814   4.452  0.3174 -0.1288 -0.4483
13086TIP3   OH260672   6.735   0.027  13.854  1.2595  0.5115  0.4048
13086TIP3    H160673   6.741   0.095  13.787 -1.0993  0.7811  0.4361
13086TIP3    H260674   6.670  -0.034  13.821  3.3040 -1.7228  0.4197
13087TIP3   OH260675   3.495   5.349  13.672  0.2143 -0.0363  1.0301
13087TIP3    H160676   3.545   5.415  13.719  0.7950  0.0352  0.3256
13087TIP3    H260677   3.419   5.396  13.637  1.1385  0.4728 -0.2990
13088TIP3   OH260678   3.137   6.227  15.837  0.2717  0.4569  0.2356
13088TIP3    H160679   3.070   6.244  15.902 -0.0448  0.5498 -0.1100
13088TIP3    H260680   3.095   6.168  15.774  1.2692 -1.4122  1.2709
13089TIP3   OH260681   5.684   0.312   1.884 -0.2316 -0.4087  0.1211
13089TIP3    H160682   5.738   0.325   1.806 -1.1411  1.0950 -0.2701
13089TIP3    H260683   5.724   0.369   1.950 -0.5178 -0.3501  0.2416
13090TIP3   OH260684   3.886   0.464   0.540 -0.2603 -0.3709  1.0756
13090TIP3    H160685   3.876   0.442   0.632 -2.0086  1.0443  1.2359
13090TIP3    H260686   3.875   0.559   0.536 -1.6263 -0.5760 -0.7553
13091TIP3   OH260687   3.218   5.678   1.715 -0.0720  0.0262  0.0541
13091TIP3    H160688   3.189   5.624   1.642  0.4231  0.1604 -0.2378
13091TIP3    H260689   3.266   5.618   1.772 -0.7082 -0.1419  0.4148
13092TIP3   OH260690   2.819   4.287   5.778  0.0830  0.2518 -0.4098
13092TIP3    H160691   2.798   4.293   5.871  2.0407 -0.9031  0.1276
13092TIP3    H260692   2.837   4.378   5.752  0.8871  0.4216  0.6858
13093TIP3   OH260693   1.724   3.435   5.414  0.1915 -0.1326  0.1123
13093TIP3    H160694   1.700   3.473   5.498 -3.9371 -0.3642 -0.8205
13093TIP3    H260695   1.757   3.348   5.436  1.0397  0.5457  1.6003
13094TIP3   OH260696   0.484   0.656   0.523  0.0796 -0.0370  0.1968
13094TIP3    H160697   0.559   0.714   0.507  0.7525 -1.1461 -0.6864
13094TIP3    H260698   0.412   0.698   0.476  0.2199  0.8114  0.7067
13095TIP3   OH260699   2.631   6.394   3.197 -0.1133 -0.9457 -0.8577
13095TIP3    H160700   2.658   6.425   3.111 -0.8195 -1.7039 -1.3615
13095TIP3    H260701   2.550   6.345   3.180 -1.1858  0.3238  0.4496
13096TIP3   OH260702   0.083   4.421  11.379  0.4001 -0.4715 -0.3598
13096TIP3    H160703   0.119   4.467  11.304 -0.9822  2.4152  0.6717
13096TIP3    H260704   0.099   4.479  11.453 -0.9173 -1.8771  1.0696
13097TIP3   OH260705   1.439   2.185  15.261  0.1478 -0.4305  0.0570
13097TIP3    H160706   1.527   2.161  15.234 -0.0182 -1.3946  0.3593
13097TIP3    H260707   1.448   2.272  15.299  0.9821 -0.5525  0.1408
13098TIP3   OH260708   3.156   3.089   0.869 -0.2518 -0.8141 -0.9144
13098TIP3    H160709   3.111   3.127   0.793  0.0848  1.1523 -0.1587
13098TIP3    H260710   3.221   3.029   0.831  0.2375  0.5090 -2.2238
13099TIP3   OH260711   6.026   6.406  15.817 -0.8101  0.7763 -0.7603
13099TIP3    H160712   6.027   6.346  15.743 -1.6670  0.6984 -0.7117
13099TIP3    H260713   5.989   6.355  15.889 -0.9662  1.1738 -0.5564
13100TIP3   OH260714   4.080   3.595   4.220 -0.2855 -0.4058 -0.1353
13100TIP3    H160715   4.158   3.583   4.273  0.0503 -0.8041 -0.7129
13100TIP3    H260716   4.061   3.507   4.184  0.4915  0.1778 -2.0414
13101TIP3   OH260717   1.297   5.858  13.542  0.2188 -0.2140  0.4149
13101TIP3    H160718   1.220   5.803  13.528  0.9393 -1.0981 -0.1871
13101TIP3    H260719   1.310   5.904  13.459  0.8119 -0.6911  0.2368
13102TIP3   OH260720   6.555   6.161  11.938 -0.0596  0.1631 -0.1091
13102TIP3    H160721   6.556   6.071  11.907 -3.3123  0.2439 -0.6186
13102TIP3    H260722   6.546   6.215  11.859  2.0347  0.9661  0.1737
13103TIP3   OH260723   4.031   3.198  16.347 -0.1805 -0.5209 -0.0970
13103TIP3    H160724   4.036   3.127  16.283 -0.6170  0.4196 -1.2014
13103TIP3    H260725   4.003   3.155  16.428  1.9093 -1.9662 -0.1038
13104TIP3   OH260726   2.444   3.993   0.565 -0.0395  0.6425  0.3327
13104TIP3    H160727   2.435   3.914   0.512 -2.2982  1.8972 -1.2725
13104TIP3    H260728   2.468   3.961   0.652  0.1790 -1.7173 -0.5478
13105TIP3   OH260729   0.083   1.576   1.823  0.2563 -0.2129  0.5111
13105TIP3    H160730   0.040   1.586   1.908 -0.7599  0.1521 -0.0426
13105TIP3    H260731   0.055   1.489   1.793 -1.0097  0.4820 -0.3550
13106TIP3   OH260732   3.785   3.634  14.679 -0.5547  0.6395  0.1919
13106TIP3    H160733   3.713   3.616  14.739  0.0316  0.2859  0.7945
13106TIP3    H260734   3.814   3.722  14.702 -0.7765  0.7710 -0.0322
13107TIP3   OH260735   3.099   3.428  13.049 -0.2507  0.0583  0.0884
13107TIP3    H160736   3.118   3.513  13.089  0.3051 -0.7779  1.6115
13107TIP3    H260737   3.012   3.405  13.081 -0.8317  0.4963 -1.1222
13108TIP3   OH260738   0.785   5.099  16.905  0.0716  0.3290  0.1666
13108TIP3    H160739   0.832   5.015  16.909  1.2569  0.9953  0.3749
13108TIP3    H260740   0.766   5.120  16.996 -1.4133 -0.3560  0.0334
13109TIP3   OH260741   4.937   3.809   5.037 -0.4879  0.1123 -0.3471
13109TIP3    H160742   4.898   3.722   5.028  0.5006 -0.2629 -1.1827
13109TIP3    H260743   4.886   3.864   4.977 -0.0458 -0.2653 -1.0716
13110TIP3   OH260744   6.195   5.581   0.262 -0.2206  0.4067 -0.1379
13110TIP3    H160745   6.262   5.534   0.311 -1.0344  1.4506  2.0299
13110TIP3    H260746   6.244   5.636   0.200  0.8292 -0.5218 -0.1319
13111TIP3   OH260747   5.243   3.245   2.354  0.6875  0.1254 -0.8785
13111TIP3    H160748   5.292   3.324   2.331  0.8475 -0.0157 -1.0256
13111TIP3    H260749   5.293   3.174   2.314  0.4485 -0.0340 -0.8912
13112TIP3   OH260750   2.892   4.164  13.422  0.6007 -0.1326 -0.5104
13112TIP3    H160751   2.838   4.233  13.460 -1.5585 -0.6297 -2.5615
13112TIP3    H260752   2.887   4.179  13.327  6.1255  1.3112 -0.7731
13113TIP3   OH260753   5.475   0.785  15.071  0.2082  0.1009  0.2852
13113TIP3    H160754   5.430   0.865  15.098  0.5469  0.0991  0.8788
13113TIP3    H260755   5.406   0.719  15.066 -0.3273  0.7864 -1.7460
13114TIP3   OH260756   1.284   3.088  11.252 -0.1240 -0.3815  0.6737
13114TIP3    H160757   1.307   3.161  11.309  0.0942 -1.3461  1.8493
13114TIP3    H260758   1.238   3.128  11.178  0.2528  0.9615  1.1610
13115TIP3   OH260759   6.085   1.662   0.438 -0.1880  0.2793  0.5248
13115TIP3    H160760   6.047   1.628   0.356 -0.1105  1.2238  0.0941
13115TIP3    H260761   6.013   1.657   0.501 -0.6037  0.6915  0.0845
13116TIP3   OH260762   3.794   1.888   4.892 -0.4191  0.7088  0.8200
13116TIP3    H160763   3.817   1.898   4.984 -2.0897 -1.3394  1.4896
13116TIP3    H260764   3.716   1.941   4.880 -1.4567 -0.7182  1.1308
13117TIP3   OH260765   0.658   1.077  11.616 -0.0793 -0.2099 -0.4911
13117TIP3    H160766   0.634   1.078  11.709  1.3502 -2.2742 -0.0582
13117TIP3    H260767   0.659   1.169  11.590 -2.2986  0.2758  1.0552
13118TIP3   OH260768   0.981   2.924   4.066 -0.0362 -0.3509 -0.7451
13118TIP3    H160769   1.062   2.949   4.021 -0.3022  0.6712 -0.6649
13118TIP3    H260770   0.960   2.837   4.030 -0.9906  1.0104 -3.6738
13119TIP3   OH260771   2.665   5.160   4.420 -0.1625  0.1727  0.2219
13119TIP3    H160772   2.615   5.194   4.494  0.3101  0.8225  0.2447
13119TIP3    H260773   2.599   5.139   4.354 -0.7562 -2.1170  1.4854
13120TIP3   OH260774   5.957   0.147  13.424  0.3783 -0.0098 -0.1177
13120TIP3    H160775   6.044   0.146  13.464  0.9451 -1.0070 -1.3292
13120TIP3    H260776   5.899   0.112  13.493  0.9650  0.4374  0.6117
13121TIP3   OH260777   0.874   5.937  15.467  0.4121 -0.3914 -0.5325
13121TIP3    H160778   0.872   5.926  15.372 -0.8417 -0.8486 -0.4624
13121TIP3    H260779   0.782   5.930  15.494  1.0555 -3.5311  1.0774
13122TIP3   OH260780   0.604   5.261  13.569 -0.0691  0.2141 -0.3564
13122TIP3    H160781   0.591   5.172  13.602 -3.3717 -0.0614 -2.1545
13122TIP3    H260782   0.678   5.295  13.619  0.2749 -2.9980  1.4463
13123TIP3   OH260783   1.446   6.142  13.533 -0.4250 -0.2541 -1.3040
13123TIP3    H160784   1.522   6.151  13.475 -0.4943  0.8664 -1.2331
13123TIP3    H260785   1.469   6.071  13.592  0.2421 -0.4453 -1.7871
13124TIP3   OH260786   4.041   2.572   2.353 -0.0887  1.0060 -0.5102
13124TIP3    H160787   4.057   2.531   2.267 -2.4865  0.2594 -0.6444
13124TIP3    H260788   3.958   2.619   2.342 -0.3296  1.0419  1.3546
13125TIP3   OH260789   4.182   2.113   5.471 -0.2231  0.5401 -0.3129
13125TIP3    H160790   4.266   2.112   5.518  0.3303 -0.6814 -1.3115
13125TIP3    H260791   4.122   2.158   5.531  0.6792 -0.2225  1.2116
13126TIP3   OH260792   2.604   4.170   4.408 -0.4393  0.2452  0.6450
13126TIP3    H160793   2.546   4.245   4.395 -1.9402 -0.8038  1.1198
13126TIP3    H260794   2.676   4.184   4.347 -1.8734  0.8919 -0.9522
13127TIP3   OH260795   2.223   4.785  14.188 -0.2021  0.2531 -0.1980
13127TIP3    H160796   2.186   4.856  14.241 -1.2800 -0.5556  0.1641
13127TIP3    H260797   2.150   4.757  14.132  0.2857 -0.4090 -0.5043
13128TIP3   OH260798   2.712   2.329  11.652  0.3432 -0.2171  0.5560
13128TIP3    H160799   2.655   2.252  11.642 -1.2874  1.2850 -2.8117
13128TIP3    H260800   2.662   2.389  11.707  0.7162 -0.7630  1.4869
13129TIP3   OH260801   5.693   4.251   6.031 -0.1322 -0.5095 -0.4653
13129TIP3    H160802   5.646   4.175   6.065  0.0466 -1.1253 -1.5822
13129TIP3    H260803   5.647   4.326   6.070  0.2844 -1.1913  1.4007
13130TIP3   OH260804   0.734   1.675   6.303  0.2424 -0.2583 -0.3902
13130TIP3    H160805   0.662   1.666   6.241  2.3485 -1.4488 -2.7534
13130TIP3    H260806   0.742   1.589   6.344  0.9530 -0.4361 -0.8850
13131TIP3   OH260807   1.481   4.091   5.463 -0.0213 -0.2579  0.1181
13131TIP3    H160808   1.559   4.141   5.491 -0.0818 -0.0197 -0.1367
13131TIP3    H260809   1.460   4.126   5.377 -0.2988 -0.4573  0.1048
13132TIP3   OH260810   4.947   4.157  13.000 -0.2498  0.8805 -0.3517
13132TIP3    H160811   5.024   4.149  12.944 -0.5400 -1.3071 -0.4798
13132TIP3    H260812   4.880   4.194  12.944  0.6814  2.7252 -0.2628
13133TIP3   OH260813   1.162   5.143  15.495 -0.2278 -0.4456 -0.1717
13133TIP3    H160814   1.175   5.052  15.518  0.5073 -0.1740  0.5100
13133TIP3    H260815   1.225   5.191  15.549  1.0879  0.2506 -2.2613
13134TIP3   OH260816   1.417   1.171  13.120 -0.6913  0.8271 -0.2625
13134TIP3    H160817   1.411   1.232  13.047  0.7677  1.2296 -0.0681
13134TIP3    H260818   1.489   1.113  13.096 -1.1270  0.0866  0.2181
13135TIP3   OH260819   1.277   5.245  13.117  0.3638 -0.0828  0.0810
13135TIP3    H160820   1.348   5.308  13.109  0.3698  0.1920  2.0061
13135TIP3    H260821   1.209   5.276  13.057  1.4159  0.2729 -0.9341
13136TIP3   OH260822   4.251   5.901   2.360 -0.4298  0.0570 -0.6223
13136TIP3    H160823   4.212   5.978   2.402  0.3583 -0.4592  1.1249
13136TIP3    H260824   4.182   5.834   2.366  0.2115 -0.4862  1.3547
13137TIP3   OH260825   6.531   2.066  12.281 -0.1459 -0.0390  0.1194
13137TIP3    H160826   6.462   2.032  12.224  2.3860 -3.6588 -0.8834
13137TIP3    H260827   6.592   2.111  12.222 -0.1156  0.6379  0.6518
13138TIP3   OH260828   0.269   1.422   3.731 -0.1132 -0.1072 -0.9787
13138TIP3    H160829   0.262   1.345   3.787  0.7054 -0.2650 -1.0960
13138TIP3    H260830   0.321   1.485   3.782 -1.3589  0.6362 -0.5936
13139TIP3   OH260831   3.219   3.791  16.903 -0.2010  0.7244 -0.2323
13139TIP3    H160832   3.180   3.729  16.964 -1.5026 -0.9350 -2.6564
13139TIP3    H260833   3.165   3.870  16.911 -2.0807 -0.4279 -1.1542
13140TIP3   OH260834   0.690   4.206   4.996  0.0793 -0.0888 -0.0629
13140TIP3    H160835   0.726   4.212   4.907 -0.9944 -0.5642 -0.5357
13140TIP3    H260836   0.763   4.174   5.049  0.8003  0.4506 -0.7211
13141TIP3   OH260837   0.574   4.261  13.562  0.3279 -0.4618 -0.5341
13141TIP3    H160838   0.645   4.286  13.504  1.4006 -2.3789 -0.0864
13141TIP3    H260839   0.545   4.343  13.601  1.7889  0.4347 -1.2834
13142TIP3   OH260840   5.472   3.664  14.025 -0.8877  0.4228  0.1230
13142TIP3    H160841   5.565   3.675  14.045 -0.8510  1.0215 -0.3758
13142TIP3    H260842   5.468   3.584  13.973 -0.6680  0.3146  0.2724
13143TIP3   OH260843   4.678   5.266  13.034 -0.6263  0.8702  0.2269
13143TIP3    H160844   4.598   5.253  12.983  1.2284 -1.4263 -2.2739
13143TIP3    H260845   4.707   5.354  13.011 -1.8583  1.3132  0.3290
13144TIP3   OH260846   1.781   0.807  16.956 -0.0448  0.1468 -0.1366
13144TIP3    H160847   1.859   0.843  16.996 -0.6482  0.6942  0.5573
13144TIP3    H260848   1.709   0.857  16.993 -0.7639 -0.6329 -0.4485
13145TIP3   OH260849   0.149   4.170  11.367  0.0262 -0.1837  0.0904
13145TIP3    H160850   0.109   4.255  11.385  0.4127 -0.0631  0.3826
13145TIP3    H260851   0.238   4.178  11.400  0.3622 -0.3797 -0.7592
13146TIP3   OH260852   2.518   1.902  14.962  0.4510  0.3904 -0.0255
13146TIP3    H160853   2.475   1.943  14.887 -1.1312 -1.0758  0.0463
13146TIP3    H260854   2.457   1.834  14.990  1.6204  0.0653  1.7869
13147TIP3   OH260855   5.816   0.896   6.314 -0.4538  0.2727  0.0060
13147TIP3    H160856   5.785   0.972   6.363 -0.0815 -0.1226  0.8671
13147TIP3    H260857   5.749   0.829   6.330 -0.6104  0.3079 -0.4782
13148TIP3   OH260858   5.333   0.800   3.231 -0.1176  0.4385  0.2311
13148TIP3    H160859   5.272   0.741   3.275 -0.3278  0.8792  0.5422
13148TIP3    H260860   5.419   0.760   3.242 -0.5126 -0.9277 -1.4474
13149TIP3   OH260861   2.540   6.385   5.722 -0.2021  0.5321  0.0552
13149TIP3    H160862   2.538   6.306   5.667  0.7076 -0.5981  1.6105
13149TIP3    H260863   2.606   6.366   5.788 -0.3439  2.4153  0.7561
13150TIP3   OH260864   4.641   5.473   1.415 -0.1240  0.0571 -0.8736
13150TIP3    H160865   4.660   5.533   1.343 -0.3059 -1.6597 -2.3795
13150TIP3    H260866   4.588   5.404   1.376 -1.6068 -0.0591  1.2822
13151TIP3   OH260867   1.411   1.402   6.310  0.3291  0.0766  0.0623
13151TIP3    H160868   1.500   1.397   6.345  0.1692 -0.5669  0.3772
13151TIP3    H260869   1.423   1.434   6.220  0.9722 -1.1390 -0.2940
13152TIP3   OH260870   6.641   4.187  11.259  0.0937 -0.3244  0.8592
13152TIP3    H160871   6.568   4.149  11.211  0.9436  0.3210 -1.0084
13152TIP3    H260872   6.697   4.225  11.191  2.2231 -0.9041  2.2172
13153TIP3   OH260873   1.001   2.056  14.234 -0.1313  0.0239  0.1718
13153TIP3    H160874   0.983   1.963  14.245 -0.6679  0.3134  1.8511
13153TIP3    H260875   0.963   2.097  14.311  1.3573  1.4837  0.1569
13154TIP3   OH260876   1.354   3.798   0.129  0.1095 -0.2945 -0.1237
13154TIP3    H160877   1.315   3.876   0.090 -0.3135 -0.1469  0.5879
13154TIP3    H260878   1.340   3.809   0.223  5.0323  1.5948  0.5876
13155TIP3   OH260879   2.812   1.337   6.032 -0.3771 -0.0724  0.2276
13155TIP3    H160880   2.795   1.298   6.118 -1.3198 -0.1076  0.0262
13155TIP3    H260881   2.889   1.392   6.046 -0.7803  0.2521  1.1919
13156TIP3   OH260882   0.519   4.197   5.364 -0.0179  0.3799  0.0843
13156TIP3    H160883   0.436   4.233   5.394 -0.2911 -1.1721  1.2329
13156TIP3    H260884   0.585   4.256   5.400 -0.6193  1.9680 -1.3338
13157TIP3   OH260885   0.447   3.498  16.046 -0.1467  0.0292 -0.2344
13157TIP3    H160886   0.457   3.530  15.956 -0.7164  0.0757 -0.2837
13157TIP3    H260887   0.524   3.443  16.060 -1.4196 -2.2009 -1.7046
13158TIP3   OH260888   6.665   6.106   5.978  0.7018  0.1220  0.0598
13158TIP3    H160889   6.634   6.074   6.063  1.1637 -2.1804 -0.5848
13158TIP3    H260890   6.758   6.124   5.992  0.3197  1.7922  0.5705
13159TIP3   OH260891   0.963   4.162  13.053  0.4196  0.1491  0.2228
13159TIP3    H160892   0.930   4.079  13.019  0.8996 -0.0543  0.2432
13159TIP3    H260893   0.914   4.229  13.006  0.8084 -0.1350 -0.5899
13160TIP3   OH260894   0.716   2.557  14.660  0.2839  0.4325  0.0674
13160TIP3    H160895   0.663   2.555  14.740  0.3904  0.6885  0.1444
13160TIP3    H260896   0.677   2.627  14.608  0.7343  0.8213  0.2532
13161TIP3   OH260897   0.290   5.294   3.293  0.9483  0.1194  0.1346
13161TIP3    H160898   0.336   5.366   3.336 -1.0887  1.5422  0.0271
13161TIP3    H260899   0.319   5.298   3.202 -0.9273  2.4063 -0.4376
13162TIP3   OH260900   1.695   1.947   2.541 -0.2289  0.3541  0.0378
13162TIP3    H160901   1.658   1.929   2.454  0.6242 -0.1226 -0.2296
13162TIP3    H260902   1.788   1.932   2.531 -0.2200 -0.4339  1.2450
13163TIP3   OH260903   4.980   0.819  11.148 -0.3647  0.4759 -0.2237
13163TIP3    H160904   5.037   0.844  11.076 -0.5094  1.6133  0.0401
13163TIP3    H260905   5.040   0.790  11.217 -0.2293 -0.6386 -0.7978
13164TIP3   OH260906   1.935   5.728  11.877 -0.3418 -0.1313  0.2917
13164TIP3    H160907   1.926   5.725  11.973  0.7002  0.2939  0.4145
13164TIP3    H260908   2.023   5.764  11.863 -1.9252  3.4857 -0.8767
13165TIP3   OH260909   6.259   1.780   5.882 -0.2402  0.0480 -0.4932
13165TIP3    H160910   6.283   1.751   5.970  0.4218  1.7695 -0.0923
13165TIP3    H260911   6.173   1.742   5.867 -0.5475  0.0941  1.0732
13166TIP3   OH260912   4.473   6.360   6.201  0.0196  0.6787  0.1362
13166TIP3    H160913   4.442   6.364   6.110 -1.0434 -0.3619  0.4340
13166TIP3    H260914   4.497   6.269   6.214 -0.5278  0.6722  1.1281
13167TIP3   OH260915   5.626   5.023  11.406  0.2834 -0.2352 -0.1484
13167TIP3    H160916   5.555   5.043  11.468  0.7017  2.0552 -0.3441
13167TIP3    H260917   5.600   5.065  11.325  1.2924 -0.3969 -0.5672
13168TIP3   OH260918   1.851   2.528  11.382 -0.4554  0.1205 -0.4559
13168TIP3    H160919   1.944   2.525  11.401 -0.2645 -0.6172 -1.4861
13168TIP3    H260920   1.827   2.438  11.361 -1.2845  0.3951 -0.7338
13169TIP3   OH260921   5.109   4.070  16.417  0.1256  0.3604  0.1183
13169TIP3    H160922   5.083   4.138  16.480 -0.6902  1.5236 -1.4279
13169TIP3    H260923   5.063   3.992  16.447 -0.8652  1.0907  0.5431
13170TIP3   OH260924   0.050   4.733   2.420  0.0930  0.0851 -0.0042
13170TIP3    H160925   0.017   4.818   2.450 -3.0065 -0.7152 -1.0200
13170TIP3    H260926   0.010   4.670   2.480 -0.3843 -0.9351 -1.3889
13171TIP3   OH260927   0.085   6.770  14.651  0.3920  0.0247  0.0164
13171TIP3    H160928   0.139   6.763  14.729 -0.1059 -0.2945  0.3384
13171TIP3    H260929   0.010   6.713  14.669  0.7834 -0.8691 -1.1213
13172TIP3   OH260930   6.174   0.520  16.206  0.5089  0.3686 -0.0108
13172TIP3    H160931   6.210   0.499  16.292 -0.0293 -1.3465 -0.1702
13172TIP3    H260932   6.102   0.580  16.224  0.2227 -0.2003  0.7698
13173TIP3   OH260933   1.854   5.078   1.332 -0.0447  0.0216 -0.0492
13173TIP3    H160934   1.889   4.990   1.317  0.8657  0.6269 -1.6111
13173TIP3    H260935   1.767   5.063   1.367 -0.0696 -1.5153 -0.6913
13174TIP3   OH260936   1.080   4.705  15.833 -0.0658  0.5162 -0.2334
13174TIP3    H160937   1.176   4.706  15.835 -0.0338  0.8712 -1.6453
13174TIP3    H260938   1.054   4.781  15.884  0.3507 -0.9536  2.2529
13175TIP3   OH260939   2.279   3.689  12.482 -0.0823 -0.3341 -0.0746
13175TIP3    H160940   2.339   3.762  12.501 -0.4580  0.0227 -0.2466
13175TIP3    H260941   2.253   3.702  12.391 -0.5920 -0.3586  0.0650
13176TIP3   OH260942   1.201   3.963  11.391  0.8355  0.5445  0.4510
13176TIP3    H160943   1.183   4.032  11.327 -0.0703  0.4855  0.6361
13176TIP3    H260944   1.176   4.002  11.475 -1.2597 -0.5867  0.3685
13177TIP3   OH260945   5.657   4.030  12.492  0.5682  0.0139 -0.0569
13177TIP3    H160946   5.575   4.021  12.540  0.0319 -1.1642 -1.1890
13177TIP3    H260947   5.716   3.965  12.531 -0.0084 -1.2542 -1.2636
13178TIP3   OH260948   3.517   4.415   0.090 -0.0018  0.2757 -0.2292
13178TIP3    H160949   3.612   4.419   0.096  0.0290 -1.1205  0.3812
13178TIP3    H260950   3.500   4.355   0.017 -0.4369  1.3796 -1.0720
13179TIP3   OH260951   4.590   0.198   5.084  0.0430  0.3105 -0.3087
13179TIP3    H160952   4.500   0.177   5.110  0.3561 -2.6809 -1.4845
13179TIP3    H260953   4.635   0.114   5.086  2.0228  1.2821 -2.8856
13180TIP3   OH260954   6.048   4.828   5.814  0.4385 -0.5549  0.3527
13180TIP3    H160955   6.001   4.789   5.887 -1.0674  2.2370  0.9334
13180TIP3    H260956   5.987   4.824   5.741  1.3649 -1.8980 -0.3802
13181TIP3   OH260957   6.277   0.040   4.190  0.3479 -0.2502 -0.1193
13181TIP3    H160958   6.246   0.130   4.176  1.9312  0.4570  0.7175
13181TIP3    H260959   6.199  -0.014   4.183 -0.4288  1.0560 -1.9013
13182TIP3   OH260960   5.094   0.508   2.858  0.4854  0.4062  0.0251
13182TIP3    H160961   5.096   0.596   2.820 -0.0018  0.2160 -0.4688
13182TIP3    H260962   5.137   0.516   2.942 -1.2769  1.5469  0.8566
13183TIP3   OH260963   2.207   2.792   2.180  1.2660 -0.1154 -0.1670
13183TIP3    H160964   2.219   2.827   2.268 -0.3434  1.8490 -0.7093
13183TIP3    H260965   2.148   2.853   2.137 -0.9839 -3.0074 -1.4210
13184TIP3   OH260966   2.822   5.231  10.708  0.1876  0.5081  0.6455
13184TIP3    H160967   2.894   5.280  10.747 -0.7739  0.7920  2.0811
13184TIP3    H260968   2.747   5.289  10.713 -0.0546  0.4152 -1.3368
13185TIP3   OH260969   4.041   6.476   5.868 -0.1950 -0.5765 -0.6558
13185TIP3    H160970   4.050   6.436   5.955  1.0869 -2.7315 -1.7227
13185TIP3    H260971   4.015   6.403   5.811  1.2428  0.3152 -2.5072
13186TIP3   OH260972   5.000   2.774   1.924  0.0976 -0.0300 -0.2268
13186TIP3    H160973   4.909   2.745   1.923 -0.4683  1.4937  2.1863
13186TIP3    H260974   5.047   2.703   1.969 -0.4173  0.4671  1.1295
13187TIP3   OH260975   2.740   6.649   3.083  0.2674 -0.3494  0.0585
13187TIP3    H160976   2.832   6.655   3.109  0.2523  0.0364  0.0232
13187TIP3    H260977   2.741   6.588   3.009  0.2123 -2.0134  1.4049
13188TIP3   OH260978   5.356   0.882   0.504 -0.0695 -0.4468 -0.1406
13188TIP3    H160979   5.419   0.935   0.553 -0.7463 -0.1511  0.4203
13188TIP3    H260980   5.359   0.796   0.547  0.6685 -0.7268 -0.7400
13189TIP3   OH260981   4.006   1.892  15.409  0.2379  0.0827 -0.1285
13189TIP3    H160982   3.953   1.963  15.372  0.5572  0.2756 -0.2239
13189TIP3    H260983   4.067   1.870  15.339 -0.9379 -1.4223 -0.6979
13190TIP3   OH260984   2.818   0.038   1.316  0.2674 -0.6894 -0.0926
13190TIP3    H160985   2.723   0.025   1.317  0.3951 -1.7900 -0.9457
13190TIP3    H260986   2.846   0.001   1.232  1.5837 -1.3795  0.6377
13191TIP3   OH260987   0.597   0.721   6.048  0.0628  0.0154 -0.4156
13191TIP3    H160988   0.610   0.815   6.061 -0.7946 -0.0583  1.0859
13191TIP3    H260989   0.504   0.707   6.066 -0.3365 -0.7877 -2.8169
13192TIP3   OH260990   6.623   5.497  12.556 -0.3118  0.4877  0.1581
13192TIP3    H160991   6.685   5.424  12.554 -0.0156  0.7497 -0.1169
13192TIP3    H260992   6.646   5.546  12.635 -0.3271  0.4459  0.1881
13193TIP3   OH260993   4.813   4.617   0.733 -0.0946  0.3773  0.6459
13193TIP3    H160994   4.788   4.549   0.796 -0.1635 -0.8878 -0.7341
13193TIP3    H260995   4.904   4.638   0.755  1.3174 -3.1188 -1.4996
13194TIP3   OH260996   3.571   3.202  16.343 -0.2734 -0.6444  0.3157
13194TIP3    H160997   3.530   3.286  16.322  0.1513 -0.3997  0.4577
13194TIP3    H260998   3.660   3.225  16.372  0.2494 -1.2407 -0.8026
13195TIP3   OH260999   4.083   1.544   0.427 -0.2168 -0.3477 -0.1935
13195TIP3    H161000   4.086   1.451   0.403 -0.2485 -0.9579  2.0628
13195TIP3    H261001   4.099   1.545   0.521  0.4824  2.0094 -0.3116
13196TIP3   OH261002   0.227   4.891  11.317  0.1189 -0.6566  0.0680
13196TIP3    H161003   0.262   4.828  11.381  2.1294 -1.8611 -2.1529
13196TIP3    H261004   0.264   4.975  11.344  2.2981 -1.4206 -0.3993
13197TIP3   OH261005   3.331   0.817  12.858 -0.1351  0.2223 -0.5821
13197TIP3    H161006   3.317   0.794  12.766 -1.4818  1.6457 -0.7561
13197TIP3    H261007   3.293   0.904  12.867  1.0378  0.5957  1.0597
13198TIP3   OH261008   4.900   5.848   0.862  0.0572  0.6887 -0.1326
13198TIP3    H161009   4.987   5.869   0.896 -0.1488  1.1002  0.1493
13198TIP3    H261010   4.881   5.761   0.896  0.4454  0.5122 -0.3647
13199TIP3   OH261011   3.170   5.461   3.649  0.3569  0.1886 -0.4419
13199TIP3    H161012   3.189   5.383   3.702  0.2384 -0.1573 -0.9095
13199TIP3    H261013   3.231   5.527   3.681  0.2738 -0.0136  0.1435
13200TIP3   OH261014   1.498   1.257   4.789  0.3108 -0.1136 -0.4457
13200TIP3    H161015   1.570   1.312   4.757  1.7821 -1.9300 -0.3885
13200TIP3    H261016   1.514   1.250   4.884 -0.7942  0.6582 -0.1938
13201TIP3   OH261017   0.315   5.050  16.731 -0.3920  0.2666  0.2395
13201TIP3    H161018   0.363   5.023  16.653  0.2007  0.6730  0.4642
13201TIP3    H261019   0.230   5.078  16.699 -0.0839  0.5975 -0.2769
13202TIP3   OH261020   0.938   0.720  14.309 -0.7974 -0.2836  0.1756
13202TIP3    H161021   0.901   0.674  14.234 -1.6776  1.3420 -0.4229
13202TIP3    H261022   0.862   0.761  14.352 -0.0059  0.9991  0.3919
13203TIP3   OH261023   6.216   1.719   5.022  0.0120  0.8475  0.2481
13203TIP3    H161024   6.202   1.686   4.934 -0.9008  3.2957 -0.5435
13203TIP3    H261025   6.311   1.720   5.033  0.1249  0.6017 -0.7316
13204TIP3   OH261026   0.404   1.659  14.844  0.6738 -0.0493 -0.1429
13204TIP3    H161027   0.460   1.593  14.885 -0.5706 -0.2495  1.3057
13204TIP3    H261028   0.460   1.737  14.836  0.9939 -0.0362  1.8903
13205TIP3   OH261029   5.833   1.941   0.861 -0.5221  0.2251  0.6400
13205TIP3    H161030   5.841   1.856   0.905 -2.4791  0.3750  1.3402
13205TIP3    H261031   5.903   1.941   0.796 -0.4952 -1.9340  0.6344
13206TIP3   OH261032   0.649   0.378   3.635 -0.7623 -0.4267  0.1186
13206TIP3    H161033   0.716   0.322   3.673  0.4977 -0.0421 -1.4931
13206TIP3    H261034   0.652   0.458   3.687 -1.7517 -1.3850  1.6711
13207TIP3   OH261035   6.557   1.688  15.276  0.2181  0.3652 -0.1688
13207TIP3    H161036   6.573   1.745  15.351 -1.5094 -1.3570  1.5553
13207TIP3    H261037   6.644   1.656  15.251  0.7963  0.9154  1.1066
13208TIP3   OH261038   1.461   0.144  15.005 -0.1824  0.0647 -0.0932
13208TIP3    H161039   1.447   0.055  15.035  0.0957 -0.0031 -0.1597
13208TIP3    H261040   1.380   0.191  15.027  0.1089  0.0723  0.9691
13209TIP3   OH261041   6.575   5.106   5.861  0.0037  0.7401 -0.1956
13209TIP3    H161042   6.589   5.155   5.780  0.1912 -0.6580 -1.0098
13209TIP3    H261043   6.647   5.043   5.864 -0.5456  0.1437  0.5721
13210TIP3   OH261044   3.304   1.004  12.098  0.2246 -0.1216  0.0543
13210TIP3    H161045   3.384   1.013  12.046  0.4716  1.4676  0.6802
13210TIP3    H261046   3.251   1.080  12.072 -0.0108  0.2076  1.4723
13211TIP3   OH261047   0.249   3.749   5.578 -0.0056 -0.1374 -0.5765
13211TIP3    H161048   0.158   3.778   5.577 -0.0328 -0.2367 -3.3486
13211TIP3    H261049   0.246   3.659   5.545  1.0900 -0.2216 -0.4595
13212TIP3   OH261050   5.016   1.350  14.150  0.4541  0.5435  0.2315
13212TIP3    H161051   5.106   1.328  14.129  0.1601  0.3410 -0.8467
13212TIP3    H261052   4.994   1.295  14.225  1.1430  0.4125  0.3331
13213TIP3   OH261053   2.472   1.593   1.797  0.1155  0.3299  0.2487
13213TIP3    H161054   2.401   1.646   1.759  1.2811  0.9515 -1.1025
13213TIP3    H261055   2.533   1.658   1.833 -0.6504 -0.2344  2.6496
13214TIP3   OH261056   6.455   4.078  14.714  0.3219  0.1688  0.0214
13214TIP3    H161057   6.429   3.986  14.718  1.5168 -0.1907 -0.3446
13214TIP3    H261058   6.412   4.112  14.635 -0.9682  0.2031  0.7244
13215TIP3   OH261059   0.265   3.872  11.591  0.3771  0.0749 -0.1057
13215TIP3    H161060   0.254   3.878  11.496 -1.5605 -1.9344 -0.0355
13215TIP3    H261061   0.348   3.825  11.603  0.0426 -0.6979 -0.8118
13216TIP3   OH261062   4.158   2.067   5.014 -0.0949 -0.3493  0.1296
13216TIP3    H161063   4.187   1.977   4.994 -2.4613 -1.9628  3.4341
13216TIP3    H261064   4.203   2.088   5.096 -0.9959  0.7462  0.3529
13217TIP3   OH261065   1.453   3.495  16.519 -0.2975  0.1206  0.7264
13217TIP3    H161066   1.471   3.511  16.612 -2.3422 -1.7706  1.4859
13217TIP3    H261067   1.537   3.511  16.476  0.5361  1.6244  2.8030
13218TIP3   OH261068   2.494   0.293  11.299 -0.0033 -0.4749 -0.0533
13218TIP3    H161069   2.454   0.343  11.227  0.8184  1.0069  0.5022
13218TIP3    H261070   2.559   0.237  11.256 -1.3505 -1.5466 -0.7463
13219TIP3   OH261071   3.481   3.682   0.570 -0.2961  0.2002 -0.4875
13219TIP3    H161072   3.446   3.594   0.585  0.3012  0.2827  1.5719
13219TIP3    H261073   3.437   3.737   0.635  2.3939  0.6000  1.0571
13220TIP3   OH261074   6.384   5.640   3.752  0.0452  0.5366 -0.1570
13220TIP3    H161075   6.362   5.568   3.811 -2.4242  1.7246  0.4356
13220TIP3    H261076   6.472   5.667   3.779  0.4612 -1.3779  0.4733
13221TIP3   OH261077   2.561   5.952   5.201 -0.1816  0.0602 -0.5116
13221TIP3    H161078   2.574   6.003   5.281  1.6081 -0.1940 -0.6160
13221TIP3    H261079   2.542   6.017   5.134 -1.8028  0.2686  0.1118
13222TIP3   OH261080   3.996   3.985   0.349 -0.3521  0.5233 -0.0091
13222TIP3    H161081   3.942   3.964   0.425  0.0244 -1.1734 -0.2064
13222TIP3    H261082   4.082   4.006   0.386 -0.3222  0.2494  0.0762
13223TIP3   OH261083   2.341   0.303   5.196  0.2912 -0.0134  0.4303
13223TIP3    H161084   2.424   0.257   5.181  0.5647  0.6735 -0.1777
13223TIP3    H261085   2.363   0.374   5.256  0.2633  0.5195 -0.1828
13224TIP3   OH261086   3.045   0.723   0.729  0.1832 -0.0891  0.5479
13224TIP3    H161087   2.977   0.668   0.690  0.0059  0.6742 -0.2399
13224TIP3    H261088   3.100   0.749   0.654  0.0139  1.1429  0.8478
13225TIP3   OH261089   5.169   2.404  16.414 -0.2212  0.4307  0.1475
13225TIP3    H161090   5.077   2.383  16.397  0.1271 -1.2051  0.2714
13225TIP3    H261091   5.167   2.461  16.491 -1.3180  2.5034 -1.3538
13226TIP3   OH261092   1.436   1.814   1.316  0.0884  0.1150  0.3982
13226TIP3    H161093   1.374   1.887   1.324  0.9971  0.7071  2.2248
13226TIP3    H261094   1.421   1.761   1.395  0.4070 -0.9255 -0.2276
13227TIP3   OH261095   3.108   1.976   0.913 -0.8500 -0.6073 -0.0079
13227TIP3    H161096   3.201   1.996   0.914 -1.1345  0.8145  2.3273
13227TIP3    H261097   3.093   1.931   0.830  1.4834  1.1782 -1.4306
13228TIP3   OH261098   0.156   3.615   6.611  0.2863 -0.0155  0.7172
13228TIP3    H161099   0.251   3.606   6.599  0.1061 -1.2631  0.0947
13228TIP3    H261100   0.126   3.526   6.632 -0.7715  0.3254  0.6815
13229TIP3   OH261101   5.112   5.881   3.022  0.1810  0.2720  0.1352
13229TIP3    H161102   5.189   5.854   2.972 -1.8943 -1.8385 -2.0891
13229TIP3    H261103   5.068   5.945   2.966 -0.3796  0.4685  0.7927
13230TIP3   OH261104   2.701   3.935   4.230  0.1836  0.5262 -0.0889
13230TIP3    H161105   2.685   3.976   4.315  1.3374 -0.4612  0.6222
13230TIP3    H261106   2.703   4.009   4.169  0.8710  1.4183  0.9790
13231TIP3   OH261107   2.911   3.472  14.544 -0.6964  0.4201 -0.1391
13231TIP3    H161108   2.994   3.487  14.498 -0.2910  0.4898  0.6061
13231TIP3    H261109   2.929   3.499  14.634 -1.6267  0.7367 -0.0453
13232TIP3   OH261110   5.813   1.902  14.994 -0.0664 -0.1931  0.0954
13232TIP3    H161111   5.819   1.987  14.949  0.6456 -0.4154 -0.2435
13232TIP3    H261112   5.834   1.922  15.085  0.3485 -0.0431 -0.0320
13233TIP3   OH261113   0.748   4.237   2.226  0.2625 -0.1332 -0.4935
13233TIP3    H161114   0.766   4.228   2.132 -0.9894 -0.2729 -0.7342
13233TIP3    H261115   0.658   4.268   2.230  0.5081  0.4709  0.6575
13234TIP3   OH261116   3.706   4.554   6.194  0.2245 -0.2030  0.1097
13234TIP3    H161117   3.646   4.628   6.181  0.6044  0.3304  1.3856
13234TIP3    H261118   3.653   4.487   6.238  0.8556  0.7278  2.3600
13235TIP3   OH261119   4.559   4.542   2.062  0.4469 -0.8234 -0.5006
13235TIP3    H161120   4.503   4.476   2.021 -0.0032  0.5740 -2.1834
13235TIP3    H261121   4.597   4.590   1.988  1.6813  0.0471  0.6854
13236TIP3   OH261122   2.751   0.607  16.001 -0.7361 -0.3822 -0.2081
13236TIP3    H161123   2.697   0.685  15.987 -1.6745 -1.1931 -1.1859
13236TIP3    H261124   2.839   0.634  15.973 -0.9075  0.5233  0.1042
13237TIP3   OH261125   0.753   4.563  14.213 -0.0699  0.0407 -0.0773
13237TIP3    H161126   0.717   4.476  14.197 -1.0523 -0.1923  3.1132
13237TIP3    H261127   0.848   4.550  14.213 -0.1569 -0.6967 -1.1624
13238TIP3   OH261128   0.890   0.179   4.767  0.8082  0.7181  0.0677
13238TIP3    H161129   0.960   0.137   4.717  0.1580 -0.7043  0.3186
13238TIP3    H261130   0.817   0.118   4.761  0.3514  1.0725  1.7777
13239TIP3   OH261131   2.393   2.369   0.536 -0.0242 -0.2960 -0.4281
13239TIP3    H161132   2.476   2.415   0.546 -1.7321  2.6426  0.7286
13239TIP3    H261133   2.390   2.343   0.444  1.6056  0.6878 -0.7593
13240TIP3   OH261134   6.593   6.528   4.947  0.1871  0.0431 -0.1379
13240TIP3    H161135   6.676   6.544   4.902  0.4081 -2.0524 -0.5256
13240TIP3    H261136   6.608   6.448   4.997 -1.1986  0.3644  0.8159
13241TIP3   OH261137   5.262   4.400  11.555  0.1675 -0.1730  0.2122
13241TIP3    H161138   5.298   4.384  11.642 -1.0055 -0.8832  0.5896
13241TIP3    H261139   5.177   4.440  11.572  0.1099  0.0694 -0.6187
13242TIP3   OH261140   3.280   0.530  13.925  0.0531 -0.1300  0.6390
13242TIP3    H161141   3.276   0.623  13.946  0.7984  0.4534 -1.5950
13242TIP3    H261142   3.366   0.502  13.956 -0.4252 -0.2533  1.8942
13243TIP3   OH261143   5.615   3.059  11.398  0.9621  0.4667  0.2713
13243TIP3    H161144   5.541   3.059  11.459 -0.6534 -0.2333 -1.6610
13243TIP3    H261145   5.692   3.065  11.455 -0.5734  2.0826  2.2757
13244TIP3   OH261146   2.649   2.451   1.727  0.1147  0.0641  0.5315
13244TIP3    H161147   2.672   2.537   1.693 -1.5304  0.2150 -0.2643
13244TIP3    H261148   2.723   2.395   1.703 -0.3972  0.4528 -2.2257
13245TIP3   OH261149   6.588   4.700   1.956 -0.0005 -0.2703  0.3221
13245TIP3    H161150   6.568   4.794   1.959 -1.3001 -0.4627 -1.4628
13245TIP3    H261151   6.662   4.693   1.896  1.2224 -0.2258  1.8083
13246TIP3   OH261152   6.491   0.055   5.684  0.0292  0.5355  0.0940
13246TIP3    H161153   6.485  -0.026   5.633  0.4115 -0.2644  1.2822
13246TIP3    H261154   6.407   0.060   5.730 -0.0772  0.9349 -0.1418
13247TIP3   OH261155   5.312   5.452  16.269 -0.3188 -0.4464  0.4329
13247TIP3    H161156   5.289   5.361  16.285 -2.5120 -0.2795 -1.4185
13247TIP3    H261157   5.370   5.476  16.341 -1.5115 -2.6417  2.1693
13248TIP3   OH261158   3.356   5.153  16.735 -0.7100  0.7536 -0.1060
13248TIP3    H161159   3.294   5.217  16.770 -1.6843 -0.6008  0.6656
13248TIP3    H261160   3.301   5.082  16.702  0.4683 -0.9680  1.5988
13249TIP3   OH261161   4.888   4.983   0.652  0.5499  0.1130 -0.1028
13249TIP3    H161162   4.974   4.973   0.612 -0.1514 -0.7967 -1.4119
13249TIP3    H261163   4.902   4.962   0.744  1.6727 -0.3249 -0.3703
13250TIP3   OH261164   1.325   3.777  16.252  0.3407  0.0783 -0.2822
13250TIP3    H161165   1.350   3.769  16.160 -1.1542 -0.5543 -0.6542
13250TIP3    H261166   1.264   3.852  16.253  1.0431  0.6492  0.3492
13251TIP3   OH261167   5.011   0.001   4.255 -0.2399 -0.2453  0.3997
13251TIP3    H161168   4.980  -0.076   4.208  0.2712 -0.4037  0.3185
13251TIP3    H261169   5.105   0.002   4.240  0.2011 -1.3061  2.8772
13252TIP3   OH261170   0.911   2.489   5.080 -0.1821  0.1468  0.2571
13252TIP3    H161171   0.991   2.540   5.090  0.1659 -0.5150  0.8607
13252TIP3    H261172   0.918   2.450   4.992 -1.8193  3.4802 -1.4260
13253TIP3   OH261173   5.261   2.862   3.263  0.0781  0.4688 -0.0902
13253TIP3    H161174   5.198   2.910   3.318  0.6690  1.2873 -0.1290
13253TIP3    H261175   5.268   2.913   3.183  0.6074  0.2468 -0.1900
13254TIP3   OH261176   5.027   2.113   2.209 -0.1407 -0.3948  0.3431
13254TIP3    H161177   4.973   2.092   2.285 -1.8144  1.9438 -0.1180
13254TIP3    H261178   5.099   2.166   2.244 -1.3428  1.3517  0.2509
13255TIP3   OH261179   4.575   6.395   6.532  0.0667 -0.2813 -0.5341
13255TIP3    H161180   4.530   6.325   6.579  1.0879  0.8763  2.3180
13255TIP3    H261181   4.506   6.458   6.510 -0.4005 -0.7664 -0.4726
13256TIP3   OH261182   3.745   2.001   3.706 -0.3850 -0.2894 -0.6643
13256TIP3    H161183   3.744   1.922   3.652 -0.1219 -1.2118  0.6666
13256TIP3    H261184   3.808   1.982   3.775 -0.8592  0.8129  0.0797
13257TIP3   OH261185   5.688   4.179   0.405  0.2643  0.6457  0.3924
13257TIP3    H161186   5.670   4.262   0.360  1.6393  0.9137  0.3154
13257TIP3    H261187   5.712   4.119   0.335  0.9110  0.6486  0.6049
13258TIP3   OH261188   5.549   2.866  12.156 -0.6490 -0.3469 -0.1000
13258TIP3    H161189   5.490   2.898  12.087  0.6639  0.7035 -0.7700
13258TIP3    H261190   5.492   2.825  12.220 -2.1678  1.1582 -0.4655
13259TIP3   OH261191   2.599   1.356  11.502  0.1501 -0.3198 -0.1392
13259TIP3    H161192   2.512   1.367  11.540  0.4552  0.1054  0.4380
13259TIP3    H261193   2.654   1.328  11.575  0.5839 -0.1997 -0.4182
13260TIP3   OH261194   6.483   1.294  12.651  0.0494  0.0634  0.6078
13260TIP3    H161195   6.501   1.205  12.620  0.3675  0.2345  0.2960
13260TIP3    H261196   6.568   1.338  12.648 -0.1983  0.5230  0.2731
13261TIP3   OH261197   6.255   0.916  14.268  0.2349  0.0772 -0.1418
13261TIP3    H161198   6.270   0.902  14.361  2.7610 -1.9255 -0.7676
13261TIP3    H261199   6.186   0.853  14.245  0.0858  0.0969  0.2525
13262TIP3   OH261200   4.284   3.323   5.453  0.5107  0.5371  0.2203
13262TIP3    H161201   4.286   3.412   5.417  1.7026  0.1038 -0.8333
13262TIP3    H261202   4.192   3.299   5.452  0.5265  0.3291 -3.1770
13263TIP3   OH261203   5.762   1.862   5.153  0.1040  0.6573 -0.2890
13263TIP3    H161204   5.820   1.868   5.078  0.7090  1.7644  0.2610
13263TIP3    H261205   5.788   1.782   5.198  0.3597  0.4887 -0.7459
13264TIP3   OH261206   2.391   0.007  14.844  0.3804 -0.9705 -0.0904
13264TIP3    H161207   2.338  -0.071  14.827 -0.2416 -0.4722 -0.4134
13264TIP3    H261208   2.448   0.014  14.768 -0.1422 -0.6262 -0.4499
13265TIP3   OH261209   4.771   5.029   3.322 -0.4463  0.2114 -0.5082
13265TIP3    H161210   4.807   5.083   3.252 -0.6897  0.0538 -0.7572
13265TIP3    H261211   4.763   4.942   3.283 -2.7558  0.6285 -1.0244
13266TIP3   OH261212   0.009   1.854   1.795 -0.1523  0.1978  0.1054
13266TIP3    H161213  -0.025   1.869   1.707  0.5223  1.2350  0.0105
13266TIP3    H261214   0.028   1.760   1.798 -0.3384  0.1272 -0.7971
13267TIP3   OH261215   1.125   0.493   2.531 -0.8316  0.4455  0.1332
13267TIP3    H161216   1.087   0.412   2.498 -1.1493  0.6172  0.0804
13267TIP3    H261217   1.128   0.481   2.626  0.6224 -0.2876  0.0170
13268TIP3   OH261218   5.223   3.030  12.361  0.5614  0.1517 -0.3869
13268TIP3    H161219   5.191   2.940  12.363  0.4403  0.1245 -2.4273
13268TIP3    H261220   5.276   3.039  12.440  0.5840 -1.7114 -0.1790
13269TIP3   OH261221   2.576   2.995  14.010  0.0491  0.2896  0.7429
13269TIP3    H161222   2.633   3.059  13.969  0.0207  1.3841  2.3533
13269TIP3    H261223   2.635   2.927  14.043  0.0261 -0.8468 -1.5161
13270TIP3   OH261224   3.783   2.908   0.063  0.4169 -0.0175 -0.1571
13270TIP3    H161225   3.830   2.848   0.121  0.4146  0.9866  0.9037
13270TIP3    H261226   3.693   2.907   0.094  0.3994  0.4616 -0.1812
13271TIP3   OH261227   1.763   6.535  14.260  0.4893  0.1264 -0.6581
13271TIP3    H161228   1.786   6.495  14.344 -0.3427  1.7706  0.3892
13271TIP3    H261229   1.836   6.514  14.202  2.0616  0.7120  1.0736
13272TIP3   OH261230   5.265   5.947  16.915  0.1929 -0.7477 -0.3331
13272TIP3    H161231   5.179   5.988  16.908 -0.5077 -2.2404 -0.6465
13272TIP3    H261232   5.326   6.021  16.913 -1.1162  0.4176  1.2196
13273TIP3   OH261233   1.599   3.789  16.526  0.0767  1.0918 -0.1540
13273TIP3    H161234   1.622   3.725  16.594  1.6617 -0.1100 -1.7991
13273TIP3    H261235   1.675   3.847  16.522 -0.2582  1.5020 -0.5214
13274TIP3   OH261236   5.453   3.055  11.619 -0.3950  0.0398  0.3458
13274TIP3    H161237   5.467   2.961  11.626  0.9107  0.3056  1.5986
13274TIP3    H261238   5.380   3.074  11.678  1.4660  0.2528  2.6478
13275TIP3   OH261239   4.550   1.972   3.398  0.3792 -0.5766  0.2465
13275TIP3    H161240   4.530   1.880   3.413 -2.1422 -0.1855 -0.4689
13275TIP3    H261241   4.520   2.017   3.477  0.2062 -0.2010 -0.0284
13276TIP3   OH261242   5.588   1.345   1.100  0.3027  0.0946  0.2209
13276TIP3    H161243   5.576   1.314   1.010  0.7007  2.0386 -0.5307
13276TIP3    H261244   5.499   1.357   1.134  0.1464  0.4547 -0.3129
13277TIP3   OH261245   2.909   1.391   1.709  0.4107  0.4586  0.2683
13277TIP3    H161246   2.983   1.368   1.651  1.5439  3.3260  0.5291
13277TIP3    H261247   2.892   1.311   1.758  0.9860 -1.3360 -2.3350
13278TIP3   OH261248   0.015   6.588   1.844  0.0820  0.0613 -0.5783
13278TIP3    H161249  -0.066   6.543   1.869  1.4962 -1.2840  1.7408
13278TIP3    H261250   0.008   6.675   1.885  0.5202 -0.6502  1.0610
13279TIP3   OH261251   0.401   6.564   1.609 -0.3802  0.1673  0.5947
13279TIP3    H161252   0.374   6.556   1.517  0.6446  0.3381  0.2750
13279TIP3    H261253   0.490   6.529   1.611 -0.2199  0.6167  1.4380
13280TIP3   OH261254   4.953   0.397   2.245  0.2859  0.1807 -0.3657
13280TIP3    H161255   4.937   0.399   2.150 -1.8239  1.1089 -0.0168
13280TIP3    H261256   4.929   0.485   2.275  0.8654 -0.1383  1.0566
13281TIP3   OH261257   2.380   6.725   3.304  0.2724  0.0582 -0.3088
13281TIP3    H161258   2.363   6.806   3.257  0.2859 -1.4580 -3.0526
13281TIP3    H261259   2.476   6.715   3.302  0.3836  0.5980  1.1897
13282TIP3   OH261260   3.775   5.614  15.038  0.5250  0.2930  0.5689
13282TIP3    H161261   3.745   5.527  15.011 -0.9989  0.3844  1.9035
13282TIP3    H261262   3.700   5.672  15.022  1.7008  1.4681 -0.7922
13283TIP3   OH261263   3.559   3.589  14.851  0.6748 -0.1845 -0.1259
13283TIP3    H161264   3.533   3.540  14.929 -0.5030  0.0082 -0.3877
13283TIP3    H261265   3.498   3.662  14.847  1.2171  0.2352 -0.8020
13284TIP3   OH261266   1.463   1.898   4.452 -0.1304 -0.6579 -0.1132
13284TIP3    H161267   1.442   1.909   4.544 -0.5494 -1.6473 -0.0887
13284TIP3    H261268   1.461   1.987   4.416 -2.3516 -0.5007  0.3318
13285TIP3   OH261269   0.414   4.713  14.873  0.1407 -0.4960  0.8684
13285TIP3    H161270   0.426   4.689  14.782  0.5620  0.1250  0.7566
13285TIP3    H261271   0.432   4.633  14.922  1.3313 -0.4643  0.4949
13286TIP3   OH261272   5.393   2.185  11.204  0.5625  0.3779  0.1543
13286TIP3    H161273   5.367   2.271  11.170  0.3019  1.7999  3.8062
13286TIP3    H261274   5.358   2.123  11.140 -0.4195  2.8736 -1.8439
13287TIP3   OH261275   0.240   5.313   1.146  0.1419  0.1429  0.1313
13287TIP3    H161276   0.207   5.314   1.056  1.6972 -0.9613 -0.4794
13287TIP3    H261277   0.166   5.343   1.199 -1.0889 -0.0609 -1.4143
13288TIP3   OH261278   0.232   1.491  14.716  0.4142 -0.5886  0.0400
13288TIP3    H161279   0.292   1.542  14.769  1.6462 -1.6385 -0.3116
13288TIP3    H261280   0.280   1.475  14.634 -1.2816  0.6348 -1.2129
13289TIP3   OH261281   5.502   2.542   5.669  0.3725 -0.6959 -0.0866
13289TIP3    H161282   5.497   2.523   5.763 -1.0627 -0.9989 -0.2082
13289TIP3    H261283   5.493   2.638   5.664 -2.6106 -0.9212 -0.0623
13290TIP3   OH261284   2.214   1.416  16.254  0.8728 -0.4331 -0.0918
13290TIP3    H161285   2.216   1.469  16.175 -0.0725 -0.8563 -0.4034
13290TIP3    H261286   2.135   1.363  16.246  1.1617 -1.0175  0.7864
13291TIP3   OH261287   3.833   0.846  16.343 -0.1652 -0.5333  0.1196
13291TIP3    H161288   3.875   0.885  16.420 -0.6973 -0.7708  0.5388
13291TIP3    H261289   3.854   0.753  16.348 -0.5670 -0.6184  0.2176
13292TIP3   OH261290   5.114   4.549  14.994 -0.5565  0.4754 -0.5054
13292TIP3    H161291   5.058   4.610  14.946  0.9308  1.5442 -0.9154
13292TIP3    H261292   5.147   4.489  14.928 -0.1426  0.6927 -0.5025
13293TIP3   OH261293   2.449   1.351  16.368 -0.5532 -0.0448  0.0943
13293TIP3    H161294   2.384   1.365  16.299  0.4601  1.4320 -0.5776
13293TIP3    H261295   2.504   1.429  16.365  1.5447 -1.4832  0.3468
13294TIP3   OH261296   5.285   4.380  14.158 -0.4140 -0.0831 -0.0687
13294TIP3    H161297   5.245   4.338  14.234  0.1951  1.8376  1.3501
13294TIP3    H261298   5.289   4.311  14.092 -1.8374 -1.5222  1.3063
13295TIP3   OH261299   5.002   3.935  11.298  0.6380  0.0381  0.5311
13295TIP3    H161300   4.969   3.922  11.209 -1.1104  0.5958  1.0863
13295TIP3    H261301   5.088   3.974  11.286 -0.1130  1.3069 -0.9191
13296TIP3   OH261302   4.739   1.785  15.217 -0.0003 -0.2121 -0.0595
13296TIP3    H161303   4.741   1.733  15.297  0.5149 -0.9611 -0.5551
13296TIP3    H261304   4.652   1.825  15.216  0.8831  1.8683  2.1796
13297TIP3   OH261305   0.933   2.560   3.624 -0.5157  0.0870 -0.4824
13297TIP3    H161306   0.962   2.607   3.546 -0.8511 -1.4627 -1.5806
13297TIP3    H261307   0.941   2.623   3.696 -0.9470  1.7700 -1.9023
13298TIP3   OH261308   5.663   4.553   1.240 -0.0394  0.3421 -0.2801
13298TIP3    H161309   5.608   4.522   1.168  0.3530 -0.3848 -0.2743
13298TIP3    H261310   5.617   4.527   1.319 -1.1063  2.2611 -0.2400
13299TIP3   OH261311   0.518   2.921  11.145  0.5492 -0.0429  0.3470
13299TIP3    H161312   0.459   2.993  11.164  0.6850 -0.2027  1.3991
13299TIP3    H261313   0.554   2.942  11.058 -1.2398 -0.0996 -0.4248
13300TIP3   OH261314   5.118   2.759   1.506  0.1974 -0.3473 -0.5976
13300TIP3    H161315   5.044   2.816   1.484  1.2385  0.6802 -1.5205
13300TIP3    H261316   5.173   2.813   1.562 -0.3395 -1.5286  1.1038
13301TIP3   OH261317   0.997   3.201  12.624  0.5449  0.6292 -0.0467
13301TIP3    H161318   1.076   3.199  12.677  1.3655  3.0372 -1.1230
13301TIP3    H261319   1.028   3.221  12.535 -0.9755 -1.4470 -1.0835
13302TIP3   OH261320   0.879   0.125  11.750  0.5411 -0.0890 -0.2700
13302TIP3    H161321   0.967   0.157  11.769  0.8489 -0.3142 -1.2873
13302TIP3    H261322   0.887   0.085  11.663 -0.5630 -0.1083 -0.3601
13303TIP3   OH261323   4.828   1.379   5.029  0.4514 -0.1123 -0.3542
13303TIP3    H161324   4.769   1.394   4.955  0.4481 -0.8788 -0.5124
13303TIP3    H261325   4.851   1.286   5.023  0.9150 -0.0418  0.2666
13304TIP3   OH261326   6.529   3.131  12.201  0.2048 -0.3341  0.1701
13304TIP3    H161327   6.517   3.215  12.245  0.7253 -0.5943  0.8268
13304TIP3    H261328   6.456   3.077  12.232  1.7242 -1.1936  2.3964
13305TIP3   OH261329   0.066   3.620   5.245  0.0344  0.3899 -0.5030
13305TIP3    H161330  -0.012   3.673   5.231  0.9468  1.8300 -0.2427
13305TIP3    H261331   0.133   3.682   5.275  0.0134 -1.5176  3.8566
13306TIP3   OH261332   5.589   4.391  15.963  0.4697  0.5515  0.0586
13306TIP3    H161333   5.565   4.307  16.003  0.3892 -0.2723 -1.6572
13306TIP3    H261334   5.626   4.442  16.034  1.0889 -1.1810  1.0129
13307TIP3   OH261335   4.360   4.872  12.224 -0.2157 -0.5522 -0.4831
13307TIP3    H161336   4.331   4.902  12.138  0.2390  3.5188  0.7057
13307TIP3    H261337   4.422   4.939  12.253 -1.6323 -0.9553  3.7210
13308TIP3   OH261338   1.643   5.784   1.888  0.0838 -0.5584 -0.3882
13308TIP3    H161339   1.729   5.754   1.917  0.6658  0.4693 -1.0097
13308TIP3    H261340   1.591   5.788   1.968  1.0640  0.2873  0.2256
13309TIP3   OH261341   2.593   6.431  16.520  0.7555  0.0163  0.1252
13309TIP3    H161342   2.519   6.450  16.461  1.2836  0.2548 -0.4713
13309TIP3    H261343   2.666   6.412  16.461  1.7319  1.9405  0.6728
13310TIP3   OH261344   2.134   5.705   3.509  0.7207  0.7833  0.3901
13310TIP3    H161345   2.084   5.697   3.429 -1.2810 -0.7935  1.7427
13310TIP3    H261346   2.071   5.735   3.575  1.6233 -0.6933  1.9858
13311TIP3   OH261347   4.067   2.260   2.272 -0.2774  0.2774  0.2886
13311TIP3    H161348   3.991   2.238   2.218  0.3548 -0.3740 -0.3555
13311TIP3    H261349   4.122   2.181   2.268  0.8295  1.0518  0.0536
13312TIP3   OH261350   5.240   2.636   4.939 -0.2302  0.4890 -0.3266
13312TIP3    H161351   5.289   2.703   4.986  0.8469 -0.0446 -0.6773
13312TIP3    H261352   5.244   2.663   4.847 -0.4151  0.3329 -0.3809
13313TIP3   OH261353   0.489   0.598  10.963  0.0630 -0.2911 -0.1957
13313TIP3    H161354   0.476   0.693  10.957 -0.8640 -0.4905 -1.5551
13313TIP3    H261355   0.403   0.564  10.987  0.5643 -0.7345  0.9949
13314TIP3   OH261356   5.314   3.713   3.218  0.0237  0.0927 -0.1146
13314TIP3    H161357   5.376   3.639   3.214 -1.0122 -0.9107  1.5512
13314TIP3    H261358   5.228   3.673   3.204 -0.5768  0.9342  1.1014
13315TIP3   OH261359   5.367   6.759  11.684  0.1854 -0.2916 -0.7547
13315TIP3    H161360   5.312   6.830  11.652  0.2493  0.4336  0.6882
13315TIP3    H261361   5.402   6.718  11.605 -0.7138  0.5911 -1.6278
13316TIP3   OH261362   5.767   1.965   0.178  0.1458  0.4955 -0.0535
13316TIP3    H161363   5.722   1.930   0.101  0.8214  0.6849 -0.5419
13316TIP3    H261364   5.857   1.978   0.148  0.6903 -0.5558  1.1208
13317TIP3   OH261365   1.011   1.199   0.990 -0.0423 -0.7348  0.2819
13317TIP3    H161366   0.920   1.168   0.990  0.2304 -1.6281  2.0827
13317TIP3    H261367   1.019   1.250   0.910 -1.9414 -1.2196 -0.2494
13318TIP3   OH261368   4.865   6.459  16.344 -0.0722  0.4378  0.1641
13318TIP3    H161369   4.837   6.379  16.301  0.5958  0.1765  0.2110
13318TIP3    H261370   4.835   6.530  16.287  0.2653  0.1176 -0.4005
13319TIP3   OH261371   4.636   4.914   5.825 -0.0159  0.1394  0.1801
13319TIP3    H161372   4.626   4.819   5.837  2.4066 -0.0487  1.0703
13319TIP3    H261373   4.705   4.922   5.759  0.3687  1.2852  0.7110
13320TIP3   OH261374   4.460   5.013  13.862  0.0607 -0.0713 -0.1329
13320TIP3    H161375   4.469   5.108  13.869 -0.8216 -0.1357  2.1107
13320TIP3    H261376   4.526   4.988  13.797  0.5458  2.0164 -0.4894
13321TIP3   OH261377   1.399   6.673  13.974 -0.8655  0.3215  0.2222
13321TIP3    H161378   1.450   6.696  14.052 -0.1480  0.8938 -0.4157
13321TIP3    H261379   1.403   6.577  13.971  0.2205  0.3596  0.1573
13322TIP3   OH261380   5.415   1.829  14.562  0.4792 -0.2034 -0.0388
13322TIP3    H161381   5.430   1.776  14.483  1.7412 -0.3998  0.3235
13322TIP3    H261382   5.382   1.767  14.626  0.1886 -0.1931 -0.1777
13323TIP3   OH261383   5.965   6.229   2.722 -0.3287  0.4362  0.0823
13323TIP3    H161384   5.880   6.204   2.760 -0.6916  0.9307 -0.3990
13323TIP3    H261385   5.943   6.292   2.653  0.2632 -0.9097 -1.3717
13324TIP3   OH261386   2.553   2.396  12.614  0.6744 -0.0685 -0.4218
13324TIP3    H161387   2.494   2.454  12.662 -0.3521 -1.6378  0.2641
13324TIP3    H261388   2.609   2.357  12.682 -0.2498 -1.6948 -0.5770
13325TIP3   OH261389   5.366   5.730   0.716 -0.8916 -0.0992  0.5085
13325TIP3    H161390   5.433   5.773   0.769 -1.1884 -0.5122  1.2112
13325TIP3    H261391   5.306   5.801   0.692 -2.0470 -0.3174  2.6738
13326TIP3   OH261392   4.715   0.594  15.926 -0.1088  0.3506 -0.1733
13326TIP3    H161393   4.631   0.630  15.898 -0.4248 -1.2578 -1.3236
13326TIP3    H261394   4.723   0.621  16.018 -0.6600  2.7060 -0.7848
13327TIP3   OH261395   2.886   4.100   5.320 -0.3738 -0.3784 -0.1907
13327TIP3    H161396   2.862   4.054   5.400 -0.8156 -1.9190 -1.1869
13327TIP3    H261397   2.946   4.040   5.275  1.5150  1.3526 -0.0362
13328TIP3   OH261398   1.837   5.111  15.108 -0.3905 -0.0171 -0.6216
13328TIP3    H161399   1.834   5.034  15.051  1.8437  0.1807 -1.0568
13328TIP3    H261400   1.847   5.076  15.196  2.5289 -0.2327 -0.9956
13329TIP3   OH261401   3.156   5.638  12.847 -0.1351  0.2385 -0.3629
13329TIP3    H161402   3.200   5.716  12.815 -0.5833  1.4192  1.8352
13329TIP3    H261403   3.222   5.568  12.840  1.4684  1.5697  1.0826
13330TIP3   OH261404   0.503   2.106   1.866 -0.1053  0.7349  0.0382
13330TIP3    H161405   0.500   2.167   1.940 -0.2537 -0.4867  1.0669
13330TIP3    H261406   0.425   2.050   1.879  1.0836 -0.9215  0.2288
13331TIP3   OH261407   3.781   5.391   0.331  0.4184 -0.2276 -0.2915
13331TIP3    H161408   3.761   5.312   0.281 -0.2158  0.0286 -0.4504
13331TIP3    H261409   3.864   5.422   0.295  0.8766 -1.0366  0.0415
13332TIP3   OH261410   6.412   2.994  13.133  0.0004  0.0484 -0.8479
13332TIP3    H161411   6.405   3.008  13.228  0.4030  1.3901 -0.9974
13332TIP3    H261412   6.502   2.966  13.119 -0.0138  0.0058 -0.8504
13333TIP3   OH261413   2.957   5.333  14.216  0.3859 -0.1146  0.0690
13333TIP3    H161414   2.872   5.339  14.259  1.0402 -0.8022  1.4845
13333TIP3    H261415   2.981   5.424  14.196 -0.3192  0.1335  0.3658
13334TIP3   OH261416   3.818   5.315   3.605 -0.2192 -0.1862  0.3178
13334TIP3    H161417   3.876   5.266   3.548 -0.8056 -0.1896 -0.2785
13334TIP3    H261418   3.855   5.403   3.608 -0.0402 -0.2560  0.1454
13335TIP3   OH261419   0.814   0.690   5.880 -0.4124 -0.3033  0.2025
13335TIP3    H161420   0.743   0.693   5.945 -1.0697 -0.0018 -0.5158
13335TIP3    H261421   0.889   0.655   5.928 -1.6247 -2.6435  0.4220
13336TIP3   OH261422   6.016   5.857   5.403 -0.3498 -0.1035 -0.3419
13336TIP3    H161423   5.973   5.905   5.332 -2.3975 -2.7888 -1.0254
13336TIP3    H261424   6.029   5.769   5.368 -0.0997 -1.1080  2.1360
13337TIP3   OH261425   2.972   6.307   5.458 -0.8863  0.3746  0.7009
13337TIP3    H161426   2.995   6.220   5.424 -0.1819  0.5688  0.6753
13337TIP3    H261427   2.922   6.347   5.388  2.6170  1.7010 -1.1634
13338TIP3   OH261428   4.645   1.074   4.362 -0.5700  0.4730  0.2550
13338TIP3    H161429   4.598   1.142   4.409 -0.1281  0.3934  0.8115
13338TIP3    H261430   4.732   1.112   4.346 -0.8895  0.7152 -0.9803
13339TIP3   OH261431   4.802   5.816  12.612 -0.2280  0.2975  0.2130
13339TIP3    H161432   4.742   5.886  12.637 -0.3593  0.3593 -0.2751
13339TIP3    H261433   4.749   5.736  12.616 -0.2708  0.3184  0.0337
13340TIP3   OH261434   0.816   5.263   4.409  0.0797 -0.1727  0.2370
13340TIP3    H161435   0.908   5.237   4.402 -0.3778 -1.2391 -2.1837
13340TIP3    H261436   0.814   5.355   4.381  0.6768  0.4846  2.2545
13341TIP3   OH261437   6.130   5.231  11.903  0.6190 -0.2042  0.4137
13341TIP3    H161438   6.081   5.169  11.958  0.6096  0.0310  0.6699
13341TIP3    H261439   6.210   5.185  11.880  0.4477 -0.4502  0.3043
13342TIP3   OH261440   3.288   2.463   1.099 -0.0566 -0.1912 -0.0455
13342TIP3    H161441   3.231   2.393   1.130  0.7539 -0.8715 -0.0926
13342TIP3    H261442   3.292   2.525   1.172  1.1952 -1.3928  0.9351
13343TIP3   OH261443   1.384   0.454  12.683  0.0235 -0.0284 -0.4627
13343TIP3    H161444   1.354   0.363  12.686 -0.3855  0.0601 -1.7307
13343TIP3    H261445   1.472   0.449  12.646 -0.4240  0.1891 -1.5648
13344TIP3   OH261446   3.885   2.894  13.329  0.0711  0.1144 -0.0914
13344TIP3    H161447   3.945   2.927  13.262  0.8400  0.4859  0.7578
13344TIP3    H261448   3.855   2.810  13.296  2.1404 -0.7189  0.0930
13345TIP3   OH261449   2.717   0.284   6.597  0.1798 -0.1309 -0.1452
13345TIP3    H161450   2.714   0.262   6.691 -0.2445  2.2769  0.4330
13345TIP3    H261451   2.682   0.373   6.592  0.6566 -0.0449 -2.5535
13346TIP3   OH261452   3.036   0.503  10.826 -0.0926  0.6380  0.3657
13346TIP3    H161453   3.022   0.463  10.912 -0.5036 -0.5570 -0.2470
13346TIP3    H261454   3.117   0.463  10.793 -0.5056  0.2942 -0.2517
13347TIP3   OH261455   1.297   1.669   3.259 -0.2969  0.3946  0.5199
13347TIP3    H161456   1.331   1.626   3.337 -2.8773 -0.3952  1.2643
13347TIP3    H261457   1.226   1.612   3.229 -0.8517  1.8706 -1.0514
13348TIP3   OH261458   3.904   1.821   3.002 -0.0099 -0.1528 -0.0288
13348TIP3    H161459   3.850   1.900   3.007 -0.7098 -0.4356 -2.5019
13348TIP3    H261460   3.991   1.852   2.978 -0.2540 -0.1071 -0.8705
13349TIP3   OH261461   0.962   0.495   3.934 -0.6446 -0.5115 -0.1673
13349TIP3    H161462   0.967   0.403   3.909 -0.6533 -0.3545 -0.7795
13349TIP3    H261463   0.893   0.499   4.001  0.8838 -1.2722  1.4708
13350TIP3   OH261464   3.631   2.707  14.404  0.3008  0.0829 -0.4299
13350TIP3    H161465   3.537   2.692  14.397  0.1395  0.3897  1.0055
13350TIP3    H261466   3.661   2.716  14.313 -0.7179 -1.9979 -0.9921
13351TIP3   OH261467   0.909   1.381   6.610 -0.2147 -0.7574  0.6756
13351TIP3    H161468   0.905   1.444   6.682 -0.7800  0.7876 -0.6590
13351TIP3    H261469   1.000   1.350   6.610  0.0331 -0.0537  1.4661
13352TIP3   OH261470   2.038   2.872   2.954 -0.6340  0.2297  0.1167
13352TIP3    H161471   2.017   2.884   3.047  1.8160  0.2508  0.6794
13352TIP3    H261472   1.990   2.942   2.910 -0.4634  1.2674  1.5506
13353TIP3   OH261473   5.843   6.722  14.552 -0.2336 -0.7483 -0.2239
13353TIP3    H161474   5.873   6.641  14.511 -1.7199 -0.1959 -2.5361
13353TIP3    H261475   5.747   6.717  14.549 -0.3470  1.0208 -0.2760
13354TIP3   OH261476   1.539   5.434   5.154 -0.1970 -0.5032 -0.1529
13354TIP3    H161477   1.616   5.382   5.176 -1.0177 -1.2390  1.0183
13354TIP3    H261478   1.492   5.444   5.237 -1.6821 -0.6044 -0.9671
13355TIP3   OH261479   5.935   1.475  13.174  0.2547  0.0070  0.2383
13355TIP3    H161480   5.891   1.433  13.100 -3.2294 -1.2954  2.9196
13355TIP3    H261481   5.922   1.568  13.160 -3.7805 -0.3513  1.1155
13356TIP3   OH261482   5.155   4.555   3.538  0.1946 -0.0963 -0.2961
13356TIP3    H161483   5.079   4.520   3.493 -0.2894  0.5053  0.0465
13356TIP3    H261484   5.119   4.602   3.613  0.6550  2.8910 -1.8737
13357TIP3   OH261485   0.844   1.266  10.712  0.0042 -0.0135 -0.0084
13357TIP3    H161486   0.928   1.268  10.758 -0.3046 -0.7112  0.5952
13357TIP3    H261487   0.850   1.337  10.648  0.8438  0.2871  0.3976
13358TIP3   OH261488   3.925   1.527  15.726 -0.0233 -0.6934 -0.4199
13358TIP3    H161489   3.910   1.513  15.820 -0.4473  0.7451 -0.2547
13358TIP3    H261490   3.888   1.449  15.684  1.4530 -2.0175  0.6848
13359TIP3   OH261491   5.387   3.955   2.881  0.0139  0.6730  0.1217
13359TIP3    H161492   5.302   3.917   2.859 -0.0452  1.2119 -0.5696
13359TIP3    H261493   5.381   3.971   2.976  0.0690 -1.0915  0.4507
13360TIP3   OH261494   0.126   5.339   5.476 -0.4377 -0.0977  0.5549
13360TIP3    H161495   0.097   5.428   5.496  0.0992  0.4506 -1.0336
13360TIP3    H261496   0.200   5.324   5.535  1.0069  1.4282 -0.8264
13361TIP3   OH261497   2.335   0.280   3.343  0.7242  0.3258  0.1228
13361TIP3    H161498   2.341   0.336   3.266  0.8351  1.7049  1.1172
13361TIP3    H261499   2.251   0.234   3.333 -0.5223  2.4816  0.5075
13362TIP3   OH261500   2.159   1.812   6.299 -0.6042 -0.6128 -0.1156
13362TIP3    H161501   2.084   1.849   6.345  0.4079  0.4009  0.7522
13362TIP3    H261502   2.228   1.877   6.309  0.2349 -1.2816 -1.3723
13363TIP3   OH261503   2.311   3.490   0.061 -0.3096 -0.8015  0.2841
13363TIP3    H161504   2.397   3.460   0.092 -0.2997  0.1571  1.2160
13363TIP3    H261505   2.331   3.565   0.005 -0.6173  0.3466  1.6820
13364TIP3   OH261506   3.936   1.081  10.674  0.1253 -0.3098 -0.0076
13364TIP3    H161507   3.912   1.101  10.583 -0.6119 -0.1265  0.2271
13364TIP3    H261508   3.879   1.136  10.727  0.7011 -0.2610  0.5716
13365TIP3   OH261509   3.284   0.123  12.363 -0.4646 -0.4245  0.3198
13365TIP3    H161510   3.242   0.105  12.279 -0.7673 -2.2419  0.8447
13365TIP3    H261511   3.213   0.120  12.427  0.4357 -3.6965  1.2343
13366TIP3   OH261512   5.555   1.890  11.341  0.3964  0.6829  0.1662
13366TIP3    H161513   5.505   1.971  11.349  0.0055  0.4359  0.2474
13366TIP3    H261514   5.571   1.881  11.247 -0.9099  0.0518 -0.0101
13367TIP3   OH261515   4.105   1.209   3.988 -0.0783  0.5916  0.1730
13367TIP3    H161516   4.052   1.140   3.949 -1.5759  0.6913  1.9844
13367TIP3    H261517   4.178   1.163   4.029  0.3857  0.3167 -0.9636
13368TIP3   OH261518   5.210   3.223   3.528 -0.0045  0.1719 -0.1995
13368TIP3    H161519   5.275   3.268   3.475  1.2802 -0.7240  0.6032
13368TIP3    H261520   5.234   3.244   3.618 -1.2034  0.3379  0.0949
13369TIP3   OH261521   1.581   1.371  10.802  0.4718 -0.3724 -0.0100
13369TIP3    H161522   1.487   1.350  10.803  0.0779  1.2741  0.0115
13369TIP3    H261523   1.622   1.299  10.755 -1.0062 -0.4030 -1.2931
13370TIP3   OH261524   0.215   5.936  12.005  0.4643 -0.8899 -0.1892
13370TIP3    H161525   0.294   5.948  11.953 -0.4755 -1.0642 -1.7097
13370TIP3    H261526   0.170   5.862  11.964 -1.2539  0.2139 -0.3518
13371TIP3   OH261527   2.325   6.505   2.619  0.5167 -0.5205 -0.7762
13371TIP3    H161528   2.383   6.532   2.549 -1.1203  1.0774 -1.5445
13371TIP3    H261529   2.266   6.579   2.633 -1.2594 -2.0231  0.0710
13372TIP3   OH261530   6.417   3.844   5.138  0.0691 -0.9011 -0.1121
13372TIP3    H161531   6.424   3.939   5.128  0.9277 -0.9844 -0.3412
13372TIP3    H261532   6.377   3.814   5.057 -0.3071 -0.7284  0.0060
13373TIP3   OH261533   5.112   0.164  12.035 -0.4694 -0.6325 -0.2569
13373TIP3    H161534   5.098   0.069  12.034  0.3802 -0.7561 -0.9617
13373TIP3    H261535   5.207   0.174  12.029 -0.6717  0.2934 -2.1265
13374TIP3   OH261536   5.739   4.387   5.129  0.5794 -0.1904  0.5129
13374TIP3    H161537   5.684   4.355   5.201 -0.3720 -1.3086 -0.6829
13374TIP3    H261538   5.696   4.467   5.100  1.2332  0.5262  1.4875
13375TIP3   OH261539   6.700   4.495   2.469  0.5365  0.7306  0.0128
13375TIP3    H161540   6.621   4.542   2.496 -0.0977 -0.4473  0.2602
13375TIP3    H261541   6.675   4.449   2.389  0.1738 -1.6957  1.4736
13376TIP3   OH261542   2.869   3.522  12.095  0.6969 -0.5564 -0.2746
13376TIP3    H161543   2.906   3.476  12.021  1.9142 -1.2480  0.7459
13376TIP3    H261544   2.840   3.453  12.155  0.4973 -0.0164  0.2656
13377TIP3   OH261545   6.405   4.310   0.041 -0.0757  1.0145 -0.0709
13377TIP3    H161546   6.461   4.240   0.008  0.6278  1.9206 -0.8384
13377TIP3    H261547   6.370   4.276   0.124  0.5264 -0.0993 -0.2639
13378TIP3   OH261548   0.832   6.356   3.976 -0.0247 -0.7411  0.1640
13378TIP3    H161549   0.790   6.402   4.049  2.1157  0.1079  0.8987
13378TIP3    H261550   0.898   6.418   3.944  1.7781 -2.6537  0.0866
13379TIP3   OH261551   1.501   0.631   2.954  0.4144 -0.2193 -0.1846
13379TIP3    H161552   1.578   0.687   2.945  0.9936 -1.0359 -0.3817
13379TIP3    H261553   1.472   0.617   2.864  2.1113 -2.7413 -0.4021
13380TIP3   OH261554   1.583   4.813  12.821 -0.8623 -0.3190  0.2050
13380TIP3    H161555   1.566   4.831  12.913 -3.1893  0.2380 -0.3040
13380TIP3    H261556   1.525   4.740  12.799  0.6346 -1.3183 -0.4921
13381TIP3   OH261557   3.339   2.116   5.119 -0.1734  0.1233  0.7366
13381TIP3    H161558   3.432   2.101   5.134 -0.2634 -1.0253  0.1985
13381TIP3    H261559   3.334   2.145   5.028 -0.3230  0.4258  0.8400
13382TIP3   OH261560   2.446   2.783   6.540  0.3800  0.7600 -0.3172
13382TIP3    H161561   2.459   2.729   6.618  1.0450  1.2209 -0.1001
13382TIP3    H261562   2.400   2.861   6.573  2.0050  1.6507 -0.1017
13383TIP3   OH261563   2.263   2.691  14.011 -0.8317 -0.0679 -0.1544
13383TIP3    H161564   2.214   2.610  14.002 -0.2380 -0.4517  0.0758
13383TIP3    H261565   2.294   2.691  14.102  0.3339 -0.2455 -0.5491
13384TIP3   OH261566   3.399   5.709  15.739 -0.6282  0.2882  0.1736
13384TIP3    H161567   3.324   5.654  15.716  1.6809 -2.6244 -0.6050
13384TIP3    H261568   3.420   5.685  15.829  1.5435 -1.5397 -0.7815
13385TIP3   OH261569   3.556   4.519  11.147  0.1976 -0.1858  0.5194
13385TIP3    H161570   3.627   4.489  11.091  0.0952  2.2189 -0.9954
13385TIP3    H261571   3.527   4.601  11.107 -1.3330  0.4947  2.8844
13386TIP3   OH261572   5.206   3.501   3.812 -0.3863 -0.1266  0.1924
13386TIP3    H161573   5.231   3.564   3.745 -0.3245  1.7320  1.9285
13386TIP3    H261574   5.254   3.422   3.790 -1.4017  0.0119 -2.7264
13387TIP3   OH261575   2.950   0.335  14.298 -0.3418  0.2192  0.1804
13387TIP3    H161576   2.906   0.251  14.283  1.0985 -0.9121  2.1802
13387TIP3    H261577   3.038   0.323  14.262 -0.8436  1.6662 -1.6082
13388TIP3   OH261578   4.233   1.592  12.958 -0.1243  0.5486 -0.1310
13388TIP3    H161579   4.261   1.542  13.035  0.1766 -0.4488 -0.8877
13388TIP3    H261580   4.275   1.678  12.969  0.8608  0.0282  0.2207
13389TIP3   OH261581   5.344   3.058   2.161 -0.2389 -0.5858  0.5028
13389TIP3    H161582   5.320   3.036   2.071  1.5694 -0.2493 -0.0969
13389TIP3    H261583   5.296   2.996   2.215 -0.1673 -1.7953 -0.7884
13390TIP3   OH261584   0.102   5.209  12.867 -0.6136 -0.2516 -0.2323
13390TIP3    H161585   0.175   5.207  12.928 -0.6856 -2.6934 -0.1752
13390TIP3    H261586   0.026   5.232  12.921 -0.1257  0.9710 -0.0518
13391TIP3   OH261587   5.423   6.454  10.947 -0.2032  0.5461  0.2454
13391TIP3    H161588   5.337   6.426  10.915  0.9473 -2.4413 -0.3593
13391TIP3    H261589   5.470   6.482  10.869  0.4624 -0.8848  0.1156
13392TIP3   OH261590   4.112   2.671  11.981  0.3808 -0.2448 -0.0786
13392TIP3    H161591   4.195   2.673  12.027 -0.1056  0.6010  0.7654
13392TIP3    H261592   4.088   2.578  11.980  0.6587 -0.3349  0.8880
13393TIP3   OH261593   4.848   5.269  11.696  0.0601 -0.7634  0.7489
13393TIP3    H161594   4.864   5.178  11.670  0.0963 -0.5944  0.1720
13393TIP3    H261595   4.823   5.313  11.615  3.1234  0.4668  0.3813
13394TIP3   OH261596   1.090   3.901  15.331 -0.3128 -0.9083 -0.3839
13394TIP3    H161597   1.137   3.936  15.255  0.1720 -1.0189 -0.1408
13394TIP3    H261598   1.000   3.932  15.321  0.1500  0.5614 -0.0798
13395TIP3   OH261599   5.608   1.736  12.945 -0.0013 -0.1749 -0.1796
13395TIP3    H161600   5.594   1.709  13.036  0.6909 -0.6754 -0.2189
13395TIP3    H261601   5.667   1.811  12.951 -0.2311  0.0066 -0.1957
13396TIP3   OH261602   4.179   4.340  16.217 -0.5742 -0.2069 -0.6221
13396TIP3    H161603   4.243   4.278  16.182 -0.0146 -0.3187  0.5867
13396TIP3    H261604   4.136   4.376  16.139 -0.0956 -1.2466 -1.3760
13397TIP3   OH261605   4.503   1.726   4.263  0.0668 -0.8646  0.0955
13397TIP3    H161606   4.546   1.748   4.345  1.2744  1.2391 -1.0484
13397TIP3    H261607   4.427   1.785   4.259 -1.8975 -3.2349  1.2077
13398TIP3   OH261608   0.080   2.108  13.129 -0.5144 -0.2761  0.3915
13398TIP3    H161609   0.115   2.058  13.055  0.9064  1.9298 -0.4934
13398TIP3    H261610   0.007   2.056  13.161 -1.6589 -0.9145 -3.0695
13399TIP3   OH261611   4.823   4.925  11.851 -0.4624  0.3844  0.6658
13399TIP3    H161612   4.773   4.883  11.921  1.5030  0.0245  1.8776
13399TIP3    H261613   4.913   4.898  11.866  0.1348  1.0791 -1.4516
13400TIP3   OH261614   4.056   2.274   2.540 -0.4019 -0.9057  0.4639
13400TIP3    H161615   4.044   2.278   2.446 -1.2300  1.1169  0.6265
13400TIP3    H261616   4.149   2.252   2.552  0.0126  0.0796 -0.8171
13401TIP3   OH261617   5.766   4.299   2.637 -0.2000  0.0877  0.4300
13401TIP3    H161618   5.737   4.341   2.718 -2.1161  0.6294 -0.5194
13401TIP3    H261619   5.733   4.209   2.644 -0.0397  0.0262  0.4023
13402TIP3   OH261620   2.051   6.779   0.835  0.1238 -0.1295  0.2059
13402TIP3    H161621   2.098   6.706   0.873  1.0036 -0.6565 -1.7976
13402TIP3    H261622   2.105   6.856   0.854  1.1675 -0.5551 -0.9739
13403TIP3   OH261623   1.581   5.787  11.997  0.7300 -0.2500 -0.0345
13403TIP3    H161624   1.598   5.693  11.993 -0.3332 -0.4980  0.6959
13403TIP3    H261625   1.638   5.819  12.067  1.4177 -0.2662 -0.5827
13404TIP3   OH261626   2.061   3.449   4.519 -0.1548 -0.2204  0.0501
13404TIP3    H161627   1.995   3.518   4.525 -0.2509 -0.2478 -0.6800
13404TIP3    H261628   2.050   3.412   4.431  0.4489 -0.6074  0.1320
13405TIP3   OH261629   1.208   4.026   4.112  0.2259  0.0731 -0.5779
13405TIP3    H161630   1.205   4.025   4.016 -1.2913 -0.7352 -0.5363
13405TIP3    H261631   1.288   3.978   4.133  0.5439  0.2081 -1.4415
13406TIP3   OH261632   5.867   0.303  13.830  0.2302  0.0925  0.4129
13406TIP3    H161633   5.786   0.327  13.876 -0.0743  0.5706 -0.3636
13406TIP3    H261634   5.891   0.382  13.782  1.2818  0.0125  0.8049
13407TIP3   OH261635   3.569   3.982  15.309 -0.3505 -0.1496  0.2834
13407TIP3    H161636   3.590   3.889  15.313 -0.3484 -0.0774  2.3177
13407TIP3    H261637   3.609   4.012  15.227  1.1703 -1.5571  0.4887
13408TIP3   OH261638   5.447   3.788   5.116 -0.3069 -0.3115  0.3052
13408TIP3    H161639   5.527   3.789   5.063 -0.8086 -1.3856 -0.4996
13408TIP3    H261640   5.390   3.852   5.073 -0.6203 -1.0010 -0.3284
13409TIP3   OH261641   6.166   4.583   1.801 -0.0599  0.4816 -0.5906
13409TIP3    H161642   6.105   4.566   1.873  2.0724 -0.4305  1.0290
13409TIP3    H261643   6.178   4.498   1.759  0.2869  0.6195 -0.7716
13410TIP3   OH261644   6.754   2.619  12.545  0.3267  0.3114 -0.0714
13410TIP3    H161645   6.689   2.559  12.508  0.5110  0.2006 -0.2170
13410TIP3    H261646   6.827   2.616  12.483  0.2797  0.7966 -0.1540
13411TIP3   OH261647   3.908   1.924   3.919  0.5958 -0.4261  0.5685
13411TIP3    H161648   4.000   1.950   3.921  0.6778 -0.6651 -0.0904
13411TIP3    H261649   3.872   1.958   4.001  1.3906 -0.7967  1.0773
13412TIP3   OH261650   0.952   1.270  12.243  0.9749  0.2515 -0.2801
13412TIP3    H161651   0.956   1.184  12.283 -0.0792  0.1156 -0.4484
13412TIP3    H261652   1.006   1.326  12.299  0.9948 -0.3385  0.2877
13413TIP3   OH261653   2.423   2.806  16.208  0.1017 -0.7033 -0.6982
13413TIP3    H161654   2.407   2.713  16.217  1.4179 -0.6793  2.5858
13413TIP3    H261655   2.401   2.843  16.293  1.0918  1.7539 -1.4443
13414TIP3   OH261656   4.212   4.299  11.743 -0.7186 -0.0223 -0.0851
13414TIP3    H161657   4.195   4.387  11.709  0.7097  0.5589  0.6775
13414TIP3    H261658   4.267   4.257  11.677  1.6591  0.9430  1.2331
13415TIP3   OH261659   0.807   1.316  12.987  0.0971 -0.1796  0.5870
13415TIP3    H161660   0.713   1.314  12.970  0.0816  0.3923  0.5857
13415TIP3    H261661   0.846   1.350  12.906  0.1590  1.0535  1.1134
13416TIP3   OH261662   5.433   5.416  14.004 -0.3996  0.4190  0.0980
13416TIP3    H161663   5.361   5.387  14.060  0.2110 -0.4664  0.4362
13416TIP3    H261664   5.409   5.385  13.916  1.0220 -2.6386  0.7163
13417TIP3   OH261665   3.859   5.384  11.811  0.0428  0.0373 -0.3328
13417TIP3    H161666   3.788   5.421  11.862  0.8532  2.0985 -0.6651
13417TIP3    H261667   3.816   5.333  11.742 -1.1539  2.1287 -1.1673
13418TIP3   OH261668   4.397   5.139  15.467 -0.3952 -0.1297 -0.5077
13418TIP3    H161669   4.431   5.136  15.556  2.3663  0.1615 -1.4992
13418TIP3    H261670   4.448   5.208  15.424 -2.6078  0.6538 -1.9567
13419TIP3   OH261671   2.741   5.541   5.843 -0.4396  0.4296 -0.0060
13419TIP3    H161672   2.732   5.608   5.775  0.1358  0.7823  0.2630
13419TIP3    H261673   2.654   5.535   5.882 -0.4043  1.2795  0.2103
13420TIP3   OH261674   5.313   5.795   5.014  0.0172  0.3683 -0.4359
13420TIP3    H161675   5.299   5.885   4.988 -1.1200  1.0219  2.2379
13420TIP3    H261676   5.248   5.744   4.966 -0.5886  1.2369 -0.5342
13421TIP3   OH261677   1.706   6.538   4.216 -0.5626  0.5846 -0.0869
13421TIP3    H161678   1.753   6.462   4.251 -0.7075  0.2540 -0.5966
13421TIP3    H261679   1.667   6.506   4.134  0.2104  1.4839 -0.8252
13422TIP3   OH261680   1.057   2.284   3.634 -0.7781  0.4706 -0.3894
13422TIP3    H161681   0.972   2.249   3.661 -0.6167  1.9815  2.1358
13422TIP3    H261682   1.044   2.378   3.626  0.4320  0.6072 -0.9824
13423TIP3   OH261683   2.610   6.336   2.699 -1.0198 -0.2744  0.0905
13423TIP3    H161684   2.592   6.252   2.740 -0.0056 -1.0618 -1.0577
13423TIP3    H261685   2.541   6.345   2.633 -1.8018  0.3336  0.9754
13424TIP3   OH261686   3.896   4.253   5.728  0.5290 -0.3846 -0.7618
13424TIP3    H161687   3.865   4.191   5.662 -1.1218 -1.1421  0.6776
13424TIP3    H261688   3.848   4.333   5.709 -0.8065 -0.9371  0.1767
13425TIP3   OH261689   2.427   5.588   1.799  0.2125 -0.3569  0.0060
13425TIP3    H161690   2.380   5.516   1.842 -0.0514 -0.9107 -1.1957
13425TIP3    H261691   2.512   5.551   1.777  0.7814  0.2815  1.0819
13426TIP3   OH261692   2.979   0.512  11.444 -0.4530 -0.5714  0.3841
13426TIP3    H161693   2.954   0.444  11.507 -0.1930  0.5047  1.6662
13426TIP3    H261694   2.901   0.566  11.435 -0.1158 -0.0375  0.6763
13427TIP3   OH261695   5.488   2.382  10.786  0.1341  0.1917 -0.7632
13427TIP3    H161696   5.572   2.419  10.759  0.4829 -0.8594 -1.1495
13427TIP3    H261697   5.509   2.293  10.814 -0.5971  0.4810  0.7339
13428TIP3   OH261698   1.105   2.400  16.436  0.8109  0.2885  0.2760
13428TIP3    H161699   1.061   2.325  16.397  1.8758 -0.4032  0.3553
13428TIP3    H261700   1.189   2.364  16.467  0.2025  0.9032  2.7380
13429TIP3   OH261701   1.032   1.906  16.366  0.2322  0.5374 -0.4369
13429TIP3    H161702   0.966   1.840  16.387  0.2413  0.6644  0.0039
13429TIP3    H261703   1.114   1.856  16.360  0.3146  0.5660  0.3470
13430TIP3   OH261704   4.569   6.198   1.277  0.0644  0.6634 -0.0442
13430TIP3    H161705   4.539   6.109   1.300 -0.1747  0.6483 -0.3995
13430TIP3    H261706   4.653   6.184   1.233  0.1751  0.6355  0.1793
13431TIP3   OH261707   1.124   2.686  16.332 -0.0014  0.1025 -0.0909
13431TIP3    H161708   1.118   2.594  16.359 -0.2942 -0.2902 -1.4637
13431TIP3    H261709   1.184   2.685  16.257 -0.9528  0.8495 -0.8860
13432TIP3   OH261710   3.319   5.724  13.631  0.2914 -0.2566 -0.1251
13432TIP3    H161711   3.327   5.653  13.567 -1.6875  0.7102 -1.5179
13432TIP3    H261712   3.247   5.778  13.597  1.0506  1.8103  1.4835
13433TIP3   OH261713   2.030   6.015  13.545  0.1067 -0.3862  0.1968
13433TIP3    H161714   1.980   6.056  13.475  1.2214  1.1721  0.2760
13433TIP3    H261715   2.118   6.052  13.536  0.8518 -1.8939  1.0169
13434TIP3   OH261716   1.616   6.189   5.444 -0.8953  0.0949  0.4348
13434TIP3    H161717   1.697   6.202   5.493 -0.2552 -2.2094  0.0407
13434TIP3    H261718   1.644   6.166   5.356 -2.0194  1.5318 -0.3269
13435TIP3   OH261719   1.387   2.406   1.182  0.1514 -0.4646  0.2498
13435TIP3    H161720   1.372   2.499   1.166  0.8791  0.2197  3.1630
13435TIP3    H261721   1.305   2.363   1.155 -0.9712  1.2837  0.8112
13436TIP3   OH261722   6.520   5.057   2.967 -0.1090  0.7069 -0.0368
13436TIP3    H161723   6.434   5.074   2.931 -0.1751 -1.9697 -1.2447
13436TIP3    H261724   6.579   5.116   2.919 -0.8991  0.7506 -0.9429
13437TIP3   OH261725   0.037   3.148  12.207  0.0074 -0.0517  0.1555
13437TIP3    H161726   0.056   3.065  12.252 -0.5028  0.8169  2.0263
13437TIP3    H261727  -0.058   3.150  12.201  0.0715 -0.1217 -0.9142
13438TIP3   OH261728   4.982   0.481   0.243 -0.1922 -0.1083  0.4128
13438TIP3    H161729   5.072   0.499   0.269 -0.3624 -1.4433  1.9416
13438TIP3    H261730   4.958   0.557   0.189  0.9025  1.6112  2.2662
13439TIP3   OH261731   3.235   0.972   5.214  0.0833 -0.4095  0.5333
13439TIP3    H161732   3.303   0.959   5.148 -0.3084 -1.0107  0.2381
13439TIP3    H261733   3.279   1.017   5.286  0.6181 -0.1529  0.0431
13440TIP3   OH261734   4.198   4.314   4.433  0.6749 -0.7960  0.6481
13440TIP3    H161735   4.293   4.314   4.442  0.6344  1.3979  1.4435
13440TIP3    H261736   4.173   4.222   4.439  2.7363 -1.3906  0.4884
13441TIP3   OH261737   2.885   6.689  12.687  0.2738  0.4386 -0.7182
13441TIP3    H161738   2.930   6.634  12.751  0.6308  1.6464  0.0793
13441TIP3    H261739   2.915   6.656  12.602  1.5833  0.3089 -0.2198
13442TIP3   OH261740   4.312   5.902   6.799  0.2514  0.2348  0.0993
13442TIP3    H161741   4.333   5.888   6.707 -0.3903 -0.5385  0.0608
13442TIP3    H261742   4.225   5.941   6.799  0.1490  0.0138  0.3823
13443TIP3   OH261743   6.500   4.859  11.640 -0.3792  0.1468 -0.3583
13443TIP3    H161744   6.410   4.841  11.614  0.4056 -4.3449 -0.2439
13443TIP3    H261745   6.501   4.845  11.735  0.7803 -1.3383 -0.5858
13444TIP3   OH261746   6.333   5.127   5.402 -0.2698 -0.7491  0.5322
13444TIP3    H161747   6.393   5.054   5.417  0.3088 -0.3059  0.4029
13444TIP3    H261748   6.372   5.200   5.451 -0.8549 -0.5313  0.6794
13445TIP3   OH261749   4.810   0.502  16.418 -0.6137 -0.0903 -0.3791
13445TIP3    H161750   4.865   0.494  16.496  2.0184  0.1610 -2.1375
13445TIP3    H261751   4.761   0.583  16.431  2.2505  1.7199 -0.3907
13446TIP3   OH261752   6.348   3.793   6.182  0.4961  0.0946  0.0289
13446TIP3    H161753   6.261   3.755   6.172  1.1899 -1.7310  0.7183
13446TIP3    H261754   6.351   3.823   6.273  0.0778  1.5159 -0.4112
13447TIP3   OH261755   0.592   5.986   4.631 -0.1381 -0.3208  0.0620
13447TIP3    H161756   0.661   6.033   4.677  0.2262 -0.4034 -0.3968
13447TIP3    H261757   0.531   5.960   4.700  1.0657 -1.6068  0.6584
13448TIP3   OH261758   6.713   2.510   4.552 -1.0202  0.4455  0.2722
13448TIP3    H161759   6.732   2.595   4.590 -2.0666  0.2893  1.1652
13448TIP3    H261760   6.622   2.517   4.523 -1.5660 -0.8386  1.6406
13449TIP3   OH261761   1.684   2.672  11.556 -0.3875 -0.2167  0.0959
13449TIP3    H161762   1.654   2.709  11.473  1.6652  3.3980  0.8601
13449TIP3    H261763   1.754   2.612  11.531 -0.1276  0.4645 -0.8506
13450TIP3   OH261764   4.760   5.325  11.357 -0.1821  0.0635 -0.3787
13450TIP3    H161765   4.755   5.407  11.308  1.4802  0.8441  0.6917
13450TIP3    H261766   4.784   5.260  11.292 -2.3006  0.2485 -1.3897
13451TIP3   OH261767   6.309   4.758  14.414  0.2193 -0.6831 -0.1461
13451TIP3    H161768   6.384   4.817  14.417  0.6805 -1.1968 -1.2948
13451TIP3    H261769   6.264   4.781  14.332 -0.2514 -1.1297 -0.0181
13452TIP3   OH261770   0.132   6.082   1.708 -0.0382  0.7728 -0.9613
13452TIP3    H161771   0.096   6.032   1.634  0.5502  1.0138 -1.4095
13452TIP3    H261772   0.227   6.079   1.695 -0.0103  2.1485 -1.0753
13453TIP3   OH261773   4.521   3.169   4.959 -0.2727  0.0786 -0.1429
13453TIP3    H161774   4.454   3.152   5.026  0.0888 -0.2095  0.1450
13453TIP3    H261775   4.488   3.125   4.881  0.7608 -2.1580  0.6524
13454TIP3   OH261776   5.831   1.564   1.377  0.4028 -0.4934  0.3962
13454TIP3    H161777   5.768   1.531   1.441  0.8079 -3.2264 -0.5438
13454TIP3    H261778   5.917   1.539   1.413  0.9407  2.0685  1.0364
13455TIP3   OH261779   1.553   6.708  14.825 -1.0126  0.7194 -0.2593
13455TIP3    H161780   1.512   6.684  14.908  1.4740  0.0985  0.8526
13455TIP3    H261781   1.490   6.766  14.783 -2.7266  0.2916  1.6310
13456TIP3   OH261782   5.454   5.403  15.766 -0.1221  0.8558  0.3234
13456TIP3    H161783   5.478   5.486  15.724  0.8211  1.5578  2.1732
13456TIP3    H261784   5.536   5.353  15.767 -0.3312  0.5234  0.6070
13457TIP3   OH261785   2.135   4.141  12.580  0.5012  0.2221 -0.2104
13457TIP3    H161786   2.215   4.143  12.528  0.1839 -0.9983 -0.7695
13457TIP3    H261787   2.115   4.048  12.589 -2.1255  0.5500 -2.1029
13458TIP3   OH261788   6.529   4.411   4.017  0.5311 -0.2336  0.1826
13458TIP3    H161789   6.562   4.331   4.059  1.5303 -1.1912 -2.3505
13458TIP3    H261790   6.595   4.477   4.037  0.6697 -0.5146  0.6723
13459TIP3   OH261791   0.227   4.784   3.227 -0.4570 -0.5756 -0.1511
13459TIP3    H161792   0.266   4.859   3.273  0.1369 -1.0943  0.1924
13459TIP3    H261793   0.136   4.783   3.258 -0.2124 -0.5819  0.5958
13460TIP3   OH261794   0.424   1.331  11.739  0.3535 -0.2652  0.1524
13460TIP3    H161795   0.445   1.238  11.752 -1.5857 -1.0465 -1.8604
13460TIP3    H261796   0.491   1.362  11.678  0.5715 -0.5545  0.2419
13461TIP3   OH261797   5.838   2.415  14.162  0.4168  0.3060  0.6188
13461TIP3    H161798   5.846   2.508  14.141 -0.4141  0.1654 -0.3439
13461TIP3    H261799   5.835   2.371  14.077  0.2191 -0.5533  1.0629
13462TIP3   OH261800   1.805   1.665   4.408 -0.2239  0.3506  0.1972
13462TIP3    H161801   1.714   1.638   4.417 -0.1534  0.3209  0.8706
13462TIP3    H261802   1.805   1.758   4.433 -0.5281  1.1171 -2.4559
13463TIP3   OH261803   3.621   1.365  11.704  0.4246 -0.0631 -0.1769
13463TIP3    H161804   3.647   1.280  11.667  1.1593 -1.1757  2.8169
13463TIP3    H261805   3.553   1.343  11.768  0.0077  1.7270  0.0079
13464TIP3   OH261806   2.131   5.808  11.611 -0.1136  0.3649 -0.6074
13464TIP3    H161807   2.134   5.881  11.673  2.5432 -1.1975  1.2074
13464TIP3    H261808   2.038   5.783  11.608 -0.2245 -0.1540  3.5632
13465TIP3   OH261809   1.187   3.883   6.380 -0.0352  0.0899  0.3899
13465TIP3    H161810   1.250   3.955   6.367 -0.4571  0.3570 -0.1799
13465TIP3    H261811   1.240   3.812   6.415  0.1644  1.1163  2.2589
13466TIP3   OH261812   4.932   1.126   4.993  0.5543  0.0897  0.3786
13466TIP3    H161813   4.976   1.098   4.912  2.1237  0.2921  1.1445
13466TIP3    H261814   5.003   1.138   5.056 -0.5040  1.5768  1.3141
13467TIP3   OH261815   4.380   0.157  15.368 -0.3990  0.0114  0.3316
13467TIP3    H161816   4.321   0.113  15.306  0.3923 -1.9259  0.9271
13467TIP3    H261817   4.369   0.109  15.450  0.8057  0.6583  0.8835
13468TIP3   OH261818   1.399   0.473   6.796 -0.3952  1.0512 -0.9230
13468TIP3    H161819   1.479   0.430   6.828 -0.9914  0.6713  0.0771
13468TIP3    H261820   1.371   0.418   6.723 -0.4639  0.4322 -0.4401
13469TIP3   OH261821   6.145   3.196   2.711  0.6939 -0.0600 -0.0095
13469TIP3    H161822   6.074   3.255   2.739 -1.2490 -1.9296 -0.8631
13469TIP3    H261823   6.197   3.183   2.790 -0.5835  0.4246  0.9336
13470TIP3   OH261824   0.329   0.019   4.377 -0.1512 -0.4864  0.4192
13470TIP3    H161825   0.377   0.064   4.307 -1.0391 -0.9934 -0.5416
13470TIP3    H261826   0.387   0.023   4.453  0.1306  1.5497  0.1180
13471TIP3   OH261827   3.885   3.967   5.300  0.3507  0.0314 -0.2421
13471TIP3    H161828   3.911   3.903   5.367 -1.1219  0.4173  0.7392
13471TIP3    H261829   3.920   3.933   5.218  2.3052 -0.3911  0.7443
13472TIP3   OH261830   0.330   2.070   6.281 -0.3805  0.2551  0.1931
13472TIP3    H161831   0.368   2.107   6.361 -2.5771  1.6949  0.6343
13472TIP3    H261832   0.403   2.029   6.236  0.8842 -0.8193  3.0749
13473TIP3   OH261833   4.866   3.684  15.587 -0.3289  0.5469 -0.6439
13473TIP3    H161834   4.882   3.598  15.624  0.1629  0.2812 -1.4692
13473TIP3    H261835   4.841   3.667  15.496 -1.4978  1.1923 -0.4566
13474TIP3   OH261836   1.845   0.297   5.212  0.1960  0.0369  0.4243
13474TIP3    H161837   1.911   0.351   5.168 -0.6425  0.8371  0.1418
13474TIP3    H261838   1.761   0.327   5.176 -0.3352 -0.8794  0.8808
13475TIP3   OH261839   0.541   2.983  17.033  0.3585 -0.1788 -0.1948
13475TIP3    H161840   0.625   3.027  17.042 -0.3415  1.1111  0.0810
13475TIP3    H261841   0.536   2.960  16.940  0.9771 -0.2126 -0.2238
13476TIP3   OH261842   5.788   3.821   5.544  0.1130 -0.0056 -0.3510
13476TIP3    H161843   5.797   3.915   5.560 -0.2817 -0.1013  0.4874
13476TIP3    H261844   5.757   3.815   5.454  0.2409  0.6589 -0.4465
13477TIP3   OH261845   3.440   6.199   4.932  0.1609 -0.1133 -0.0977
13477TIP3    H161846   3.451   6.228   5.023  1.9000 -1.2085  0.0596
13477TIP3    H261847   3.352   6.162   4.930  0.3492 -0.6780  1.3184
13478TIP3   OH261848   2.991   6.364   4.576  0.4389 -0.2457 -0.2253
13478TIP3    H161849   2.990   6.328   4.665  0.0962  1.6342  0.5424
13478TIP3    H261850   3.004   6.458   4.588  0.5059  0.0134 -2.1786
13479TIP3   OH261851   2.442   5.797   5.438 -0.2299 -0.0835  1.2848
13479TIP3    H161852   2.474   5.826   5.353 -0.8610  1.0140  1.4150
13479TIP3    H261853   2.387   5.721   5.417  0.2994 -0.3401  0.8020
13480TIP3   OH261854   1.082   1.413   2.440 -0.1364 -0.0107  0.3812
13480TIP3    H161855   1.015   1.399   2.507 -0.6052  1.3726  0.2194
13480TIP3    H261856   1.165   1.402   2.487 -0.4595  1.2642  1.2791
13481TIP3   OH261857   3.532   3.257   3.218 -0.7624 -0.1681 -0.8377
13481TIP3    H161858   3.604   3.260   3.281 -1.2078  0.0971 -0.3457
13481TIP3    H261859   3.573   3.224   3.138 -0.0664  0.0880 -0.5940
13482TIP3   OH261860   5.107   2.012   1.944  0.3028  0.0817  0.6993
13482TIP3    H161861   5.109   2.052   2.031  0.4069  0.7552  0.3920
13482TIP3    H261862   5.015   2.015   1.917  0.2404 -0.3052  0.8678
13483TIP3   OH261863   4.148   0.875  13.003 -0.7741 -0.7618  0.7402
13483TIP3    H161864   4.098   0.843  13.079 -2.4154 -1.0981 -0.4456
13483TIP3    H261865   4.094   0.851  12.928 -0.4009  1.7881 -0.3984
13484TIP3   OH261866   6.315   4.396   3.847 -0.2671 -0.5394  0.4750
13484TIP3    H161867   6.270   4.312   3.856 -0.6193 -0.3657  0.3424
13484TIP3    H261868   6.392   4.388   3.904 -1.2539 -0.3024  1.8611
13485TIP3   OH261869   2.685   0.085   0.955  0.1750 -0.1870  0.5777
13485TIP3    H161870   2.637   0.149   1.007  0.5361 -0.4848  1.2790
13485TIP3    H261871   2.674   0.114   0.864  1.1013  1.3787  0.9526
13486TIP3   OH261872   0.129   6.763  12.490  0.2697  0.6582  0.8748
13486TIP3    H161873   0.160   6.758  12.399  1.3888 -0.3661  1.3125
13486TIP3    H261874   0.037   6.736  12.485  0.5974 -0.3585  0.1918
13487TIP3   OH261875   6.301   6.646   0.623 -0.6336 -0.2481 -0.2755
13487TIP3    H161876   6.236   6.595   0.672 -0.9119  1.4536  1.1865
13487TIP3    H261877   6.277   6.737   0.639  0.4886  0.3756 -1.9806
13488TIP3   OH261878   3.307   0.671   3.849  0.3664  0.4808 -0.7335
13488TIP3    H161879   3.245   0.623   3.795  0.3961  0.0491 -0.3838
13488TIP3    H261880   3.311   0.621   3.930 -0.4448  1.6757  0.0585
13489TIP3   OH261881   2.644   2.345   3.050  0.3670 -0.0507  0.0970
13489TIP3    H161882   2.586   2.402   3.100  0.7862 -0.9141  1.5964
13489TIP3    H261883   2.671   2.398   2.975 -0.0582  1.3622  0.9208
13490TIP3   OH261884   3.525   2.802   3.038  0.3346  0.2002 -0.2739
13490TIP3    H161885   3.472   2.820   2.961 -0.8751 -1.5032  0.1277
13490TIP3    H261886   3.615   2.815   3.009 -0.1005 -0.4733 -1.9884
13491TIP3   OH261887   3.281   1.061   0.555  0.4946  0.3458  0.2201
13491TIP3    H161888   3.291   0.977   0.511  1.6607  1.7998 -2.3687
13491TIP3    H261889   3.194   1.057   0.595 -0.2275 -1.3624 -1.4702
13492TIP3   OH261890   5.555   1.663   0.874 -0.7269 -0.9104 -0.3824
13492TIP3    H161891   5.628   1.647   0.933  1.2649 -0.2516 -2.6016
13492TIP3    H261892   5.533   1.577   0.838 -0.7371 -1.0371 -0.0750
13493TIP3   OH261893   1.722   3.885  15.978 -0.0359 -0.0139 -0.1544
13493TIP3    H161894   1.818   3.890  15.976 -0.1598  3.0652 -0.4390
13493TIP3    H261895   1.703   3.844  16.062  1.5178  0.3360  0.3972
13494TIP3   OH261896   2.239   0.961   1.321  0.4537  0.4897 -0.4034
13494TIP3    H161897   2.260   0.869   1.307  1.8641  0.9652 -1.6114
13494TIP3    H261898   2.264   0.978   1.412  0.3368 -0.2774 -0.2250
13495TIP3   OH261899   4.583   0.520   4.679 -0.4823 -0.2199  0.1656
13495TIP3    H161900   4.672   0.540   4.650  0.7318 -1.5226  2.8709
13495TIP3    H261901   4.534   0.600   4.662  1.3696  0.7779 -0.6201
13496TIP3   OH261902   2.983   0.134   0.557  0.3438  0.3215  0.5694
13496TIP3    H161903   3.055   0.101   0.611  0.1134  0.9210  1.2464
13496TIP3    H261904   2.904   0.106   0.603  0.1422  1.5375  0.9846
13497TIP3   OH261905   2.727   2.043   4.016 -0.0298 -0.2947 -0.1808
13497TIP3    H161906   2.661   1.992   3.968 -1.1088  2.2514 -1.5337
13497TIP3    H261907   2.807   2.032   3.965  0.1298 -1.8674  0.3981
13498TIP3   OH261908   0.412   3.687   1.518  0.6418 -0.2348  0.4132
13498TIP3    H161909   0.461   3.729   1.448  0.5284 -0.0151  0.4658
13498TIP3    H261910   0.346   3.634   1.473  0.6732 -0.2218  0.3525
13499TIP3   OH261911   0.586   4.750   4.105 -0.0537 -0.1671  0.0482
13499TIP3    H161912   0.533   4.814   4.151 -0.2538  0.1516 -0.6160
13499TIP3    H261913   0.528   4.715   4.038  0.2810 -0.5112 -0.0635
13500TIP3   OH261914   0.964   2.901   4.681  0.0664  0.4369 -0.6347
13500TIP3    H161915   0.939   2.932   4.768  0.2204  1.3018 -0.8995
13500TIP3    H261916   0.885   2.912   4.628 -0.6154 -1.8362 -0.1669
13501TIP3   OH261917   2.667   2.244   4.761  0.0341  0.3786  0.2914
13501TIP3    H161918   2.656   2.266   4.668  0.6249  0.2477  0.1903
13501TIP3    H261919   2.645   2.325   4.807 -0.0595  0.5052  0.0253
13502TIP3   OH261920   2.077   4.375   1.654 -0.4569  0.1069 -0.7323
13502TIP3    H161921   2.011   4.435   1.688 -0.1693 -0.0987  0.2051
13502TIP3    H261922   2.159   4.424   1.657 -0.3519 -0.0694 -0.6674
13503TIP3   OH261923   1.921   4.711  17.164  0.2583 -0.2111 -0.5588
13503TIP3    H161924   1.932   4.646  17.095  0.7553  0.4877 -1.1517
13503TIP3    H261925   1.873   4.783  17.123  1.3257  0.5861 -0.4336
13504TIP3   OH261926   3.847   4.881  14.002 -0.4987  0.0261  0.6378
13504TIP3    H161927   3.907   4.848  13.936  1.0239  0.4820  1.7737
13504TIP3    H261928   3.773   4.819  14.001  1.3150 -2.2148  1.2290
13505TIP3   OH261929   2.665   0.523   5.617 -0.2394  0.1217 -0.1180
13505TIP3    H161930   2.743   0.519   5.673  0.2417  0.0302 -0.7937
13505TIP3    H261931   2.680   0.597   5.559 -0.8273  0.3327 -0.0098
13506TIP3   OH261932   2.063   0.707  15.053 -0.1678 -0.6029 -0.1125
13506TIP3    H161933   1.977   0.727  15.090  1.1523  2.7128  1.3814
13506TIP3    H261934   2.115   0.676  15.127  0.4680 -0.7332 -0.6053
13507TIP3   OH261935   0.832   1.958   2.583 -0.5417 -0.3506  0.3863
13507TIP3    H161936   0.854   1.881   2.636  1.1044 -0.6684 -0.7264
13507TIP3    H261937   0.831   1.926   2.493 -1.0213  0.6878  0.0130
13508TIP3   OH261938   5.146   5.779   5.389 -0.0021 -0.0801 -0.4888
13508TIP3    H161939   5.198   5.817   5.460 -0.0189  0.1573 -0.6052
13508TIP3    H261940   5.181   5.690   5.379  0.1829 -0.0216 -0.3671
13509TIP3   OH261941   3.103   6.065  15.010  0.4506  0.8384  0.6839
13509TIP3    H161942   3.151   6.032  14.934  0.4192 -0.5548  1.2442
13509TIP3    H261943   3.105   6.160  15.001  0.2227  0.6782 -1.1869
13510TIP3   OH261944   6.459   1.441   2.202  0.3355  0.1840  0.3093
13510TIP3    H161945   6.469   1.448   2.107 -0.1066 -1.2232  0.1503
13510TIP3    H261946   6.408   1.518   2.226  1.9543  1.4948 -0.3470
13511TIP3   OH261947   1.588   0.882   3.223  0.2709 -0.3872 -0.5570
13511TIP3    H161948   1.548   0.930   3.151  1.2240 -1.5191 -1.8675
13511TIP3    H261949   1.541   0.911   3.301  0.6961  2.5291 -1.3255
13512TIP3   OH261950   1.044   0.369  14.297  0.6872  0.3532 -0.2322
13512TIP3    H161951   1.011   0.394  14.210 -0.9675  1.3839  0.6618
13512TIP3    H261952   0.966   0.341  14.344  1.7777 -1.5206  0.5016
13513TIP3   OH261953   6.081   2.146  16.362 -0.2067 -0.0233 -0.3562
13513TIP3    H161954   6.080   2.126  16.456 -0.7177  2.4673  0.1865
13513TIP3    H261955   6.130   2.073  16.323 -0.8165 -1.5857  1.7100
13514TIP3   OH261956   1.760   4.131  11.492 -0.4829  0.0857 -0.2282
13514TIP3    H161957   1.812   4.208  11.468  0.4948 -0.3068  0.6017
13514TIP3    H261958   1.676   4.144  11.448 -0.3432  1.6491 -0.0482
13515TIP3   OH261959   5.291   1.116  14.813 -0.2680 -0.2382  0.3370
13515TIP3    H161960   5.240   1.059  14.756 -0.7649  1.0300 -0.5008
13515TIP3    H261961   5.378   1.119  14.773 -0.2408 -0.3782  0.3829
13516TIP3   OH261962   5.773   1.716   4.638  0.2865 -0.3020 -0.3630
13516TIP3    H161963   5.856   1.759   4.621  1.8338 -1.9520  2.5738
13516TIP3    H261964   5.738   1.759   4.716 -1.9621  0.7591 -1.8747
13517TIP3   OH261965   5.192   5.641  14.497 -0.2459  0.2236  0.1356
13517TIP3    H161966   5.099   5.635  14.519 -0.7628  0.3653 -1.9336
13517TIP3    H261967   5.196   5.620  14.404  1.9469 -1.0194  0.4718
13518TIP3   OH261968   4.024   6.350   5.078  0.0618 -0.2864 -0.2569
13518TIP3    H161969   4.072   6.268   5.091  1.2828  0.4071 -0.2490
13518TIP3    H261970   3.959   6.330   5.011  0.9732 -1.0204 -0.9363
13519TIP3   OH261971   3.976   2.332  16.308 -0.3048 -0.3441 -0.2304
13519TIP3    H161972   4.061   2.288  16.306  1.1006  2.2938 -1.2014
13519TIP3    H261973   3.928   2.295  16.235  0.5741 -0.7872 -0.5948
13520TIP3   OH261974   4.576   1.031   5.852  0.1756 -0.0386  0.2397
13520TIP3    H161975   4.578   0.957   5.913 -1.3933 -0.7019 -0.4854
13520TIP3    H261976   4.666   1.037   5.819  0.2200 -1.8926 -0.0108
13521TIP3   OH261977   1.756   4.771  16.916 -0.0635  0.2986  0.3108
13521TIP3    H161978   1.681   4.820  16.880  0.1047  0.2129 -0.1611
13521TIP3    H261979   1.801   4.737  16.839  0.6536  0.6251  0.5811
13522TIP3   OH261980   5.543   3.421   4.437 -0.6502  0.0273 -0.1301
13522TIP3    H161981   5.588   3.446   4.518  0.3473 -0.6151 -0.4709
13522TIP3    H261982   5.614   3.393   4.379 -1.5733 -1.9627 -0.3344
13523TIP3   OH261983   4.105   5.294  16.789 -0.1535 -0.2419  0.2563
13523TIP3    H161984   4.151   5.334  16.862 -0.6300 -0.3149  0.5946
13523TIP3    H261985   4.054   5.365  16.751  1.2172  0.1438 -0.9079
13524TIP3   OH261986   4.243   0.332  15.636 -0.4865 -0.2198  0.0011
13524TIP3    H161987   4.180   0.401  15.655  0.3294  1.1151 -2.0039
13524TIP3    H261988   4.321   0.378  15.604  0.0452 -2.0529 -1.4349
13525TIP3   OH261989   0.876   4.918  13.457 -0.4586  0.3718  0.3530
13525TIP3    H161990   0.810   4.962  13.403 -1.1001 -0.7025  0.2523
13525TIP3    H261991   0.923   4.990  13.500  0.2857  1.2568 -1.8710
13526TIP3   OH261992   0.151   3.656  14.143  0.2611  0.4902  0.3994
13526TIP3    H161993   0.215   3.703  14.196  1.4629 -2.2752  1.5197
13526TIP3    H261994   0.193   3.646  14.058 -0.3507  2.1214 -0.1181
13527TIP3   OH261995   0.837   3.496  16.149  0.4278 -0.2120  0.5210
13527TIP3    H161996   0.911   3.437  16.161 -0.0102 -0.9843 -0.5830
13527TIP3    H261997   0.783   3.455  16.081 -1.4686 -0.1129  1.9144
13528TIP3   OH261998   1.724   1.719   1.381 -0.8662 -0.1976 -0.3546
13528TIP3    H161999   1.657   1.769   1.337 -0.5242 -0.8324 -1.6187
13528TIP3    H262000   1.793   1.783   1.401 -0.9849  0.0684 -0.8049
13529TIP3   OH262001   1.961   5.586  16.929 -0.1777  0.0945  0.0371
13529TIP3    H162002   1.929   5.568  16.841  0.3646 -0.7289  0.0019
13529TIP3    H262003   2.019   5.662  16.918 -1.9469  1.4859  0.0750
13530TIP3   OH262004   3.071   4.487   3.453 -1.2972 -0.6043  0.2384
13530TIP3    H162005   3.141   4.524   3.398  0.4315 -0.1600  2.6664
13530TIP3    H262006   2.990   4.515   3.410  0.0077  1.1270 -1.1728
13531TIP3   OH262007   0.294   6.232   5.508 -0.7243 -0.0059 -0.0501
13531TIP3    H162008   0.333   6.299   5.563  0.0349  0.2699 -0.9117
13531TIP3    H262009   0.328   6.149   5.542 -1.5872  0.0426  0.9527
13532TIP3   OH262010   2.651   5.265   0.306 -0.4970 -0.3868 -0.1178
13532TIP3    H162011   2.646   5.316   0.386 -1.0539 -0.4669 -0.0979
13532TIP3    H262012   2.567   5.281   0.262  0.3744  0.8278 -1.3936
13533TIP3   OH262013   1.699   2.746  15.158 -0.2645  0.4879  0.1913
13533TIP3    H162014   1.625   2.789  15.202 -0.1167 -0.4076  1.3316
13533TIP3    H262015   1.683   2.762  15.065  0.5930  4.2999  0.6267
13534TIP3   OH262016   4.054   3.617  13.844  0.1608  0.1194  0.0126
13534TIP3    H162017   4.140   3.652  13.821  0.0669  0.4163  0.1103
13534TIP3    H262018   3.992   3.672  13.795 -0.0623  1.0165  1.2821
13535TIP3   OH262019   1.729   0.280  15.536 -0.2260  0.7454  0.0723
13535TIP3    H162020   1.764   0.247  15.453 -0.0773 -1.5550  1.0163
13535TIP3    H262021   1.791   0.348  15.563  0.7098  0.2425 -0.7947
13536TIP3   OH262022   3.098   0.971  15.555 -0.8866 -0.1091  0.2970
13536TIP3    H162023   3.171   1.032  15.567 -0.6465  0.1017 -1.8787
13536TIP3    H262024   3.140   0.886  15.542 -1.0556 -0.1396 -0.0554
13537TIP3   OH262025   0.065   0.163  13.655  0.3245  0.2119  0.0055
13537TIP3    H162026  -0.005   0.121  13.604  0.4686  0.6255 -0.5399
13537TIP3    H262027   0.134   0.182  13.591  0.6725  0.3818  0.4253
13538TIP3   OH262028   0.612   4.832   0.061 -0.3073  0.0682  0.4936
13538TIP3    H162029   0.572   4.764   0.007 -0.4914  1.4278 -1.1269
13538TIP3    H262030   0.625   4.790   0.146 -1.4218 -1.6452 -0.1440
13539TIP3   OH262031   4.800   3.587  14.278  0.4597  0.4524  0.8385
13539TIP3    H162032   4.869   3.522  14.267 -1.2202 -1.1129 -0.7424
13539TIP3    H262033   4.719   3.541  14.254 -1.0673  2.4215  2.0454
13540TIP3   OH262034   6.279   0.903   2.193  0.2760  0.1634 -0.0404
13540TIP3    H162035   6.245   0.985   2.229  3.5670  0.1908  3.3510
13540TIP3    H262036   6.216   0.836   2.220 -2.2926  1.4666 -2.6062
13541TIP3   OH262037   1.761   3.361   2.600 -0.0491  0.0383  0.2643
13541TIP3    H162038   1.832   3.413   2.561  1.0360  0.5342  2.8312
13541TIP3    H262039   1.797   3.272   2.606 -0.4434 -0.1738 -0.3729
13542TIP3   OH262040   5.443   5.350  11.067 -0.6843  0.1675  0.1483
13542TIP3    H162041   5.442   5.357  10.971  0.0926 -0.0529  0.1143
13542TIP3    H262042   5.367   5.297  11.088 -2.4444  2.5101 -0.1335
13543TIP3   OH262043   2.776   4.785   2.421 -0.9554  0.0248  0.5410
13543TIP3    H162044   2.831   4.719   2.463 -1.7120  0.7747  2.8020
13543TIP3    H262045   2.717   4.735   2.365 -1.2130 -1.1785  1.8631
13544TIP3   OH262046   4.751   0.916  12.436 -0.0602 -0.2635  0.3600
13544TIP3    H162047   4.720   0.970  12.363  0.4586 -0.5603 -0.0855
13544TIP3    H262048   4.685   0.927  12.504  0.7956  2.1254  0.8357
13545TIP3   OH262049   0.831   6.638   4.465 -0.2539 -0.0189 -0.1587
13545TIP3    H162050   0.802   6.685   4.543 -1.0687  0.9393 -1.0282
13545TIP3    H262051   0.783   6.555   4.467 -0.5733  0.1746  0.1433
13546TIP3   OH262052   3.957   6.295   3.943 -0.4450 -0.2219  0.2111
13546TIP3    H162053   3.901   6.363   3.979  0.7101 -0.6350  2.8744
13546TIP3    H262054   3.896   6.223   3.923 -1.3236  0.6444 -0.2869
13547TIP3   OH262055   6.084   2.390   4.682  0.2295 -0.5731 -0.1336
13547TIP3    H162056   6.056   2.302   4.657 -1.8769  0.1128 -0.3145
13547TIP3    H262057   6.033   2.411   4.760  1.1466  0.2678  0.2541
13548TIP3   OH262058   0.529   2.686  12.472 -0.8563  0.5129  0.1279
13548TIP3    H162059   0.547   2.712  12.563  1.4956 -0.7719  0.0636
13548TIP3    H262060   0.509   2.592  12.478  0.5791  0.1356 -0.8144
13549TIP3   OH262061   0.172   3.583   4.943 -0.2905 -0.3880 -0.5194
13549TIP3    H162062   0.078   3.599   4.939 -0.8475 -2.5232  2.1110
13549TIP3    H262063   0.197   3.606   5.033  1.4720 -0.8213 -0.8749
13550TIP3   OH262064   0.690   6.606  16.060 -0.0406 -0.3855 -0.0975
13550TIP3    H162065   0.599   6.599  16.028 -0.0469  1.1982 -0.4610
13550TIP3    H262066   0.682   6.604  16.155 -0.4293 -0.5321 -0.1320
13551TIP3   OH262067   3.652   2.518  13.784 -0.0042 -0.5410  0.2840
13551TIP3    H162068   3.591   2.583  13.818  0.6223  0.5065 -0.5560
13551TIP3    H262069   3.739   2.556  13.799  0.4119 -1.5501  0.5260
13552TIP3   OH262070   4.864   6.016  10.656 -0.1314  0.1313  0.3455
13552TIP3    H162071   4.866   6.040  10.563  0.6966  2.4023  0.9159
13552TIP3    H262072   4.785   6.057  10.690 -1.5428 -2.4305  0.2277
13553TIP3   OH262073   3.476   6.271   1.343  0.5609 -0.2791  0.3978
13553TIP3    H162074   3.528   6.255   1.422 -0.2059  1.3715  1.2558
13553TIP3    H262075   3.387   6.249   1.369  0.0812  1.6458  0.4600
13554TIP3   OH262076   6.600   3.296  13.725  0.0416  0.0119 -0.4287
13554TIP3    H162077   6.640   3.380  13.749  1.0154 -0.4859 -0.2977
13554TIP3    H262078   6.610   3.241  13.802  0.0801 -0.4748 -0.7778
13555TIP3   OH262079   1.133   4.663  13.375 -0.5054 -0.3205  0.0679
13555TIP3    H162080   1.116   4.588  13.318  0.9861 -0.6244 -0.0070
13555TIP3    H262081   1.055   4.718  13.366 -1.3942 -1.6066 -0.2731
13556TIP3   OH262082   2.003   5.696   5.311 -0.0727  0.2161 -0.0783
13556TIP3    H162083   1.934   5.634   5.336 -0.6820  1.0809  0.4264
13556TIP3    H262084   1.955   5.771   5.274  0.5238  1.2749  1.2387
13557TIP3   OH262085   4.522   2.815   2.522 -0.2413  0.5513  0.3777
13557TIP3    H162086   4.500   2.760   2.597  0.3884 -2.4850 -1.5765
13557TIP3    H262087   4.616   2.801   2.508 -0.9578 -1.4849 -2.8826
13558TIP3   OH262088   0.142   2.410   1.974  0.9528  0.2725 -0.7928
13558TIP3    H162089   0.194   2.477   1.929  0.2386  1.1295 -0.3637
13558TIP3    H262090   0.124   2.447   2.061 -0.3503 -0.0044 -0.9219
13559TIP3   OH262091   6.330   0.404  17.024  0.1890  0.0020 -0.2987
13559TIP3    H162092   6.297   0.315  17.008  0.9860 -0.2291 -0.6736
13559TIP3    H262093   6.326   0.413  17.119 -1.3293  0.1293 -0.3530
13560TIP3   OH262094   6.459   0.876  15.202  0.1660 -0.1727 -0.1909
13560TIP3    H162095   6.418   0.795  15.232  1.5467 -0.8346 -0.0198
13560TIP3    H262096   6.550   0.852  15.186 -0.0287  0.6812 -2.8191
13561TIP3   OH262097   5.798   2.928  10.489 -0.3940 -0.1040 -0.6040
13561TIP3    H162098   5.745   2.854  10.520  1.0654 -2.2860 -3.1468
13561TIP3    H262099   5.887   2.894  10.485  0.5691  2.3048 -0.3017
13562TIP3   OH262100   0.807   1.924  17.095  0.7662  0.1521 -0.2675
13562TIP3    H162101   0.790   1.846  17.041  0.5479 -0.0271  0.0618
13562TIP3    H262102   0.902   1.929  17.101  0.7594 -1.1464  1.2426
13563TIP3   OH262103   3.727   0.898   1.351 -0.6107  0.1036  0.0425
13563TIP3    H162104   3.802   0.914   1.293 -1.3193  1.5248 -0.4914
13563TIP3    H262105   3.721   0.803   1.356  0.4509 -0.0292 -0.9374
13564TIP3   OH262106   6.266   4.893  15.375  0.8960 -0.3586 -0.1388
13564TIP3    H162107   6.327   4.875  15.447  0.8972  1.2241  0.2674
13564TIP3    H262108   6.200   4.950  15.413 -0.9662 -2.2099 -0.5349
13565TIP3   OH262109   6.634   5.921  11.859 -0.2696  0.0106 -0.0354
13565TIP3    H162110   6.725   5.903  11.837 -0.2681 -0.3458  0.2662
13565TIP3    H262111   6.624   5.892  11.950 -0.4301  0.9496  0.2548
13566TIP3   OH262112   0.761   2.278   4.556 -0.5938  0.6567  0.2066
13566TIP3    H162113   0.700   2.214   4.593  0.8295  0.8445  2.9831
13566TIP3    H262114   0.727   2.363   4.585 -0.2402  0.9101 -0.1231
13567TIP3   OH262115   2.109   2.038   0.759  0.1738 -0.2211  0.4804
13567TIP3    H162116   2.196   2.069   0.785  0.1122  0.1265  0.2790
13567TIP3    H262117   2.117   1.943   0.756  1.1296 -0.0919 -1.6186
13568TIP3   OH262118   1.232   3.461   5.112  0.0529  0.3195 -0.1837
13568TIP3    H162119   1.292   3.386   5.113 -1.5023 -0.9658 -0.3662
13568TIP3    H262120   1.241   3.500   5.199  1.8607  0.7417 -0.5417
13569TIP3   OH262121   6.615   5.696  14.730  0.0552 -0.0065  0.0167
13569TIP3    H162122   6.612   5.752  14.653  0.7858 -0.6248 -0.4678
13569TIP3    H262123   6.525   5.664  14.740 -0.7835  2.6027  1.3303
13570TIP3   OH262124   3.263   0.285  12.817  1.2144 -0.3043  0.0597
13570TIP3    H162125   3.207   0.277  12.895  3.4729  0.3018  1.7869
13570TIP3    H262126   3.227   0.221  12.756 -2.5048  1.3402  0.4096
13571TIP3   OH262127   6.381   1.345   2.763  0.0103  0.3044 -0.1786
13571TIP3    H162128   6.399   1.376   2.674  1.9437 -1.0055 -0.2880
13571TIP3    H262129   6.460   1.296   2.787  0.1597  1.8990  2.8271
13572TIP3   OH262130   0.567   1.840  17.226 -0.7512 -0.5570  0.3416
13572TIP3    H162131   0.594   1.902  17.294 -0.4388 -2.1426  1.6961
13572TIP3    H262132   0.629   1.854  17.154  0.2776 -0.3852  1.2640
13573TIP3   OH262133   2.094   6.653   1.159 -0.4163  0.3691 -0.1112
13573TIP3    H162134   2.015   6.659   1.104 -0.5517 -0.8345 -0.0582
13573TIP3    H262135   2.071   6.589   1.227  0.3992  0.4602  0.2521
13574TIP3   OH262136   3.145   0.976   2.256 -0.0651  0.2213 -0.0377
13574TIP3    H162137   3.186   0.997   2.172 -0.4454  0.5480 -0.1472
13574TIP3    H262138   3.217   0.975   2.319 -0.0090  1.7305 -0.0620
13575TIP3   OH262139   4.060   5.138  12.776  0.7758 -0.0889 -0.4588
13575TIP3    H162140   3.983   5.184  12.809  1.7412  0.5887  0.8813
13575TIP3    H262141   4.027   5.051  12.751 -0.2079 -0.2081  1.1785
13576TIP3   OH262142   5.426   4.404   5.939  0.3135 -0.3918 -0.4410
13576TIP3    H162143   5.470   4.432   6.019  0.8650 -1.6925 -0.2736
13576TIP3    H262144   5.352   4.351   5.969 -1.0067  1.2302 -0.7395
13577TIP3   OH262145   4.682   5.564   4.609  0.0643  0.0683  0.1001
13577TIP3    H162146   4.663   5.499   4.543 -0.4135 -0.5129  0.8058
13577TIP3    H262147   4.716   5.514   4.683  1.1681  0.7683  0.0798
13578TIP3   OH262148   4.159   6.093  16.729 -0.2457 -0.4721  0.1906
13578TIP3    H162149   4.216   6.063  16.659  0.4528  1.4963 -0.1084
13578TIP3    H262150   4.075   6.050  16.711 -0.0385 -0.1176 -1.7445
13579TIP3   OH262151   0.472   4.851   1.973  0.7200 -0.3108  0.0531
13579TIP3    H162152   0.426   4.898   1.903  2.2723 -1.0655 -1.5022
13579TIP3    H262153   0.423   4.769   1.982 -1.4058  1.1097  2.1048
13580TIP3   OH262154   5.717   6.724   5.684 -0.3337 -0.8714 -0.4060
13580TIP3    H162155   5.643   6.761   5.732  0.1827 -0.8661  0.4145
13580TIP3    H262156   5.682   6.700   5.599 -0.8174  0.9869 -0.7618
13581TIP3   OH262157   1.639   6.440   3.976  0.0224 -0.7598 -0.4313
13581TIP3    H162158   1.550   6.408   3.986 -0.9036  1.7454 -0.1281
13581TIP3    H262159   1.652   6.446   3.882 -0.6393  0.1555 -0.4710
13582TIP3   OH262160   4.919   5.591  14.773  0.2650 -0.5151  0.0784
13582TIP3    H162161   4.904   5.684  14.789  0.1382 -0.6554  0.7538
13582TIP3    H262162   4.919   5.583  14.677  2.1238  0.4823 -0.0274
13583TIP3   OH262163   3.262   5.491   0.413 -0.3396 -0.3646 -0.4083
13583TIP3    H162164   3.326   5.523   0.476  0.3379 -1.6351 -0.4337
13583TIP3    H262165   3.211   5.568   0.389  0.4459  0.4380  0.4676
13584TIP3   OH262166   1.718   1.384  14.190 -0.2518  0.2455  0.4824
13584TIP3    H162167   1.710   1.301  14.236  3.2673 -0.1478  0.5539
13584TIP3    H262168   1.707   1.362  14.098 -3.4704  0.4294  0.7612
13585TIP3   OH262169   4.324   1.964   4.741 -0.4683  0.3595  0.2125
13585TIP3    H162170   4.309   1.917   4.824  0.0600 -0.7854 -0.3231
13585TIP3    H262171   4.407   2.010   4.754 -0.3970  0.1992  0.3295
13586TIP3   OH262172   1.288   1.383   0.975 -0.6276  0.0836  0.6237
13586TIP3    H162173   1.304   1.468   1.017  0.2949  1.7765 -2.9226
13586TIP3    H262174   1.196   1.386   0.949 -0.1961  0.6914 -0.8893
13587TIP3   OH262175   2.478   1.131  15.069 -0.3982 -0.1804  0.0383
13587TIP3    H162176   2.434   1.095  14.992 -0.6277 -0.0580  0.1136
13587TIP3    H262177   2.558   1.171  15.034 -1.0703  0.8850 -0.2721
13588TIP3   OH262178   5.495   2.623   0.748 -0.0946 -0.5376 -0.0228
13588TIP3    H162179   5.579   2.578   0.743 -0.1309 -0.5895 -0.1666
13588TIP3    H262180   5.501   2.676   0.827 -1.2007 -3.1262  1.8878
13589TIP3   OH262181   1.334   5.960   0.472  0.1315 -0.5492  0.7521
13589TIP3    H162182   1.258   6.004   0.509 -2.7843 -1.4640 -3.6648
13589TIP3    H262183   1.378   6.028   0.421  0.5318 -0.6986  0.9020
13590TIP3   OH262184   6.786   3.046  12.816  0.3214 -0.0872  0.7654
13590TIP3    H162185   6.735   2.973  12.781  1.9760  0.0939 -2.2198
13590TIP3    H262186   6.872   3.010  12.834  1.2584  1.1397 -1.0616
13591TIP3   OH262187   1.617   4.457  13.984  0.3952  0.3620  1.0812
13591TIP3    H162188   1.686   4.516  14.012  0.3339  0.5063  0.9291
13591TIP3    H262189   1.566   4.439  14.063 -0.3956  1.5884  0.8610
13592TIP3   OH262190   1.075   3.989  11.639  0.0632  0.5744  0.4100
13592TIP3    H162191   1.115   3.926  11.699 -1.4777 -1.1967 -0.3817
13592TIP3    H262192   1.016   4.040  11.694  1.6460  1.6464  1.1432
13593TIP3   OH262193   0.514   3.946  15.589  0.0393 -0.1763 -0.5143
13593TIP3    H162194   0.596   3.951  15.639  0.6547 -0.3917 -1.4876
13593TIP3    H262195   0.460   4.016  15.625  0.1901 -0.7776  0.9370
13594TIP3   OH262196   5.015   2.104   1.414  0.2221 -0.2202 -0.0810
13594TIP3    H162197   5.096   2.055   1.426  0.3192 -0.0541 -0.0509
13594TIP3    H262198   5.036   2.192   1.444 -0.2347 -0.3966  0.7538
13595TIP3   OH262199   6.002   6.719  14.306  0.2423 -0.0085  0.6243
13595TIP3    H162200   6.048   6.777  14.245 -0.6120 -0.1820 -0.1942
13595TIP3    H262201   5.971   6.777  14.375  1.9600  0.0669  1.3624
13596TIP3   OH262202   1.022   2.464   3.328 -0.6478  0.2557  0.9727
13596TIP3    H162203   0.947   2.406   3.342 -0.5739  0.1087  0.7555
13596TIP3    H262204   0.985   2.552   3.333 -1.0690  0.1657 -0.4088
13597TIP3   OH262205   5.463   2.080   3.079  0.0854 -0.1134 -0.1723
13597TIP3    H162206   5.442   2.036   3.162 -1.2011 -1.1469 -1.0248
13597TIP3    H262207   5.384   2.071   3.027  0.5988  1.2987 -1.1996
13598TIP3   OH262208   5.261   0.557  12.228  0.5178  0.1828 -0.2448
13598TIP3    H162209   5.308   0.614  12.289  0.6588 -0.4649  0.2582
13598TIP3    H262210   5.191   0.518  12.282 -0.4196  0.9084 -0.9097
13599TIP3   OH262211   5.181   3.121  14.616  0.2222  0.3265  0.2079
13599TIP3    H162212   5.135   3.038  14.627  2.0473 -0.7985 -0.3555
13599TIP3    H262213   5.154   3.174  14.690 -0.1412 -1.1779  1.1738
13600TIP3   OH262214   2.930   1.147  14.788  0.0114  0.3845 -0.0841
13600TIP3    H162215   3.010   1.186  14.823 -0.1228  0.1553  0.4673
13600TIP3    H262216   2.916   1.192  14.705  1.8609 -0.9859 -1.1824
13601TIP3   OH262217   0.998   1.457   3.856  0.6782 -0.4120  0.4639
13601TIP3    H162218   1.071   1.518   3.844  0.6361 -0.5566 -0.6765
13601TIP3    H262219   1.038   1.371   3.841  0.3987 -0.5318  0.4103
13602TIP3   OH262220   3.280   5.678   1.296  0.4798 -0.2890  0.7506
13602TIP3    H162221   3.361   5.718   1.328  0.3516  1.3389 -0.8777
13602TIP3    H262222   3.304   5.638   1.213 -0.4828  0.6662 -0.0021
13603TIP3   OH262223   1.735   2.389   4.830 -0.2144  0.0380  0.1316
13603TIP3    H162224   1.781   2.446   4.892  0.2537 -0.9162  0.6542
13603TIP3    H262225   1.802   2.329   4.798 -0.7621 -0.3547 -0.2727
13604TIP3   OH262226   2.156   5.441   0.229  0.5968 -0.6056 -0.0089
13604TIP3    H162227   2.169   5.435   0.134  2.1850  0.3343  0.1276
13604TIP3    H262228   2.141   5.350   0.256 -1.6150 -0.7002 -1.3613
13605TIP3   OH262229   5.148   1.830   3.494 -0.0560  0.3445  0.0824
13605TIP3    H162230   5.164   1.785   3.577 -1.5022  0.5176  0.4657
13605TIP3    H262231   5.062   1.869   3.504  0.7798  2.4113 -0.6232
13606TIP3   OH262232   4.340   4.052  16.475 -0.0977  1.0408 -0.4324
13606TIP3    H162233   4.355   3.973  16.422 -1.1283  0.5760 -0.0647
13606TIP3    H262234   4.396   4.118  16.437 -0.3816  0.5423 -1.7465
13607TIP3   OH262235   4.033   2.672  14.192 -1.0370 -0.7034 -0.2403
13607TIP3    H162236   4.035   2.756  14.146 -2.3092 -0.5147  0.0300
13607TIP3    H262237   4.118   2.666  14.236  0.0794 -0.7327 -2.3303
13608TIP3   OH262238   6.511   3.009  17.174  0.4062  0.1739 -0.4560
13608TIP3    H162239   6.443   3.040  17.113 -0.4651 -1.5844 -0.4246
13608TIP3    H262240   6.556   3.088  17.203  1.4468  1.0238 -4.0855
13609TIP3   OH262241   5.600   4.581   2.507 -0.2915  0.3658  0.4558
13609TIP3    H162242   5.612   4.489   2.483  0.8111  0.6361 -0.0372
13609TIP3    H262243   5.565   4.623   2.429  2.1569  0.9929 -0.3482
13610TIP3   OH262244   2.542   6.446  12.256 -0.0745  0.3305  0.1687
13610TIP3    H162245   2.465   6.427  12.310 -1.8864  1.3501 -2.0141
13610TIP3    H262246   2.518   6.419  12.168  1.6973  1.5947 -0.7419
13611TIP3   OH262247   3.608   3.060   3.987 -0.2126  0.6531  0.3026
13611TIP3    H162248   3.590   3.139   3.936 -2.0050 -1.0750 -1.8323
13611TIP3    H262249   3.677   3.015   3.939  0.1099  0.4298  0.9724
13612TIP3   OH262250   1.333   5.343  12.754 -0.3581  0.4821  0.1471
13612TIP3    H162251   1.325   5.438  12.762  0.6056  0.5761  0.0105
13612TIP3    H262252   1.242   5.312  12.751 -0.7037  1.2158  2.2590
13613TIP3   OH262253   3.036   0.848   3.837 -0.2209 -0.3994  0.5019
13613TIP3    H162254   3.037   0.754   3.819  1.1936 -0.6710  1.8258
13613TIP3    H262255   3.126   0.876   3.822 -0.5906  0.7186  0.3000
13614TIP3   OH262256   5.055   5.621  10.918  0.2947 -0.5719  0.0611
13614TIP3    H162257   5.127   5.631  10.980 -0.0538  0.0634  0.3712
13614TIP3    H262258   5.020   5.533  10.935  1.7562 -1.3741 -0.9289
13615TIP3   OH262259   1.972   1.908   2.481 -0.4448  0.0474  0.4966
13615TIP3    H162260   2.010   1.990   2.449  1.6205 -1.2790 -0.5856
13615TIP3    H262261   2.042   1.868   2.534 -0.2026 -2.5389 -1.6729
13616TIP3   OH262262   2.723   0.623  12.050 -0.0296  0.0690 -0.0479
13616TIP3    H162263   2.792   0.611  11.985 -0.9509  0.7313 -1.1661
13616TIP3    H262264   2.650   0.661  12.001 -0.6544  0.8124  1.4230
13617TIP3   OH262265   1.557   6.566  12.699 -0.8540 -0.9484 -0.2404
13617TIP3    H162266   1.588   6.481  12.668 -2.9195 -1.8912  0.1730
13617TIP3    H262267   1.474   6.580  12.653 -1.3869  0.0454  0.9738
13618TIP3   OH262268   1.040   4.031  14.197  0.4694  0.0243  0.1810
13618TIP3    H162269   1.029   3.936  14.203  3.3055 -0.4563 -1.2532
13618TIP3    H262270   0.977   4.058  14.130 -0.6161 -0.7855  0.8608
13619TIP3   OH262271   2.954   1.822  15.455  0.3804 -0.0916 -0.1027
13619TIP3    H162272   3.024   1.798  15.516 -0.7626  0.7386  1.5652
13619TIP3    H262273   3.001   1.859  15.380  1.8488 -2.0217 -0.1786
13620TIP3   OH262274   0.080   1.123   6.253  0.0724 -0.3871 -0.6601
13620TIP3    H162275   0.070   1.034   6.288  1.0054 -0.7916 -1.3932
13620TIP3    H262276   0.018   1.128   6.181 -2.8911  0.9286  1.8936
13621TIP3   OH262277   3.450   2.385  16.940 -0.3231 -0.7794 -0.2572
13621TIP3    H162278   3.408   2.343  17.015 -0.5977  0.8303  0.5093
13621TIP3    H262279   3.530   2.423  16.976 -0.8798  0.7376 -0.5887
13622TIP3   OH262280   4.805   3.699   2.133  0.4679 -0.0133  0.1427
13622TIP3    H162281   4.801   3.677   2.040  0.7922 -0.1914  0.1701
13622TIP3    H262282   4.790   3.617   2.179 -0.1435  0.1564  0.2510
13623TIP3   OH262283   1.473   0.797   1.896 -0.2460  0.2260  0.3989
13623TIP3    H162284   1.495   0.711   1.860 -3.5859 -0.4920 -0.1065
13623TIP3    H262285   1.512   0.860   1.834  2.2117 -0.8561  0.7684
13624TIP3   OH262286   5.295   5.178  12.376  0.1168  0.3540  0.2163
13624TIP3    H162287   5.272   5.236  12.449 -1.0915  1.5029 -1.0508
13624TIP3    H262288   5.301   5.236  12.301  3.8345 -0.4352 -0.1837
13625TIP3   OH262289   5.734   6.192  15.349  0.0622  0.4169  0.2190
13625TIP3    H162290   5.717   6.262  15.412  1.3614 -0.2650  1.3385
13625TIP3    H262291   5.680   6.119  15.380 -0.3297  0.5107 -0.2340
13626TIP3   OH262292   1.985   0.977  17.055 -0.2275  0.1400  0.3170
13626TIP3    H162293   1.988   1.070  17.031  0.6400 -0.3200 -1.3835
13626TIP3    H262294   2.077   0.954  17.069 -0.5312 -0.2018  1.7934
13627TIP3   OH262295   2.019   0.188   3.947 -0.5821  0.2645 -0.0672
13627TIP3    H162296   1.995   0.242   4.023  0.3476 -0.0099  0.4277
13627TIP3    H262297   1.956   0.116   3.948  0.5415 -0.7262  1.5295
13628TIP3   OH262298   6.709   5.458   3.498 -0.7714  0.1600 -0.7311
13628TIP3    H162299   6.796   5.438   3.533 -0.3977  1.4143 -0.9197
13628TIP3    H262300   6.710   5.552   3.482 -2.6556  0.4402  0.6149
13629TIP3   OH262301   0.421   3.830  16.727 -0.2849 -0.5137  0.4793
13629TIP3    H162302   0.436   3.736  16.740  0.4105 -0.3718  0.7777
13629TIP3    H262303   0.459   3.848  16.641 -1.0094 -0.6301  0.1364
13630TIP3   OH262304   4.537   5.297  13.351  0.4993 -0.3884 -0.1507
13630TIP3    H162305   4.546   5.322  13.259 -0.8862  2.1144  0.3473
13630TIP3    H262306   4.506   5.207  13.348 -0.3045 -0.0767 -2.1669
13631TIP3   OH262307   1.385   6.286  16.414  0.1030  0.0068  0.3788
13631TIP3    H162308   1.443   6.349  16.455  0.0232  0.6659 -0.4947
13631TIP3    H262309   1.298   6.310  16.445  0.1870 -0.3075  0.8462
13632TIP3   OH262310   1.804   1.443  15.127 -0.0686 -0.1911 -0.4108
13632TIP3    H162311   1.816   1.360  15.081  1.4375 -0.1515 -0.1033
13632TIP3    H262312   1.850   1.432  15.210 -0.0590  0.8655 -0.2629
13633TIP3   OH262313   3.197   1.924  16.703  0.0353  0.0091  0.1260
13633TIP3    H162314   3.228   1.855  16.761  2.5960  0.9447 -0.0767
13633TIP3    H262315   3.255   1.999  16.720  0.9011  0.2981 -3.5894
13634TIP3   OH262316   5.715   2.344   1.284  0.7336  0.1506  0.7326
13634TIP3    H162317   5.739   2.424   1.237  0.4664 -0.0205  0.2931
13634TIP3    H262318   5.676   2.288   1.216  0.1972 -0.0386  1.1934
13635TIP3   OH262319   5.762   3.729  13.746  0.1481  0.2586  0.0027
13635TIP3    H162320   5.786   3.669  13.817 -0.5844  1.5378  1.3498
13635TIP3    H262321   5.838   3.728  13.688  0.9246 -0.4978  1.0051
13636TIP3   OH262322   5.859   6.712   0.965  0.3073  0.0416 -0.1925
13636TIP3    H162323   5.941   6.760   0.953  0.6941 -0.5105  0.2085
13636TIP3    H262324   5.883   6.620   0.952 -0.2454 -0.1265 -0.0465
13637TIP3   OH262325   5.434   6.235  14.519  0.3563  0.2108 -0.3071
13637TIP3    H162326   5.505   6.280  14.473 -0.0176  3.7976  2.4168
13637TIP3    H262327   5.476   6.158  14.558  2.4635  1.5233  0.0962
13638TIP3   OH262328   4.200   5.888   3.675 -0.1472  0.4027  0.8467
13638TIP3    H162329   4.118   5.924   3.639  0.3786  1.5157  0.7398
13638TIP3    H262330   4.209   5.803   3.633  0.0191  1.3211 -1.0324
13639TIP3   OH262331   5.518   3.244   5.430  0.0074 -0.1979  0.0337
13639TIP3    H162332   5.430   3.239   5.468 -0.0548  1.0340  0.0677
13639TIP3    H262333   5.566   3.173   5.473 -1.0794 -1.1425 -0.2894
13640TIP3   OH262334   4.343   1.880   1.098 -0.6540 -0.0457  0.4719
13640TIP3    H162335   4.423   1.854   1.143 -0.7805 -1.1678  0.0810
13640TIP3    H262336   4.368   1.888   1.006 -0.9380 -0.2327  0.3740
13641TIP3   OH262337   0.219   4.849  14.603  0.3106 -0.0644 -0.0952
13641TIP3    H162338   0.187   4.861  14.513  2.4607 -0.7203 -1.0125
13641TIP3    H262339   0.144   4.817  14.652 -1.0355  0.8049 -1.5438
13642TIP3   OH262340   2.751   5.731   1.952  1.0827 -0.0663 -0.2079
13642TIP3    H162341   2.811   5.777   1.893 -1.7091  4.1709  0.0619
13642TIP3    H262342   2.667   5.730   1.906 -0.0358 -0.8072  1.7810
13643TIP3   OH262343   1.021   2.142   0.184 -0.2273  0.2367  0.1548
13643TIP3    H162344   0.976   2.218   0.147 -0.2286 -0.6261 -1.6829
13643TIP3    H262345   1.094   2.179   0.234  0.5677  1.4131 -1.8167
13644TIP3   OH262346   5.588   4.570   0.640 -0.9463 -0.8836  0.0171
13644TIP3    H162347   5.609   4.578   0.733 -1.7888 -4.6330  0.6218
13644TIP3    H262348   5.672   4.578   0.595 -0.4051 -0.0452  1.1773
13645TIP3   OH262349   1.551   6.597  16.978 -0.1544  0.1021  0.9788
13645TIP3    H162350   1.507   6.594  17.063  0.1340  0.6040  1.1517
13645TIP3    H262351   1.499   6.539  16.922 -0.1914 -0.4447  1.5680
13646TIP3   OH262352   6.109   5.179   0.052 -0.6501  0.4179 -0.4048
13646TIP3    H162353   6.088   5.091   0.080  1.6811  0.3238  1.1947
13646TIP3    H262354   6.071   5.236   0.118 -1.2964  0.5671 -0.9011
13647TIP3   OH262355   4.542   1.612   1.713 -0.3384 -0.5866  0.1583
13647TIP3    H162356   4.488   1.641   1.639 -0.3028 -1.0013 -0.0346
13647TIP3    H262357   4.506   1.658   1.789 -2.0414 -2.1144  0.3026
13648TIP3   OH262358   4.437   5.189   1.793 -0.2895 -0.0142 -0.0171
13648TIP3    H162359   4.429   5.244   1.871 -0.3998 -0.4355  0.2716
13648TIP3    H262360   4.529   5.198   1.767 -0.2983  0.2775  0.0487
13649TIP3   OH262361   2.225   2.545  12.537  0.4076  0.6661  0.1967
13649TIP3    H162362   2.141   2.591  12.534 -1.0758 -1.9470 -0.1692
13649TIP3    H262363   2.236   2.509  12.449  0.9061 -0.7324  0.8274
13650TIP3   OH262364   2.614   4.641  14.705  0.1030 -0.9027  0.6047
13650TIP3    H162365   2.532   4.631  14.755 -0.3768 -2.2188 -0.4080
13650TIP3    H262366   2.586   4.669  14.618  0.8637  0.3630  0.7596
13651TIP3   OH262367   2.390   6.729   5.022 -0.0952 -0.0908  0.2787
13651TIP3    H162368   2.351   6.719   5.109 -1.0299 -2.4901 -0.3559
13651TIP3    H262369   2.464   6.669   5.022 -0.3569 -0.4316 -0.6903
13652TIP3   OH262370   4.524   5.222   4.737 -0.1433 -0.0776 -0.0680
13652TIP3    H162371   4.485   5.196   4.653 -2.4420 -1.3265  1.3276
13652TIP3    H262372   4.618   5.217   4.722 -0.4833  0.5399 -2.8117
13653TIP3   OH262373   2.549   4.538  10.610 -0.4388  0.2872  0.0251
13653TIP3    H162374   2.589   4.470  10.557 -0.4250 -0.4554  0.9741
13653TIP3    H262375   2.618   4.604  10.621  0.1504 -0.4319  0.6692
13654TIP3   OH262376   2.577   3.585  16.091 -0.0296 -0.1421 -0.5765
13654TIP3    H162377   2.638   3.528  16.044  1.6633  1.0135  0.1448
13654TIP3    H262378   2.629   3.621  16.163 -2.0468 -0.4381  1.0695
13655TIP3   OH262379   4.224   5.977   1.372  0.0309 -0.4132  0.3196
13655TIP3    H162380   4.271   5.905   1.331  0.8517 -0.0744  0.6465
13655TIP3    H262381   4.282   6.006   1.442 -1.3211 -0.9184  1.6547
13656TIP3   OH262382   5.433   5.193  15.279  0.1770  0.0391 -0.5379
13656TIP3    H162383   5.521   5.171  15.309 -0.0538  0.8926  0.8112
13656TIP3    H262384   5.401   5.255  15.344 -2.0552 -1.5195 -0.0999
13657TIP3   OH262385   4.766   1.239   3.276 -0.6939  0.5618 -0.0065
13657TIP3    H162386   4.749   1.273   3.363  0.6574 -1.7713  1.2278
13657TIP3    H262387   4.722   1.154   3.275 -0.5861  0.5077 -1.5687
13658TIP3   OH262388   4.342   2.603  14.098 -0.2584 -0.5943  0.3575
13658TIP3    H162389   4.344   2.619  14.004 -0.7653 -0.0465  0.4398
13658TIP3    H262390   4.262   2.551  14.112 -1.3478  1.1298  0.7567
13659TIP3   OH262391   1.162   3.670   3.940 -0.2563 -0.1511 -0.0134
13659TIP3    H162392   1.178   3.760   3.966  0.5215 -0.3778  0.2951
13659TIP3    H262393   1.145   3.675   3.846  2.6788 -0.0257 -0.5651
13660TIP3   OH262394   5.643   2.973   1.902  0.3015 -0.0936  0.3139
13660TIP3    H162395   5.669   3.058   1.938  1.8582  0.1112 -1.1873
13660TIP3    H262396   5.688   2.909   1.957 -0.0549  0.1012  0.8277
13661TIP3   OH262397   4.728   5.996  15.982 -0.5509  0.1480 -0.1251
13661TIP3    H162398   4.806   5.980  15.929 -0.9651 -0.4328 -0.5557
13661TIP3    H262399   4.737   5.937  16.057 -0.3451  0.4158  0.0626
13662TIP3   OH262400   1.601   5.842  16.390  0.1362 -0.2588  0.1337
13662TIP3    H162401   1.685   5.823  16.433  0.2425  1.3714  0.6849
13662TIP3    H262402   1.551   5.761  16.400  1.1476 -0.7974  1.0038
13663TIP3   OH262403   2.354   3.765  16.429 -0.8445  0.3531  0.4314
13663TIP3    H162404   2.367   3.673  16.405  1.4792  0.9557 -0.8380
13663TIP3    H262405   2.363   3.812  16.346  2.9457  2.1387  1.7524
13664TIP3   OH262406   4.780   2.359  12.964 -0.1317  0.5687  0.0968
13664TIP3    H162407   4.789   2.379  13.058  2.3158  0.8346 -0.1422
13664TIP3    H262408   4.870   2.346  12.934 -0.8852  0.4906 -2.2399
13665TIP3   OH262409   2.710   4.235  15.506 -0.1198  0.2859 -0.1370
13665TIP3    H162410   2.652   4.289  15.559 -1.4255 -2.2277  1.0757
13665TIP3    H262411   2.704   4.147  15.545  3.3135 -0.3730 -0.9239
13666TIP3   OH262412   1.384   0.416  10.898  0.8069 -0.3508  0.1118
13666TIP3    H162413   1.407   0.475  10.969  0.6597 -0.3043  0.1224
13666TIP3    H262414   1.436   0.337  10.914  0.0946 -0.6894  0.7839
13667TIP3   OH262415   4.131   2.145   3.695 -0.0830  0.2332 -0.1236
13667TIP3    H162416   4.092   2.208   3.755 -0.3400  0.3910 -0.4552
13667TIP3    H262417   4.152   2.069   3.750 -0.4004  0.3396  0.1450
13668TIP3   OH262418   0.183   4.439  14.201 -0.0474  0.7439 -0.0620
13668TIP3    H162419   0.146   4.374  14.141  0.9591  0.4721 -0.4013
13668TIP3    H262420   0.141   4.422  14.285  3.1801 -3.0547  0.9212
13669TIP3   OH262421   4.245   1.940   0.360  0.2407 -0.3452  0.2815
13669TIP3    H162422   4.311   2.008   0.377 -0.8311  0.7069  0.3477
13669TIP3    H262423   4.281   1.861   0.399  2.7847 -0.4835 -2.1855
13670TIP3   OH262424   1.408   0.193   5.255  0.6602  0.0636  0.0837
13670TIP3    H162425   1.391   0.113   5.204  0.1637  0.2483 -0.0372
13670TIP3    H262426   1.430   0.259   5.189  1.2485 -0.0156  0.1953
13671TIP3   OH262427   2.146   6.285   2.653  0.1539 -0.5977  0.1958
13671TIP3    H162428   2.073   6.341   2.627 -0.9362 -2.7602 -1.5970
13671TIP3    H262429   2.223   6.340   2.641 -1.0202  1.1284  0.3239
13672TIP3   OH262430   4.200   4.944   0.981  0.7093 -0.0414 -0.0590
13672TIP3    H162431   4.184   4.963   0.889 -0.5709 -0.0299  0.1600
13672TIP3    H262432   4.218   5.030   1.021 -0.8686  0.2139  0.1136
13673TIP3   OH262433   0.273   5.248  12.516 -0.0315 -0.5537  0.6833
13673TIP3    H162434   0.186   5.289  12.514  0.7258  1.1890  1.9087
13673TIP3    H262435   0.312   5.269  12.431  0.2369  1.0809  1.1868
13674TIP3   OH262436   5.625   4.804   0.342 -0.0266  0.6231 -0.4671
13674TIP3    H162437   5.659   4.832   0.427 -0.7529  0.0763  0.0038
13674TIP3    H262438   5.530   4.807   0.351 -0.1079 -0.6822 -0.8496
13675TIP3   OH262439   0.744   3.058  12.627  0.1342 -0.2324  0.0264
13675TIP3    H162440   0.790   3.141  12.613 -0.2252  0.0360  0.4224
13675TIP3    H262441   0.814   2.996  12.648  0.2111  0.4713  1.9461
13676TIP3   OH262442   5.366   3.803  12.828 -0.1526  0.1080  0.1193
13676TIP3    H162443   5.273   3.824  12.839  0.1933  2.3825 -1.2286
13676TIP3    H262444   5.400   3.869  12.768  2.0677 -1.4690 -0.4383
13677TIP3   OH262445   3.550   1.918  16.585  0.2919  0.3824  0.2320
13677TIP3    H162446   3.587   2.005  16.602 -0.3556  0.1793  2.7928
13677TIP3    H262447   3.596   1.860  16.646  2.2446 -1.5016 -2.9090
13678TIP3   OH262448   0.169   1.744  11.350  0.0467 -0.2415 -0.6859
13678TIP3    H162449   0.218   1.674  11.395 -1.4521 -0.5025  0.5595
13678TIP3    H262450   0.185   1.728  11.257 -0.2397 -2.2354 -0.4153
13679TIP3   OH262451   4.595   2.047   4.753 -0.1657 -0.0473  0.0001
13679TIP3    H162452   4.666   2.019   4.811 -1.0074 -1.3729  0.3983
13679TIP3    H262453   4.630   2.124   4.709  2.2344 -1.7712 -1.2025
13680TIP3   OH262454   5.326   5.102  16.426  0.1738 -0.4527 -0.7633
13680TIP3    H162455   5.247   5.153  16.407  0.6677  0.6882  0.1724
13680TIP3    H262456   5.389   5.129  16.359  0.3804  0.0603 -0.3703
13681TIP3   OH262457   3.505   5.794   1.047  0.3691  0.4619 -0.2993
13681TIP3    H162458   3.478   5.851   1.119 -0.2665  0.1805 -0.3116
13681TIP3    H262459   3.567   5.733   1.088  1.2255  1.2903 -0.3348
13682TIP3   OH262460   5.938   3.917  11.709  0.3302  0.8022  0.0396
13682TIP3    H162461   5.928   3.992  11.650 -1.1242  1.2233  0.8042
13682TIP3    H262462   5.976   3.955  11.788 -0.4392  0.7413  0.4399
13683TIP3   OH262463   3.242   1.416   3.218  0.1129  0.0144 -0.3967
13683TIP3    H162464   3.282   1.402   3.303 -0.7042  0.0062 -0.0028
13683TIP3    H262465   3.185   1.492   3.230 -1.8240 -1.4023 -0.2736
13684TIP3   OH262466   0.747   4.066  10.926 -0.3551  0.0819 -0.1767
13684TIP3    H162467   0.794   4.052  10.844 -0.5363 -0.6848 -0.1508
13684TIP3    H262468   0.682   3.996  10.929 -0.5967  0.3277  0.4427
13685TIP3   OH262469   6.608   5.142  11.998 -0.1377  0.4953  0.5921
13685TIP3    H162470   6.675   5.133  11.930 -1.0916 -0.3334 -0.2521
13685TIP3    H262471   6.547   5.207  11.963 -1.4190 -1.0002 -0.0118
13686TIP3   OH262472   5.539   4.480   3.450 -0.0640  0.6896  0.6249
13686TIP3    H162473   5.523   4.466   3.543  2.0921 -1.0283  0.7927
13686TIP3    H262474   5.544   4.392   3.413  0.3442  1.3185 -0.8720
13687TIP3   OH262475   5.586   3.276  16.253 -0.4513 -0.4277 -0.0454
13687TIP3    H162476   5.499   3.265  16.216 -0.1588 -1.5430 -0.4356
13687TIP3    H262477   5.602   3.193  16.299  0.3260 -0.1540  0.1743
13688TIP3   OH262478   6.447   1.954   5.536 -0.5878  0.4321  0.0690
13688TIP3    H162479   6.421   1.866   5.509  0.4591 -0.0592  0.6473
13688TIP3    H262480   6.466   1.946   5.629  1.4023  0.8343 -0.2838
13689TIP3   OH262481   3.369   6.368  15.407  0.7674  0.2496 -0.0014
13689TIP3    H162482   3.364   6.307  15.334  2.4330  0.3641 -0.2325
13689TIP3    H262483   3.328   6.323  15.480  3.0981 -1.6955  0.1789
13690TIP3   OH262484   5.182   6.083  15.122 -0.4244 -0.0768 -0.2021
13690TIP3    H162485   5.104   6.028  15.138  0.5287 -1.3376  0.2204
13690TIP3    H262486   5.214   6.054  15.037 -0.1542  0.1214 -0.1666
13691TIP3   OH262487   1.018   3.212  16.784  0.1080  0.0279 -0.0356
13691TIP3    H162488   0.944   3.187  16.729  0.9738 -1.8091 -0.4230
13691TIP3    H262489   1.033   3.304  16.765 -1.9187  0.3538 -0.1197
13692TIP3   OH262490   5.053   2.852   4.222 -0.3458 -0.0220  0.4964
13692TIP3    H162491   5.042   2.848   4.317 -0.4834 -0.1531  0.4762
13692TIP3    H262492   5.141   2.817   4.207  0.6628  2.3137  0.7668
13693TIP3   OH262493   6.557   0.805  12.141 -0.4670  0.1123 -0.1436
13693TIP3    H162494   6.537   0.747  12.067 -1.3700  0.1795  0.0396
13693TIP3    H262495   6.569   0.746  12.215  1.1605 -0.0015 -0.4932
13694TIP3   OH262496   5.204   2.221   0.843 -1.0721 -0.8774  0.3715
13694TIP3    H162497   5.294   2.240   0.869 -0.4047 -1.6267 -1.3439
13694TIP3    H262498   5.162   2.307   0.837  0.0062 -0.4059 -0.5176
13695TIP3   OH262499   5.730   1.311   3.885  0.1116  0.1070  0.0893
13695TIP3    H162500   5.725   1.226   3.928 -2.3337  1.1144  1.9329
13695TIP3    H262501   5.818   1.342   3.903 -0.2789 -0.2943  2.9128
13696TIP3   OH262502   3.478   4.384  13.141 -0.3725 -0.2278 -0.5898
13696TIP3    H162503   3.475   4.447  13.213  1.2751  1.1995 -1.7418
13696TIP3    H262504   3.388   4.381  13.108 -0.9346 -0.1754  0.9020
13697TIP3   OH262505   5.724   3.370   2.316 -0.2744  0.2890 -0.0495
13697TIP3    H162506   5.817   3.359   2.331 -0.1760  1.8863  0.6010
13697TIP3    H262507   5.707   3.324   2.233  0.7292 -1.5308  0.7316
13698TIP3   OH262508   4.177   4.247  14.469  0.3224  0.0946  0.3252
13698TIP3    H162509   4.109   4.180  14.466  0.4129 -0.0393  1.2268
13698TIP3    H262510   4.129   4.330  14.473  0.2131  0.0485 -0.0385
13699TIP3   OH262511   6.400   4.296   5.281 -0.2663  0.0643  0.2655
13699TIP3    H162512   6.310   4.312   5.312  0.3049  2.3388  0.8795
13699TIP3    H262513   6.417   4.368   5.221  0.8500 -0.8608 -0.5334
13700TIP3   OH262514   4.554   4.675  11.973  0.1039 -0.2096  0.6694
13700TIP3    H162515   4.540   4.581  11.986  1.4174 -0.5447 -0.2362
13700TIP3    H262516   4.469   4.715  11.993 -0.6579 -1.6536  0.3950
13701TIP3   OH262517   6.280   4.064   2.576 -0.0334 -0.0039  0.8383
13701TIP3    H162518   6.268   4.064   2.481  0.2493  1.6693  0.7893
13701TIP3    H262519   6.309   4.152   2.596 -1.0003 -0.0750  2.6080
13702TIP3   OH262520   0.589   5.893  15.518  0.1669  0.2928  0.2361
13702TIP3    H162521   0.495   5.883  15.506  0.0268  1.0940  0.6580
13702TIP3    H262522   0.603   5.881  15.612  0.7137 -1.5908 -0.0626
13703TIP3   OH262523   0.405   5.436   6.334  0.1266 -0.1784  0.0880
13703TIP3    H162524   0.356   5.486   6.398  1.2323  0.1414  0.6987
13703TIP3    H262525   0.453   5.371   6.386  2.6261  1.3956 -0.1699
13704TIP3   OH262526   2.083   6.330   6.653  0.4431 -0.1864 -0.5199
13704TIP3    H162527   2.109   6.403   6.708 -1.5590 -0.4006  0.7546
13704TIP3    H262528   2.126   6.254   6.693 -1.0836 -0.3593  0.8712
13705TIP3   OH262529   5.544   0.430  16.518  1.1710 -0.0200 -0.3256
13705TIP3    H162530   5.515   0.360  16.460  1.2869 -0.3564  0.0193
13705TIP3    H262531   5.638   0.416  16.529  1.3902  0.7969 -1.0752
13706TIP3   OH262532   3.922   6.429  12.275 -0.5209 -0.1907 -0.4413
13706TIP3    H162533   3.936   6.357  12.214 -1.3770 -0.9392  0.2189
13706TIP3    H262534   3.973   6.405  12.353 -0.2460  0.2642 -0.4784
13707TIP3   OH262535   6.538   3.264  15.740 -0.0272 -0.0175  0.3046
13707TIP3    H162536   6.475   3.197  15.765 -2.3205  1.5629 -1.0622
13707TIP3    H262537   6.584   3.286  15.822 -0.3680 -2.0522  1.0670
13708TIP3   OH262538   2.206   6.708  13.288  0.8209 -0.6917 -0.2661
13708TIP3    H162539   2.266   6.774  13.256 -0.4877  0.3132 -0.6831
13708TIP3    H262540   2.213   6.636  13.226  0.1730  0.2131 -1.3987
13709TIP3   OH262541   2.894   2.952   1.562 -0.0411  0.5656 -0.3153
13709TIP3    H162542   2.898   2.990   1.475 -1.9455 -1.3965 -1.2951
13709TIP3    H262543   2.836   3.010   1.611 -1.1969  0.1217 -1.1639
13710TIP3   OH262544   1.588   1.325  11.523 -0.1068  0.5522 -0.1183
13710TIP3    H162545   1.647   1.335  11.449  0.0243  1.2043  0.0710
13710TIP3    H262546   1.568   1.414  11.551  0.8682  0.3028  1.4459
13711TIP3   OH262547   6.192   4.583   4.053 -0.6447  0.6051  0.1593
13711TIP3    H162548   6.122   4.519   4.039  0.4136 -0.8348  1.3757
13711TIP3    H262549   6.260   4.557   3.990 -0.5017  0.9757  0.1619
13712TIP3   OH262550   1.248   6.180  15.236  0.2399  0.6505  0.5905
13712TIP3    H162551   1.270   6.151  15.324  0.7579  0.7725  0.5013
13712TIP3    H262552   1.170   6.128  15.213 -0.2253  1.0185  1.3190
13713TIP3   OH262553   2.158   1.701   1.313 -0.1700 -0.9733  0.6030
13713TIP3    H162554   2.102   1.672   1.240  1.3665  0.0817 -1.0502
13713TIP3    H262555   2.207   1.623   1.338  1.0354 -0.8171 -1.1448
13714TIP3   OH262556   2.169   2.420   2.250 -0.5486 -0.5345 -0.6362
13714TIP3    H162557   2.136   2.471   2.323  0.7587 -1.8748  0.9432
13714TIP3    H262558   2.103   2.353   2.235  0.4706 -2.0204  1.2445
13715TIP3   OH262559   3.014   0.071   5.058 -0.4342 -0.2124 -0.1810
13715TIP3    H162560   2.953   0.093   5.128  0.2118  2.4532 -0.3870
13715TIP3    H262561   3.082   0.017   5.100 -0.2732  1.0257  1.1536
13716TIP3   OH262562   5.071   6.115   2.817 -0.3417  0.2132  0.7293
13716TIP3    H162563   5.158   6.140   2.788  0.3009  0.1925  2.6089
13716TIP3    H262564   5.012   6.152   2.751  1.1554 -0.9409 -1.3027
13717TIP3   OH262565   0.160   0.907  11.966 -0.0065  0.0303  0.2358
13717TIP3    H162566   0.152   0.943  11.878 -1.8160 -0.6559  0.1023
13717TIP3    H262567   0.079   0.932  12.011  0.3857 -0.6068  1.3332
13718TIP3   OH262568   3.853   0.129   3.045 -0.3209  0.2825 -0.5389
13718TIP3    H162569   3.794   0.161   3.113 -0.5327 -1.6932  0.2465
13718TIP3    H262570   3.930   0.184   3.053  0.0734 -0.5338  2.0249
13719TIP3   OH262571   5.774   1.527   3.162  0.6226  0.5710 -0.0195
13719TIP3    H162572   5.837   1.460   3.135  0.0466  0.2751 -0.6451
13719TIP3    H262573   5.721   1.484   3.229  1.9827  1.2703  1.5399
13720TIP3   OH262574   2.012   6.417  14.993  0.0522 -0.4272 -0.4775
13720TIP3    H162575   2.009   6.510  15.013  0.3388 -0.4116 -0.5091
13720TIP3    H262576   1.957   6.408  14.915  0.9942 -0.1061 -1.1825
13721TIP3   OH262577   5.185   4.039   5.380  0.5643 -0.6070  0.0120
13721TIP3    H162578   5.168   4.083   5.297  0.5034 -2.2265 -0.8559
13721TIP3    H262579   5.215   3.952   5.355 -1.7573 -1.9567  1.7267
13722TIP3   OH262580   5.440   1.728   4.065  0.0391 -0.3491  0.7475
13722TIP3    H162581   5.465   1.661   4.001 -2.0940 -2.0430  1.6299
13722TIP3    H262582   5.382   1.786   4.017 -2.2709 -2.1166  1.2974
13723TIP3   OH262583   6.135   3.723   5.988  0.4265  0.1802  0.3487
13723TIP3    H162584   6.055   3.719   6.040 -0.1788 -0.0490 -0.5862
13723TIP3    H262585   6.126   3.803   5.936 -0.2597 -1.0557 -1.4521
13724TIP3   OH262586   5.334   0.273   0.017 -0.1698  0.1311  0.4788
13724TIP3    H162587   5.401   0.205   0.016 -0.5905 -0.3038  1.2252
13724TIP3    H262588   5.252   0.226   0.029 -0.4637  0.7798  1.0418
13725TIP3   OH262589   4.253   1.560  15.658  0.5446 -0.0633 -0.4424
13725TIP3    H162590   4.201   1.519  15.588  0.4737 -0.5577 -0.0983
13725TIP3    H262591   4.215   1.647  15.667 -0.0529 -0.3272 -0.3841
13726TIP3   OH262592   1.418   0.597  12.277  0.8612  0.4412 -0.3160
13726TIP3    H162593   1.338   0.591  12.329  0.7801  0.2123 -0.4663
13726TIP3    H262594   1.428   0.690  12.258 -0.7378  0.2134 -2.4251
13727TIP3   OH262595   0.615   5.466  11.870 -0.0079  0.5048  0.2081
13727TIP3    H162596   0.547   5.422  11.920 -0.5155  0.6834 -0.3262
13727TIP3    H262597   0.576   5.550  11.844 -0.2761 -0.1835 -1.7204
13728TIP3   OH262598   3.965   3.835   5.012  0.5590 -0.9001 -0.1736
13728TIP3    H162599   3.978   3.929   4.999  1.5544 -0.9830  0.1749
13728TIP3    H262600   4.037   3.794   4.965  0.5495 -1.4626  0.2917
13729TIP3   OH262601   4.602   2.891   2.938  0.3259  0.0743  0.1224
13729TIP3    H162602   4.539   2.963   2.940  0.7484  0.5486 -2.0678
13729TIP3    H262603   4.558   2.822   2.889  0.9415 -0.1319 -0.1542
13730TIP3   OH262604   2.038   0.975   5.042  0.0959 -0.0566 -0.6615
13730TIP3    H162605   2.007   1.026   4.967  0.1088  1.0583  0.0906
13730TIP3    H262606   2.134   0.979   5.035  0.0971 -0.1157 -0.6846
13731TIP3   OH262607   0.324   0.076   2.047 -0.2147  0.4553 -0.1413
13731TIP3    H162608   0.309   0.150   1.988 -1.8613  0.7826  0.6643
13731TIP3    H262609   0.256   0.084   2.113 -0.4047 -1.8144 -0.0363
13732TIP3   OH262610   0.667   1.949   0.210  0.4547 -0.2556 -0.0599
13732TIP3    H162611   0.671   2.042   0.235  0.3476 -0.2430 -0.0913
13732TIP3    H262612   0.640   1.904   0.290  1.9694 -0.4278  0.3740
13733TIP3   OH262613   1.514   4.430  10.169 -0.0599  0.5116  0.0116
13733TIP3    H162614   1.546   4.412  10.257 -0.0210 -0.3518 -0.1826
13733TIP3    H262615   1.584   4.483  10.129  0.9496 -0.9953 -0.2647
13734TIP3   OH262616   3.003   0.315  12.130  0.2283 -0.7440  0.1191
13734TIP3    H162617   3.073   0.331  12.067  1.2632 -1.7193  1.0015
13734TIP3    H262618   3.038   0.248  12.188  0.6445  2.5376  3.8720
13735TIP3   OH262619   5.774   0.437   2.107 -0.3417 -0.7335 -0.7897
13735TIP3    H162620   5.705   0.449   2.172 -1.8364 -1.9258 -2.1261
13735TIP3    H262621   5.853   0.421   2.159 -0.9550  1.1005  0.7564
13736TIP3   OH262622   4.379   5.022   5.142  0.0734  0.2308  0.0224
13736TIP3    H162623   4.355   5.088   5.207  1.6214 -0.8456  1.7047
13736TIP3    H262624   4.472   5.006   5.157  0.0681 -1.2483 -1.3843
13737TIP3   OH262625   4.393   1.807  16.626 -0.1232 -0.4659 -0.1388
13737TIP3    H162626   4.312   1.858  16.616  1.0504  1.2068 -1.4396
13737TIP3    H262627   4.425   1.832  16.713 -0.3985 -0.2376 -0.0998
13738TIP3   OH262628   2.377   6.783   0.270  0.2770  0.1560  0.1504
13738TIP3    H162629   2.468   6.811   0.265 -0.1645  1.7557  0.9526
13738TIP3    H262630   2.378   6.705   0.326  1.4607 -1.3068 -1.8309
13739TIP3   OH262631   2.207   1.323  12.899  0.0101  0.1048  0.4262
13739TIP3    H162632   2.148   1.392  12.929  0.4608  0.9994 -0.6972
13739TIP3    H262633   2.237   1.354  12.814  0.3200 -1.4266 -0.0252
13740TIP3   OH262634   2.146   3.795  16.142 -0.2481 -0.0611  0.7685
13740TIP3    H162635   2.230   3.838  16.156 -0.4639  0.6056  0.0610
13740TIP3    H262636   2.130   3.746  16.223  0.7739 -0.1216  0.9379
13741TIP3   OH262637   5.517   3.714   0.572 -0.2056  0.5484  0.1333
13741TIP3    H162638   5.515   3.798   0.618  0.4698  0.3766  0.4796
13741TIP3    H262639   5.552   3.653   0.636  1.1717  0.3955 -0.7564
13742TIP3   OH262640   5.231   0.012  14.124 -0.2908  0.0350 -0.7583
13742TIP3    H162641   5.248  -0.050  14.053 -0.7861 -0.1325 -0.7362
13742TIP3    H262642   5.204  -0.043  14.198 -1.6940  0.3332 -1.0335
13743TIP3   OH262643   6.563   0.397  10.853 -0.0267 -0.5204 -0.1757
13743TIP3    H162644   6.628   0.350  10.905 -0.9362 -2.2905 -0.6096
13743TIP3    H262645   6.548   0.341  10.777 -1.9765 -0.0937 -0.1244
13744TIP3   OH262646   2.747   6.191  10.839 -0.3120 -0.2778 -0.1723
13744TIP3    H162647   2.830   6.161  10.876 -0.4629  1.6178  1.7896
13744TIP3    H262648   2.681   6.166  10.904 -0.9817  0.1886 -0.6655
13745TIP3   OH262649   5.040   4.409   1.298  0.1290  0.1150  0.3437
13745TIP3    H162650   5.130   4.389   1.273  0.8809 -0.5739  3.4068
13745TIP3    H262651   5.045   4.494   1.342 -1.4038  2.0756 -3.0442
13746TIP3   OH262652   4.475   3.881  11.545 -0.4011  0.3359 -0.4011
13746TIP3    H162653   4.565   3.912  11.558  0.7683 -2.6855 -0.8460
13746TIP3    H262654   4.481   3.823  11.469 -2.3093 -1.5239  0.8272
13747TIP3   OH262655   0.614   1.251   4.869  0.6243  0.7444 -0.0590
13747TIP3    H162656   0.674   1.279   4.938  0.9338 -1.7218  0.7016
13747TIP3    H262657   0.633   1.310   4.796 -0.1309  3.8140  2.0975
13748TIP3   OH262658   0.114   3.655   1.767 -0.3242  0.8181  0.2719
13748TIP3    H162659   0.039   3.694   1.811 -0.4404 -0.9175  1.6534
13748TIP3    H262660   0.077   3.585   1.712  0.0589  1.4406 -0.8034
13749TIP3   OH262661   5.415   1.207  16.974  0.0396 -0.0326  0.0349
13749TIP3    H162662   5.468   1.201  16.894 -1.0567 -0.2298 -0.6898
13749TIP3    H262663   5.329   1.236  16.943 -0.3708 -0.0410  1.1583
13750TIP3   OH262664   2.106   3.862  12.615 -0.4368 -0.2672 -0.5563
13750TIP3    H162665   2.022   3.818  12.606  0.7218 -3.0585  1.5481
13750TIP3    H262666   2.168   3.806  12.570  0.6190  0.7482 -0.3964
13751TIP3   OH262667   5.651   1.001  16.981 -0.1368  0.1383 -0.3043
13751TIP3    H162668   5.732   0.951  16.996  0.7579  1.9493  1.1363
13751TIP3    H262669   5.587   0.960  17.039  0.3576  0.1122  0.2312
13752TIP3   OH262670   2.231   4.497   4.387  0.3111  0.1344 -0.3248
13752TIP3    H162671   2.212   4.583   4.423  1.5871 -0.2214  1.2632
13752TIP3    H262672   2.155   4.477   4.331 -1.0820  1.2648  1.1174
13753TIP3   OH262673   0.845   4.673  13.536  0.6232 -0.6059 -0.4399
13753TIP3    H162674   0.891   4.663  13.620  0.5022 -2.1990 -0.5650
13753TIP3    H262675   0.852   4.767  13.517  2.2883 -0.5344  0.4152
13754TIP3   OH262676   6.501   2.920   1.112 -0.5447 -0.2291 -0.1225
13754TIP3    H162677   6.470   2.838   1.073  0.8178 -0.5716 -0.4965
13754TIP3    H262678   6.533   2.894   1.199  1.0825 -0.3380 -0.7290
13755TIP3   OH262679   1.827   5.600  12.950 -0.0459 -0.5573 -0.1295
13755TIP3    H162680   1.741   5.561  12.934 -0.5962 -0.2557  2.0171
13755TIP3    H262681   1.810   5.694  12.950  0.4668 -0.4631 -0.6625
13756TIP3   OH262682   0.559   1.774   5.848 -0.4679  0.2638  0.0519
13756TIP3    H162683   0.622   1.845   5.833 -0.4654  0.1602 -0.4396
13756TIP3    H262684   0.475   1.811   5.823 -0.3901 -0.0792 -0.7338
13757TIP3   OH262685   4.208   1.727   2.115 -0.1108 -0.0050 -0.1188
13757TIP3    H162686   4.153   1.681   2.178  0.7518 -0.3880  0.3647
13757TIP3    H262687   4.260   1.787   2.168 -0.0543  0.3578 -0.5765
13758TIP3   OH262688   4.615   5.057   3.552 -0.6209 -0.0935  0.0487
13758TIP3    H162689   4.535   5.032   3.506 -1.0258  3.3254 -1.2994
13758TIP3    H262690   4.682   5.060   3.484 -0.4015  1.4564  0.3085
13759TIP3   OH262691   0.939   2.738   1.391  0.1896  0.1022 -0.2806
13759TIP3    H162692   0.923   2.662   1.335 -0.3632 -0.2230  0.3133
13759TIP3    H262693   0.973   2.805   1.331 -1.8201  0.2565 -1.3001
13760TIP3   OH262694   0.019   0.315   4.368  0.5261  0.4549  0.6137
13760TIP3    H162695   0.022   0.220   4.366  0.6281  0.4775 -0.9784
13760TIP3    H262696  -0.005   0.337   4.458 -3.7638 -1.1968 -0.0283
13761TIP3   OH262697   6.702   2.954   2.607 -0.3033 -0.3768  0.1632
13761TIP3    H162698   6.707   2.951   2.702  0.0697  0.2900  0.1663
13761TIP3    H262699   6.639   2.886   2.584  0.5948 -1.4381  0.8008
13762TIP3   OH262700   5.729   2.029  13.276  0.2820 -0.2101  0.6582
13762TIP3    H162701   5.727   2.094  13.346  0.6115  0.5869 -0.0686
13762TIP3    H262702   5.742   1.946  13.322  0.6353  0.3127  1.5306
13763TIP3   OH262703   6.671   3.645  13.686  0.4733  0.0159  0.1216
13763TIP3    H162704   6.667   3.610  13.597  0.3099  0.5035 -0.0625
13763TIP3    H262705   6.749   3.700  13.686  1.4101 -1.2668  0.7457
13764TIP3   OH262706   6.333   4.816   1.373 -0.1846  0.3894 -0.1606
13764TIP3    H162707   6.388   4.824   1.451 -1.3149 -2.3009  0.9599
13764TIP3    H262708   6.249   4.853   1.400 -0.7946 -1.1959  0.1561
13765TIP3   OH262709   3.743   2.519   2.568 -0.0954 -0.5651  0.1177
13765TIP3    H162710   3.780   2.499   2.654 -1.2628  1.0997  1.0542
13765TIP3    H262711   3.805   2.483   2.505  2.0518  0.3660  1.6555
13766TIP3   OH262712   1.845   4.894  14.919  0.0017 -0.7701 -0.1192
13766TIP3    H162713   1.803   4.955  14.858  0.6238  0.1456  0.3465
13766TIP3    H262714   1.857   4.814  14.868 -1.9175 -0.9236 -0.3830
13767TIP3   OH262715   4.782   0.616  13.068  0.0754  0.3276 -0.3160
13767TIP3    H162716   4.776   0.525  13.037 -0.2647  0.0684  0.4779
13767TIP3    H262717   4.777   0.669  12.989 -2.0233 -0.2661 -0.6287
13768TIP3   OH262718   2.678   1.759  17.175  0.4796  0.2300  0.4936
13768TIP3    H162719   2.700   1.831  17.116  0.1265 -0.3303 -0.3362
13768TIP3    H262720   2.628   1.800  17.245 -1.9148  0.4362 -1.2708
13769TIP3   OH262721   6.275   5.479   6.499  0.7394  0.3376  0.2584
13769TIP3    H162722   6.246   5.424   6.572  1.7645  0.5998  0.8708
13769TIP3    H262723   6.264   5.423   6.422  2.0480 -0.8555  0.9026
13770TIP3   OH262724   2.349   3.250  16.376  0.2015 -0.1734  0.8318
13770TIP3    H162725   2.328   3.228  16.467  0.0644 -0.4211  0.7410
13770TIP3    H262726   2.380   3.340  16.380  1.8658 -0.7491  1.3837
13771TIP3   OH262727   2.960   3.211   5.610 -0.4735 -0.2805  0.0787
13771TIP3    H162728   2.929   3.149   5.544  2.1023 -1.0220 -0.4605
13771TIP3    H262729   2.947   3.297   5.570  0.8440 -0.7137 -1.3251
13772TIP3   OH262730   0.437   1.512  13.511  0.0044 -0.3126 -0.5727
13772TIP3    H162731   0.501   1.444  13.533 -0.4284 -1.0005 -1.4121
13772TIP3    H262732   0.456   1.534  13.420  1.4443  2.1350  0.2830
13773TIP3   OH262733   5.330   0.397   1.756  0.8187  0.4603 -0.3528
13773TIP3    H162734   5.285   0.476   1.726  0.1051  0.3840  0.5008
13773TIP3    H262735   5.391   0.428   1.823  0.8813  0.3501 -0.3586
13774TIP3   OH262736   2.954   3.296  15.472 -0.2151 -0.3369 -0.0510
13774TIP3    H162737   2.926   3.233  15.538  0.7441  0.5910  1.2656
13774TIP3    H262738   2.895   3.281  15.398  0.1759 -2.9602  0.1236
13775TIP3   OH262739   3.977   2.167  10.753 -0.2591 -0.2996 -0.5533
13775TIP3    H162740   4.050   2.205  10.704  0.0137  0.2847  0.2939
13775TIP3    H262741   4.018   2.132  10.833 -1.2171  2.1949  1.0997
13776TIP3   OH262742   4.388   3.452   2.083 -0.4772 -0.1641 -0.1090
13776TIP3    H162743   4.417   3.505   2.010  0.2516 -0.6157 -0.1495
13776TIP3    H262744   4.311   3.406   2.051 -0.1365 -0.3892 -0.6039
13777TIP3   OH262745   5.131   5.244  16.288 -0.3235 -0.0340 -0.2495
13777TIP3    H162746   5.096   5.326  16.323 -0.2548 -0.8379  1.7316
13777TIP3    H262747   5.062   5.211  16.231 -0.9056  0.7017  0.0241
13778TIP3   OH262748   0.636   5.351   2.886  0.1749  0.2827 -0.4807
13778TIP3    H162749   0.690   5.388   2.956 -2.7295  0.4703  1.7663
13778TIP3    H262750   0.630   5.420   2.820  1.1909  0.9141  0.0910
13779TIP3   OH262751   0.852   4.426   0.819  0.0290 -0.0857  0.3705
13779TIP3    H162752   0.899   4.390   0.744  0.2661 -0.4932  0.7107
13779TIP3    H262753   0.893   4.510   0.836  1.1548 -0.7916  1.1576
13780TIP3   OH262754   0.836   1.742  12.970 -0.1776  0.0480  0.2740
13780TIP3    H162755   0.804   1.729  12.881 -1.7937 -2.5253  1.1464
13780TIP3    H262756   0.877   1.828  12.969 -0.0777  0.0368 -2.9597
13781TIP3   OH262757   4.838   2.461  15.375  0.4188  0.5571 -0.1677
13781TIP3    H162758   4.756   2.470  15.328 -0.3776 -1.1321  0.8380
13781TIP3    H262759   4.887   2.394  15.327  0.2912  0.0095  0.4570
13782TIP3   OH262760   3.081   1.253  14.146  0.3737  0.6422  0.6368
13782TIP3    H162761   3.030   1.333  14.139 -0.6569 -0.1534 -1.3793
13782TIP3    H262762   3.082   1.233  14.240 -1.9438  1.3614  0.8473
13783TIP3   OH262763   4.897   3.853  14.609  1.0901 -0.1955 -0.0985
13783TIP3    H162764   4.886   3.938  14.653  0.4565  0.0020 -0.6253
13783TIP3    H262765   4.845   3.792  14.661 -0.5790  0.2565 -1.1859
13784TIP3   OH262766   0.858   6.580   4.882 -0.4957  0.2675  0.5344
13784TIP3    H162767   0.816   6.546   4.961 -0.9627  1.9184  1.0185
13784TIP3    H262768   0.895   6.503   4.839 -1.5832 -0.8458  1.5635
13785TIP3   OH262769   1.488   4.508   2.066 -0.4936  0.0508  0.4159
13785TIP3    H162770   1.485   4.596   2.027  3.7285  0.8973  1.6252
13785TIP3    H262771   1.456   4.450   1.998  0.4377  2.1469 -1.9037
13786TIP3   OH262772   3.063   2.690  13.047  0.2661 -0.2684  0.4702
13786TIP3    H162773   3.057   2.722  13.137  0.7799  2.1633 -0.3208
13786TIP3    H262774   3.087   2.598  13.056 -3.6788 -1.1688  2.8857
13787TIP3   OH262775   3.224   2.331  12.777  0.0372  0.6396 -0.5580
13787TIP3    H162776   3.289   2.394  12.745  0.0587  1.2570  0.6903
13787TIP3    H262777   3.200   2.281  12.699 -0.7117  2.8304 -1.7791
13788TIP3   OH262778   4.652   6.152   4.411  0.3659 -0.0721  0.4826
13788TIP3    H162779   4.647   6.248   4.410 -1.1359 -0.0655  3.4011
13788TIP3    H262780   4.561   6.124   4.403  0.6715 -1.2225  1.0568
13789TIP3   OH262781   5.409   4.036   0.523 -0.4556  0.1754 -0.5834
13789TIP3    H162782   5.320   4.069   0.510 -0.6949 -0.5634 -0.8332
13789TIP3    H262783   5.402   3.979   0.599 -0.0707  0.5739 -0.2451
13790TIP3   OH262784   1.155   2.940   1.944 -0.3153 -0.3437 -0.2678
13790TIP3    H162785   1.233   2.886   1.951 -0.2792 -0.0614  1.7444
13790TIP3    H262786   1.127   2.954   2.034 -1.1318  1.8350 -0.8275
13791TIP3   OH262787   0.445   4.165  11.455  0.3003  0.2461 -0.2018
13791TIP3    H162788   0.495   4.123  11.385  1.4788  1.4245 -0.0918
13791TIP3    H262789   0.476   4.123  11.535  2.0645  1.8178 -0.0142
13792TIP3   OH262790   1.683   0.418   6.620  0.3188  0.2748  0.5691
13792TIP3    H162791   1.698   0.487   6.685  2.6563 -0.2898  0.6647
13792TIP3    H262792   1.677   0.338   6.671  0.0926  0.0831  0.2425
13793TIP3   OH262793   2.351   4.117   5.218  0.2619  0.3454  0.4182
13793TIP3    H162794   2.378   4.065   5.143  2.0981  0.0094  1.2789
13793TIP3    H262795   2.314   4.196   5.181  0.8826  0.0465 -0.8487
13794TIP3   OH262796   6.170   1.319  16.898  0.3791 -0.3623 -0.5099
13794TIP3    H162797   6.205   1.372  16.970 -2.0741  0.2163  0.2879
13794TIP3    H262798   6.193   1.368  16.819 -2.4701  2.3446  0.2459
13795TIP3   OH262799   4.870   5.009   5.341  0.0909  0.6735  0.5352
13795TIP3    H162800   4.941   4.967   5.293 -1.4655 -0.0443 -1.2091
13795TIP3    H262801   4.861   5.095   5.301 -0.7230  0.3553  0.0192
13796TIP3   OH262802   1.047   0.393  11.606 -0.4518 -0.3515  0.2412
13796TIP3    H162803   1.104   0.356  11.674  0.9862  0.6987 -0.3437
13796TIP3    H262804   0.959   0.388  11.643  0.0704 -1.6443  1.3477
13797TIP3   OH262805   4.761   2.945  14.573  0.1139  0.1594 -0.0884
13797TIP3    H162806   4.785   2.911  14.486  1.3760 -1.1030  0.7268
13797TIP3    H262807   4.817   3.022  14.585 -1.2049  1.2961 -1.0372
13798TIP3   OH262808   4.895   4.999  15.711 -0.2846 -0.0248  0.5128
13798TIP3    H162809   4.919   4.906  15.713  1.6923  0.4824  1.7818
13798TIP3    H262810   4.965   5.041  15.661 -0.7687  0.8959  0.5953
13799TIP3   OH262811   6.100   0.120  16.918  0.1850 -0.0795 -0.5311
13799TIP3    H162812   6.045   0.063  16.864  0.2868 -0.3230 -0.3822
13799TIP3    H262813   6.081   0.094  17.008  1.1691 -0.7650 -0.5033
13800TIP3   OH262814   2.020   3.094  14.890 -0.3880 -0.0690  0.0009
13800TIP3    H162815   1.992   3.045  14.813  0.8400  1.0956 -1.2216
13800TIP3    H262816   2.102   3.052  14.917  0.2211  0.7621 -0.5371
13801TIP3   OH262817   4.367   5.881   6.533  0.7376 -0.1852  0.3339
13801TIP3    H162818   4.429   5.851   6.467  0.0028  0.5332 -0.7119
13801TIP3    H262819   4.282   5.848   6.503  0.5358 -0.7021  1.4605
13802TIP3   OH262820   2.983   2.216  14.259 -0.2452 -0.3188  0.9869
13802TIP3    H162821   3.047   2.147  14.279 -0.0908  0.3634  2.9906
13802TIP3    H262822   3.010   2.250  14.174  2.3785  0.2975  2.0257
13803TIP3   OH262823   0.885   0.617   3.455 -0.1023 -0.0841  0.1930
13803TIP3    H162824   0.883   0.612   3.551  0.7122 -0.0932  0.2171
13803TIP3    H262825   0.795   0.637   3.430 -0.6365 -1.5534  0.8701
13804TIP3   OH262826   5.878   4.628   1.609 -0.2472 -0.5576 -0.1886
13804TIP3    H162827   5.893   4.637   1.515  0.8103  0.7547  0.0913
13804TIP3    H262828   5.811   4.692   1.630  0.4148  0.0365  0.1537
13805TIP3   OH262829   4.795   0.175   5.374  0.1667 -0.4559  0.0029
13805TIP3    H162830   4.820   0.101   5.320  1.5138 -0.9383  1.2609
13805TIP3    H262831   4.814   0.252   5.321  1.9311 -0.9053 -0.0370
13806TIP3   OH262832   3.043   4.988   0.147  0.4255  0.3965 -0.2488
13806TIP3    H162833   3.007   4.901   0.167 -1.7855  0.9728 -1.6125
13806TIP3    H262834   3.064   5.025   0.232  2.6356 -1.9609  0.3183
13807TIP3   OH262835   6.534   4.829  12.774  0.0519 -0.1424  0.1187
13807TIP3    H162836   6.528   4.788  12.861  0.1455 -1.0599 -0.3003
13807TIP3    H262837   6.625   4.858  12.767 -1.0440  4.2364  2.2197
13808TIP3   OH262838   1.641   0.785   1.273 -0.2588 -0.0468  0.0864
13808TIP3    H162839   1.547   0.796   1.254  0.2101  2.6758 -0.9273
13808TIP3    H262840   1.659   0.851   1.340  1.2082  0.3566 -0.6955
13809TIP3   OH262841   6.190   0.609   3.854  0.3152 -0.2543  0.1656
13809TIP3    H162842   6.204   0.641   3.765 -0.4191  0.5905  0.3488
13809TIP3    H262843   6.226   0.520   3.854 -2.7846 -1.5789 -1.9480
13810TIP3   OH262844   3.507   3.917   2.349  0.0343 -0.3710  0.2579
13810TIP3    H162845   3.590   3.934   2.305 -0.5060  0.2585 -0.5468
13810TIP3    H262846   3.498   3.988   2.412  0.3340 -0.7071  0.6776
13811TIP3   OH262847   1.561   3.175   3.443 -0.4138  0.0782  0.6867
13811TIP3    H162848   1.522   3.095   3.478 -0.4576  0.3155  1.1815
13811TIP3    H262849   1.651   3.150   3.421  0.3382  0.5056  3.1222
13812TIP3   OH262850   2.105   6.144  12.419 -0.2067 -0.3576  0.3408
13812TIP3    H162851   2.060   6.060  12.410  0.8041 -0.8106 -0.5146
13812TIP3    H262852   2.058   6.203  12.360  0.2034 -0.7893 -0.4256
13813TIP3   OH262853   4.565   2.930   2.233  0.2202  0.4760 -0.2092
13813TIP3    H162854   4.590   2.839   2.250 -1.1116 -0.1392 -1.4430
13813TIP3    H262855   4.648   2.979   2.237  0.6579 -0.4040  2.7196
13814TIP3   OH262856   0.260   6.065  11.456 -0.6082 -0.3608  0.6359
13814TIP3    H162857   0.351   6.069  11.486 -0.3598 -0.3652 -0.1206
13814TIP3    H262858   0.231   6.156  11.457 -0.5338 -0.3371  0.6713
13815TIP3   OH262859   2.400   1.925   5.103  0.3754  0.1640  0.2936
13815TIP3    H162860   2.315   1.893   5.074 -0.0352  2.4261 -1.1758
13815TIP3    H262861   2.458   1.850   5.095 -0.8862 -0.6777 -1.3610
13816TIP3   OH262862   2.857   4.227   1.710  0.3816 -0.4727  0.1159
13816TIP3    H162863   2.861   4.202   1.802  1.1041  0.8279  0.4493
13816TIP3    H262864   2.793   4.167   1.672  1.2115 -2.0576  1.1223
13817TIP3   OH262865   3.460   6.501  11.591 -0.1700 -0.1908 -0.3666
13817TIP3    H162866   3.541   6.550  11.582 -1.0620  1.4104  0.2543
13817TIP3    H262867   3.436   6.510  11.683 -1.1072 -0.5800 -0.5682
13818TIP3   OH262868   6.145   4.630  15.609 -0.3523  0.2117  0.1104
13818TIP3    H162869   6.234   4.638  15.576 -0.4973  1.6351  0.0478
13818TIP3    H262870   6.090   4.628  15.530 -0.2706 -2.2951  0.0897
13819TIP3   OH262871   5.014   4.380  16.403 -0.0454  0.3352  0.3866
13819TIP3    H162872   4.920   4.388  16.422  0.0926  0.7091  0.9335
13819TIP3    H262873   5.055   4.376  16.489  0.5920  1.9543  0.1720
13820TIP3   OH262874   3.081   2.692  17.081  0.2253  0.6620  0.4292
13820TIP3    H162875   3.099   2.679  17.174 -1.3241 -0.3844  0.5994
13820TIP3    H262876   3.006   2.635  17.063  0.0805  1.3803 -1.3020
13821TIP3   OH262877   0.091   4.775  13.086  0.3035 -0.4809  0.0729
13821TIP3    H162878   0.145   4.696  13.090  2.1735  0.7576  0.1378
13821TIP3    H262879   0.070   4.795  13.177 -0.6460 -1.2175  0.0158
13822TIP3   OH262880   4.067   0.838  16.852 -0.2104 -0.3734 -0.3624
13822TIP3    H162881   4.137   0.831  16.786  0.2882 -1.0357  0.2254
13822TIP3    H262882   4.038   0.928  16.846  0.0725 -0.3364 -1.2571
13823TIP3   OH262883   2.080   1.492   4.792  0.0417  0.3840  0.3543
13823TIP3    H162884   2.148   1.431   4.822  0.7832  1.5412  1.0582
13823TIP3    H262885   1.999   1.441   4.796  0.5314 -0.3089  1.7080
13824TIP3   OH262886   0.433   6.520  16.057  0.0523  0.5061  0.0479
13824TIP3    H162887   0.410   6.444  16.004 -0.4050  0.9473 -0.3810
13824TIP3    H262888   0.354   6.539  16.107 -0.4473  1.8541 -1.2257
13825TIP3   OH262889   2.993   3.996   0.650  0.1618  0.4813 -0.1687
13825TIP3    H162890   3.008   3.908   0.615  1.3592  0.0038  1.4595
13825TIP3    H262891   3.078   4.040   0.640 -0.1391  1.1013 -0.0126
13826TIP3   OH262892   4.437   2.256  15.607  0.2586  0.1678  0.5867
13826TIP3    H162893   4.514   2.307  15.632  0.1061  0.5840  0.1975
13826TIP3    H262894   4.457   2.223  15.519  1.1926 -2.0716  1.6010
13827TIP3   OH262895   1.926   3.713   1.879 -0.2239  0.5629 -0.2795
13827TIP3    H162896   2.021   3.725   1.887 -0.1369 -0.4176  0.1916
13827TIP3    H262897   1.898   3.688   1.967 -1.1816  2.5471  0.0102
13828TIP3   OH262898   3.554   6.724  15.217 -0.2546 -0.1061  0.7435
13828TIP3    H162899   3.513   6.707  15.132  0.8872 -0.0752  0.1779
13828TIP3    H262900   3.489   6.695  15.281 -1.0704 -0.2532 -0.1406
13829TIP3   OH262901   1.769   1.377   1.721 -0.3061 -0.1891  0.3156
13829TIP3    H162902   1.739   1.457   1.678  0.8395  0.2116  0.2560
13829TIP3    H262903   1.696   1.317   1.712 -1.9809  1.5043  2.1349
13830TIP3   OH262904   6.331   1.593  14.978  0.1136  0.3450  0.5861
13830TIP3    H162905   6.252   1.647  14.976 -0.1668 -0.0919 -1.5489
13830TIP3    H262906   6.391   1.637  14.918  0.0711 -1.4259 -0.7652
13831TIP3   OH262907   5.190   4.347   1.983 -0.3070  0.0239  0.1228
13831TIP3    H162908   5.106   4.304   1.999  1.0691 -2.3088  1.3410
13831TIP3    H262909   5.230   4.354   2.070  0.8376  0.9432 -0.4596
13832TIP3   OH262910   2.398   1.410   4.379 -0.7519  0.5581 -0.5732
13832TIP3    H162911   2.304   1.415   4.364 -0.7279  1.2191 -0.5035
13832TIP3    H262912   2.435   1.397   4.291 -0.8404  1.2379 -0.7111
13833TIP3   OH262913   4.734   5.305  14.525 -0.0054  0.0655  0.1305
13833TIP3    H162914   4.725   5.336  14.615 -1.9157 -1.6256  0.5470
13833TIP3    H262915   4.799   5.235  14.530 -0.6046 -0.4827  0.3223
13834TIP3   OH262916   2.575   2.716   3.154  0.2591 -0.4114 -0.6969
13834TIP3    H162917   2.625   2.744   3.076  0.9950 -0.2695 -0.1838
13834TIP3    H262918   2.495   2.678   3.119 -0.2883  1.3847 -1.4772
13835TIP3   OH262919   1.807   0.031  11.903 -0.1748  0.0017 -0.2208
13835TIP3    H162920   1.849  -0.018  11.832  0.0266 -1.4158  0.8378
13835TIP3    H262921   1.732   0.074  11.862 -0.4228 -1.3027 -1.1782
13836TIP3   OH262922   0.243   2.684   3.579  0.1253 -0.3278  0.0928
13836TIP3    H162923   0.301   2.718   3.511 -0.1608 -0.5585 -0.2657
13836TIP3    H262924   0.270   2.730   3.659 -0.2042  0.6920 -0.3736
13837TIP3   OH262925   5.758   6.593  10.503  0.3070 -0.3621 -0.1693
13837TIP3    H162926   5.842   6.553  10.482 -0.6312 -2.6743  0.3173
13837TIP3    H262927   5.780   6.682  10.530  2.4455 -0.4476 -1.4637
13838TIP3   OH262928   4.500   3.151  14.298 -0.0432 -0.0325  0.1034
13838TIP3    H162929   4.522   3.204  14.375  0.0883  0.6159 -0.3776
13838TIP3    H262930   4.584   3.133  14.256 -0.0293 -1.1101  0.5744
13839TIP3   OH262931   3.395   3.337  15.689 -0.6304  0.5267 -0.7439
13839TIP3    H162932   3.352   3.421  15.710 -1.2878  0.0158 -0.0199
13839TIP3    H262933   3.488   3.353  15.709 -0.9504  0.6719  0.7250
13840TIP3   OH262934   4.452   4.082  15.799  0.2568  0.0042  0.3463
13840TIP3    H162935   4.431   4.023  15.727 -0.1719 -0.3975  0.8018
13840TIP3    H262936   4.489   4.159  15.757  0.0366 -0.2450 -0.3000
13841TIP3   OH262937   4.462   0.543   6.228 -0.4811  0.4163 -0.2334
13841TIP3    H162938   4.524   0.486   6.182  1.1166  3.3917 -1.9308
13841TIP3    H262939   4.468   0.516   6.320  1.3375 -1.1695 -0.7807
13842TIP3   OH262940   3.719   4.636  14.420 -0.0914  0.4865 -0.2667
13842TIP3    H162941   3.735   4.714  14.366  0.4715  0.1219 -0.6351
13842TIP3    H262942   3.650   4.663  14.481  0.2124  1.3242 -0.2842
13843TIP3   OH262943   1.164   0.950  15.634  0.2752  0.4199  0.2155
13843TIP3    H162944   1.212   1.007  15.575  1.7867 -0.7532  0.2671
13843TIP3    H262945   1.128   0.882  15.578 -0.0292  0.4538  0.3716
13844TIP3   OH262946   0.817   1.869  11.831  0.1540  0.4658 -0.6962
13844TIP3    H162947   0.852   1.899  11.748 -0.9093  1.7617 -0.6838
13844TIP3    H262948   0.734   1.827  11.809  0.9477 -1.2751 -0.5447
13845TIP3   OH262949   0.329   0.400   5.153 -0.9854 -0.3846  0.0265
13845TIP3    H162950   0.395   0.331   5.157 -3.1512 -2.4755  0.2780
13845TIP3    H262951   0.314   0.425   5.245  1.1696  1.8301 -0.1600
13846TIP3   OH262952   5.910   4.294  15.557 -0.0093 -0.0608  0.2578
13846TIP3    H162953   5.982   4.253  15.604  0.3069  0.4518  0.2310
13846TIP3    H262954   5.842   4.307  15.624 -0.1608 -0.7422  0.2339
13847TIP3   OH262955   6.709   2.679   0.320  0.3764 -0.4698 -0.4614
13847TIP3    H162956   6.692   2.594   0.278 -0.4092 -0.1115 -0.8660
13847TIP3    H262957   6.688   2.744   0.253  0.2116  0.0702  0.1089
13848TIP3   OH262958   5.407   4.130   1.604 -0.3293  0.1505  0.0802
13848TIP3    H162959   5.331   4.173   1.565 -1.2475  0.3367  2.0066
13848TIP3    H262960   5.392   4.137   1.699  1.5951 -0.6959  0.4629
13849TIP3   OH262961   0.910   5.198   0.370 -0.0508 -0.7137 -0.1048
13849TIP3    H162962   0.944   5.250   0.443  1.8292 -2.7882  0.5536
13849TIP3    H262963   0.817   5.218   0.368  0.3801  1.5828  1.0195
13850TIP3   OH262964   0.457   1.109   0.962  0.1789 -0.2734  0.5463
13850TIP3    H162965   0.364   1.112   0.939  0.4903  1.0841 -0.6121
13850TIP3    H262966   0.478   1.198   0.989  0.9770 -0.7477  1.5143
13851TIP3   OH262967   5.033   4.429  12.046  0.4181 -0.3991  0.7572
13851TIP3    H162968   4.960   4.377  12.080 -0.1566 -0.4580 -0.5203
13851TIP3    H262969   5.041   4.503  12.106 -2.0584  0.7376 -0.2404
13852TIP3   OH262970   1.754   3.500  15.665 -0.0682 -0.6322  0.1535
13852TIP3    H162971   1.833   3.482  15.715  1.4456  0.5634 -1.7058
13852TIP3    H262972   1.785   3.510  15.575 -2.0687  1.6917 -0.3375
13853TIP3   OH262973   2.588   1.899  12.984  0.2445  0.1647 -0.2382
13853TIP3    H162974   2.675   1.873  12.955 -0.0832  0.1799 -1.2271
13853TIP3    H262975   2.604   1.972  13.044  0.8500  0.7590 -1.1227
13854TIP3   OH262976   3.764   1.903  11.242 -0.7364  0.4136 -0.2353
13854TIP3    H162977   3.688   1.875  11.190 -1.8786  1.4865  0.8380
13854TIP3    H262978   3.789   1.987  11.205  1.0593 -0.7457 -1.7372
13855TIP3   OH262979   3.542   1.648  11.128  0.1265  0.4056  0.1886
13855TIP3    H162980   3.572   1.712  11.063  1.6349 -0.8097 -0.3323
13855TIP3    H262981   3.532   1.566  11.079 -1.8124  0.2227  0.8466
13856TIP3   OH262982   4.867   3.834  12.062 -0.3844 -0.0158 -0.2626
13856TIP3    H162983   4.917   3.764  12.104 -2.6073 -1.0159  0.7717
13856TIP3    H262984   4.911   3.847  11.977  2.3938  0.0632  1.1227
13857TIP3   OH262985   1.788   1.963  12.768 -0.0200  0.2612  0.6946
13857TIP3    H162986   1.760   2.043  12.725  0.9655 -0.1611 -0.7859
13857TIP3    H262987   1.874   1.944  12.729  0.7123 -0.3595  2.5639
13858TIP3   OH262988   2.831   3.973  11.513  0.0133  0.3886  0.4433
13858TIP3    H162989   2.914   3.926  11.502 -0.6870 -0.5914 -0.7712
13858TIP3    H262990   2.856   4.065  11.518  0.9906  0.3083 -2.3556
13859TIP3   OH262991   4.103   0.676  16.090  0.4224 -0.5816 -0.1004
13859TIP3    H162992   4.116   0.647  16.000  1.4986 -2.1004  0.5191
13859TIP3    H262993   4.097   0.771  16.084  0.8070 -0.6431 -1.7353
13860TIP3   OH262994   5.705   3.719   1.430  0.5249 -0.5968 -0.3853
13860TIP3    H162995   5.631   3.780   1.423 -0.7956 -2.1145  0.0448
13860TIP3    H262996   5.719   3.688   1.341 -0.2508 -1.3110 -0.2712
13861TIP3   OH262997   0.645   3.326  17.229  0.3668 -0.3085  0.6138
13861TIP3    H162998   0.687   3.301  17.311  0.4202 -0.3919  0.5587
13861TIP3    H262999   0.565   3.274  17.227  0.0453  0.1654  0.9206
13862TIP3   OH263000   3.785   0.370  13.466 -1.0117  0.4905  0.0634
13862TIP3    H163001   3.834   0.403  13.541  3.0548 -0.1550 -2.1408
13862TIP3    H263002   3.815   0.424  13.392 -1.6250 -1.7064 -1.8504
13863TIP3   OH263003   4.058   0.112  15.782  0.2560  0.0783  0.3235
13863TIP3    H163004   4.001   0.060  15.725 -0.9436  0.7020  0.9209
13863TIP3    H263005   4.003   0.186  15.808  0.8768 -0.0736  2.0824
13864TIP3   OH263006   1.207   2.601   5.458  0.4829 -0.0882  0.0904
13864TIP3    H163007   1.183   2.612   5.550 -1.0775  0.2203 -0.3431
13864TIP3    H263008   1.291   2.646   5.450  0.8310 -0.4783  1.4510
13865TIP3   OH263009   2.831   5.903  11.203 -0.3116  0.0970 -0.5519
13865TIP3    H163010   2.920   5.907  11.239 -0.5896  0.9709  0.0605
13865TIP3    H263011   2.842   5.932  11.112 -0.0895  1.0297 -0.2371
13866TIP3   OH263012   2.023   1.206   0.585 -0.6082  0.0157 -0.6334
13866TIP3    H163013   1.969   1.257   0.524  0.4202  0.2498 -1.3596
13866TIP3    H263014   2.110   1.208   0.547 -0.1810 -0.7679  0.2880
13867TIP3   OH263015   3.531   2.368  14.156 -1.1789 -0.6261 -0.2458
13867TIP3    H163016   3.577   2.318  14.089 -1.5530 -1.3473  0.0283
13867TIP3    H263017   3.542   2.459  14.130 -0.8876 -0.8751 -1.0020
13868TIP3   OH263018   3.983   4.449  12.399  0.3436 -0.3811 -0.6392
13868TIP3    H163019   3.899   4.489  12.377 -0.4421 -0.6531  1.7677
13868TIP3    H263020   4.007   4.399  12.321 -1.7143 -0.2596 -1.3629
13869TIP3   OH263021   1.775   2.139  12.970 -0.0754 -0.0407 -0.4153
13869TIP3    H163022   1.826   2.209  12.929  0.0537  0.2183  0.1835
13869TIP3    H263023   1.782   2.066  12.908 -1.4904  0.9530 -1.7860
13870TIP3   OH263024   6.263   4.135   0.217  0.2315 -0.1392 -0.0896
13870TIP3    H163025   6.206   4.059   0.215  1.5619 -1.1341 -1.0346
13870TIP3    H263026   6.339   4.107   0.268  0.5748  0.6696 -0.1411
13871TIP3   OH263027   5.804   5.932  11.571  0.0106  0.4274  0.8621
13871TIP3    H163028   5.826   5.859  11.513 -1.9407  0.0997  0.5077
13871TIP3    H263029   5.833   6.010  11.523 -0.0167  0.0428  0.2152
13872TIP3   OH263030   2.666   3.985  15.634 -0.1733 -0.5036  0.4211
13872TIP3    H163031   2.610   4.002  15.710 -0.7011  2.0612 -0.4998
13872TIP3    H263032   2.604   3.959  15.565  0.0423 -0.2742  0.1415
13873TIP3   OH263033   4.139   3.962  12.247  0.0254 -0.0508  0.5738
13873TIP3    H163034   4.217   3.975  12.300  0.7188  1.3775 -0.7650
13873TIP3    H263035   4.082   4.036  12.270 -1.4579 -1.6682  2.3715
13874TIP3   OH263036   2.761   4.772  12.655  0.6070 -0.1685 -0.0387
13874TIP3    H163037   2.689   4.779  12.718  1.2985 -0.7774  0.8395
13874TIP3    H263038   2.814   4.699  12.688  0.7688 -0.7320 -1.5451
13875TIP3   OH263039   5.828   3.079  16.754 -0.3936  0.1064 -0.3543
13875TIP3    H163040   5.750   3.125  16.723 -0.0074  0.7089 -0.4358
13875TIP3    H263041   5.840   3.008  16.691 -1.3987 -0.5467  0.1816
13876TIP3   OH263042   6.073   1.048   0.862  0.5513  0.2779  0.1577
13876TIP3    H163043   6.159   1.083   0.887  1.2348 -1.1429 -0.1913
13876TIP3    H263044   6.040   1.109   0.796  0.5789  1.7203  1.4497
13877TIP3   OH263045   2.078   3.433  11.803 -0.4105 -0.0203 -0.2990
13877TIP3    H163046   2.015   3.373  11.763  1.8679 -1.9223 -1.1168
13877TIP3    H263047   2.051   3.520  11.772 -0.6945 -1.1289 -3.2525
13878TIP3   OH263048   2.303   1.712   6.062 -0.1710  0.0168 -0.2636
13878TIP3    H163049   2.230   1.649   6.065 -0.3085  0.0944 -1.5179
13878TIP3    H263050   2.287   1.770   6.136 -2.4206  1.1145 -1.5278
13879TIP3   OH263051   1.875   6.581   4.991 -0.1581 -0.0251 -0.2695
13879TIP3    H163052   1.875   6.492   5.026  0.1879 -0.9456 -2.5193
13879TIP3    H263053   1.966   6.597   4.967 -0.0590  1.2799  0.9483
13880TIP3   OH263054   5.114   1.295   3.641 -0.8466 -0.0116  0.5197
13880TIP3    H163055   5.148   1.213   3.676  0.4437  0.3247  0.0789
13880TIP3    H263056   5.181   1.360   3.661 -1.5977  0.8346  0.3600
13881TIP3   OH263057   2.898   1.739   3.869  0.1469  0.3788 -0.2182
13881TIP3    H163058   2.874   1.802   3.801  0.4799 -0.7228 -1.3815
13881TIP3    H263059   2.947   1.791   3.933 -2.0692  1.8786  0.3228
13882TIP3   OH263060   3.332   4.431   2.219  0.0675  0.3239 -0.1988
13882TIP3    H163061   3.351   4.428   2.126 -2.5121  2.6748 -0.8600
13882TIP3    H263062   3.247   4.474   2.225 -0.2574 -0.6480  3.1866
13883TIP3   OH263063   4.792   3.697  16.938  0.3022 -0.3031 -0.2087
13883TIP3    H163064   4.740   3.681  17.017  0.0187  0.5183 -0.2168
13883TIP3    H263065   4.782   3.791  16.923  2.2615 -0.0373  0.1151
13884TIP3   OH263066   2.330   2.720  15.303 -0.5983 -0.5668 -0.5542
13884TIP3    H163067   2.264   2.783  15.275  0.3521  0.0377 -1.4746
13884TIP3    H263068   2.412   2.753  15.266  0.3605 -0.8612  1.2711
13885TIP3   OH263069   4.613   0.705   5.602 -0.0777  0.8498 -0.9426
13885TIP3    H163070   4.612   0.679   5.509  0.5646  2.6832 -1.4762
13885TIP3    H263071   4.639   0.625   5.648 -0.1311 -0.0135 -2.3609
13886TIP3   OH263072   2.365   5.950   2.264  0.1963 -0.0279 -0.5399
13886TIP3    H163073   2.379   5.890   2.190 -0.1520 -2.3686  1.2228
13886TIP3    H263074   2.276   5.932   2.294  0.9792 -0.4956  1.6181
13887TIP3   OH263075   4.468   6.092   0.167  0.2547  0.6163  0.2917
13887TIP3    H163076   4.454   6.088   0.072  1.0307  0.9926  0.1584
13887TIP3    H263077   4.492   6.183   0.184 -0.5676  0.7123  0.9483
13888TIP3   OH263078   5.675   2.405  15.946 -0.3366  0.3398  0.1808
13888TIP3    H163079   5.769   2.402  15.929 -0.2535  0.0932  0.6857
13888TIP3    H263080   5.659   2.332  16.006 -0.9186  0.1069 -0.2463
13889TIP3   OH263081   4.279   5.610   6.689  0.3993  0.1466 -0.3774
13889TIP3    H163082   4.273   5.531   6.634  1.0435 -0.1676 -0.0018
13889TIP3    H263083   4.342   5.587   6.757 -0.6560  0.4105  0.7148
13890TIP3   OH263084   3.352   1.703   0.316  0.1053  0.2242  0.3917
13890TIP3    H163085   3.305   1.786   0.303 -1.9014 -0.7757  1.0010
13890TIP3    H263086   3.395   1.712   0.401 -0.1977  0.6090  0.5065
13891TIP3   OH263087   4.087   3.668   6.544 -0.3171  0.4045  0.0704
13891TIP3    H163088   4.018   3.623   6.592 -0.2149 -0.6134 -0.7352
13891TIP3    H263089   4.061   3.662   6.452  1.0264 -0.3329 -0.2804
13892TIP3   OH263090   1.053   4.926  17.039  0.5838  0.0965  0.2066
13892TIP3    H163091   1.023   4.839  17.068  3.1067 -0.5641  0.8980
13892TIP3    H263092   1.029   4.984  17.111 -0.5299 -0.1168  0.0252
13893TIP3   OH263093   3.890   5.098  11.587 -0.7115 -0.2872 -0.3275
13893TIP3    H163094   3.954   5.169  11.596 -2.3423  1.2877 -0.8334
13893TIP3    H263095   3.884   5.083  11.492 -1.7654  0.2209 -0.3473
13894TIP3   OH263096   2.847   1.144  12.905  0.0698 -0.2311 -0.2300
13894TIP3    H163097   2.833   1.049  12.904 -0.8850 -0.1368  1.3780
13894TIP3    H263098   2.769   1.180  12.863  0.3797 -0.1496 -0.7371
13895TIP3   OH263099   5.346   0.580   4.388 -0.4545  0.5619  0.3013
13895TIP3    H163100   5.441   0.592   4.386 -0.5353  1.2916  0.5844
13895TIP3    H263101   5.326   0.567   4.481 -0.6665  0.7574  0.2846
13896TIP3   OH263102   6.345   4.230  16.573 -0.0986  0.0933 -0.2598
13896TIP3    H163103   6.264   4.239  16.622  1.7963 -0.5461  3.1061
13896TIP3    H263104   6.359   4.135  16.567 -0.2169  0.1571 -1.9834
13897TIP3   OH263105   0.913   5.759   3.641 -0.2393 -0.3730  0.2138
13897TIP3    H163106   0.909   5.854   3.640  0.7215 -0.3063  1.5133
13897TIP3    H263107   0.826   5.731   3.614 -0.7366  0.8694  0.5106
13898TIP3   OH263108   0.661   5.145   1.891  0.0704 -0.5612  0.0494
13898TIP3    H163109   0.671   5.101   1.806 -1.4847 -0.7426 -0.0542
13898TIP3    H263110   0.568   5.168   1.895  0.1750 -0.3514  1.6069
13899TIP3   OH263111   6.485   4.319  11.494  0.3306  0.0252 -0.6067
13899TIP3    H163112   6.538   4.395  11.471 -0.1540  0.6208  0.2376
13899TIP3    H263113   6.547   4.246  11.498  0.9959  0.6198 -0.1574
13900TIP3   OH263114   6.615   0.622  13.626  0.0924 -0.3431  0.5329
13900TIP3    H163115   6.692   0.635  13.681 -0.3746  1.7033  0.7426
13900TIP3    H263116   6.594   0.710  13.593 -1.6892 -0.9914 -0.1212
13901TIP3   OH263117   1.086   3.672  15.121  0.2580  0.0179  0.3510
13901TIP3    H163118   1.179   3.671  15.098  0.2487  0.7747  0.2910
13901TIP3    H263119   1.058   3.761  15.103 -0.6546 -0.3964 -0.3183
13902TIP3   OH263120   4.238   4.891   5.586 -0.1544  0.0125  0.9848
13902TIP3    H163121   4.320   4.940   5.583 -0.5127  0.6527  1.4658
13902TIP3    H263122   4.262   4.803   5.614  0.6864 -0.4891 -1.2081
13903TIP3   OH263123   4.917   5.603   3.249 -0.0566 -0.7831 -0.3991
13903TIP3    H163124   4.897   5.511   3.261  0.8438 -0.8883  0.3818
13903TIP3    H263125   5.013   5.608   3.253  0.0341 -0.1056 -2.5912
13904TIP3   OH263126   2.972   1.719  12.107 -0.0987  0.0108 -0.2430
13904TIP3    H163127   2.950   1.651  12.171  0.5387 -1.1305 -1.2301
13904TIP3    H263128   2.921   1.796  12.135 -0.0103 -0.5497  1.4803
13905TIP3   OH263129   0.838   3.477   3.320 -0.1683 -0.0810 -0.3754
13905TIP3    H163130   0.819   3.406   3.380 -0.6520  1.6493  1.5747
13905TIP3    H263131   0.850   3.435   3.235 -0.2081 -2.4817  0.7887
13906TIP3   OH263132   4.680   2.336   2.466 -0.2384 -0.5359  0.1468
13906TIP3    H163133   4.634   2.252   2.471 -1.2804 -0.0402 -0.7734
13906TIP3    H263134   4.613   2.398   2.438  0.9306  0.2500 -1.0045
13907TIP3   OH263135   5.026   3.684  14.048  0.6160 -0.5827  0.3189
13907TIP3    H163136   4.938   3.713  14.069  0.1638 -1.8060  0.1744
13907TIP3    H263137   5.025   3.671  13.953  0.2968 -2.6418  0.5705
13908TIP3   OH263138   6.445   3.799  11.284 -0.5528  0.6222 -0.5150
13908TIP3    H163139   6.540   3.802  11.298 -0.3809  3.8321 -2.0546
13908TIP3    H263140   6.428   3.868  11.220 -3.7358 -1.0494 -1.5536
13909TIP3   OH263141   1.329   1.102   1.718  0.4412  0.2344  0.2231
13909TIP3    H163142   1.329   1.023   1.664  0.1869  0.2500  0.2002
13909TIP3    H263143   1.419   1.134   1.713  1.2633 -1.6558  2.6040
13910TIP3   OH263144   5.770   3.552   0.402  0.9181 -0.3569  0.3927
13910TIP3    H163145   5.834   3.482   0.388  0.5557 -0.6326  0.1384
13910TIP3    H263146   5.700   3.511   0.452  0.3566 -0.3627 -0.3928
13911TIP3   OH263147   0.135   5.770  16.806 -0.2518  0.6205  0.1652
13911TIP3    H163148   0.151   5.771  16.711 -1.2097  0.1724 -0.0124
13911TIP3    H263149   0.087   5.688  16.821  0.3330  0.4471  1.1177
13912TIP3   OH263150   0.269   3.540  14.856  0.4429  1.0010 -0.0490
13912TIP3    H163151   0.223   3.624  14.850 -0.8062  0.3559  0.1376
13912TIP3    H263152   0.307   3.528  14.769  1.0708  2.0023  0.0817
13913TIP3   OH263153   3.508   2.278  12.302 -0.0941 -0.1169 -0.5615
13913TIP3    H163154   3.540   2.364  12.278  2.0059 -0.9564 -0.8789
13913TIP3    H263155   3.417   2.292  12.328  0.4152  2.2701 -0.0183
13914TIP3   OH263156   0.879   5.552  14.646  0.0576 -0.7746 -0.1771
13914TIP3    H163157   0.870   5.487  14.576  0.9257  0.1568 -1.1835
13914TIP3    H263158   0.804   5.536  14.703 -0.3280 -1.9616 -0.9857
13915TIP3   OH263159   1.846   6.021   0.892  0.1047 -0.2117 -0.4200
13915TIP3    H163160   1.789   6.084   0.848 -0.1466  0.7455  1.2609
13915TIP3    H263161   1.912   6.074   0.936  1.3124 -1.2411 -0.9377
13916TIP3   OH263162   3.696   3.462  11.436  0.2721  0.0019  0.0706
13916TIP3    H163163   3.724   3.390  11.380  1.1706  0.7835 -0.5029
13916TIP3    H263164   3.661   3.527  11.376 -0.8102 -0.0627  0.6102
13917TIP3   OH263165   0.520   2.396   1.884 -0.0410 -0.7635 -0.0200
13917TIP3    H163166   0.563   2.407   1.799 -3.1949  0.1411 -1.5713
13917TIP3    H263167   0.438   2.443   1.875 -1.7396 -3.1058  2.5848
13918TIP3   OH263168   6.681   1.513   2.486  0.3044  0.1916 -0.6062
13918TIP3    H163169   6.592   1.546   2.476 -0.3138 -1.3357 -0.2851
13918TIP3    H263170   6.737   1.586   2.460 -1.0063  1.6442  0.5690
13919TIP3   OH263171   3.541   4.875   3.685 -0.2068 -0.3346 -0.2874
13919TIP3    H163172   3.559   4.883   3.779  1.3886 -3.6005 -0.2510
13919TIP3    H263173   3.627   4.882   3.643 -0.6988 -0.6422 -1.3708
13920TIP3   OH263174   0.249   6.224   5.097  0.5281 -0.6647 -0.1323
13920TIP3    H163175   0.217   6.139   5.124 -1.7719  0.8702  2.1858
13920TIP3    H263176   0.321   6.243   5.158  1.3392 -1.1269 -0.9362
13921TIP3   OH263177   0.466   1.359   3.224  0.1773  1.0016 -0.5283
13921TIP3    H163178   0.386   1.307   3.214  0.5066  0.2621  0.5801
13921TIP3    H263179   0.458   1.400   3.309  2.3116 -1.4845  0.9760
13922TIP3   OH263180   4.442   2.554  15.767 -0.3413  0.1968 -0.0952
13922TIP3    H163181   4.456   2.479  15.824  0.6356  0.0367 -0.5300
13922TIP3    H263182   4.389   2.521  15.694 -0.4618  0.0836  0.0459
13923TIP3   OH263183   3.509   0.464   4.473 -0.1034  0.2652 -0.3495
13923TIP3    H163184   3.563   0.476   4.551 -0.7547  1.0016 -0.0007
13923TIP3    H263185   3.478   0.374   4.479 -0.0677  0.2855  0.1932
13924TIP3   OH263186   0.073   3.892  13.455 -0.0686  0.0877  0.4875
13924TIP3    H163187   0.024   3.953  13.399 -1.0734 -0.5643  0.6412
13924TIP3    H263188   0.147   3.864  13.401  0.4433  1.4734  0.4318
13925TIP3   OH263189   3.684   5.140  16.234 -0.1937  0.3386  0.4432
13925TIP3    H163190   3.633   5.064  16.205  2.0453 -1.4744  1.1407
13925TIP3    H263191   3.620   5.196  16.279 -1.8985 -1.0600 -0.1786
13926TIP3   OH263192   0.176   5.402   3.613  0.5919 -0.0194  0.2807
13926TIP3    H163193   0.165   5.307   3.613  0.5354 -0.0135 -0.3374
13926TIP3    H263194   0.147   5.430   3.700  0.2336 -0.5242  0.3235
13927TIP3   OH263195   1.034   0.934  12.681  0.0051 -0.6290 -0.1519
13927TIP3    H163196   0.967   0.870  12.705  0.5114 -0.6657  1.2362
13927TIP3    H263197   1.044   0.989  12.759 -0.0495  0.8190 -1.1367
13928TIP3   OH263198   5.853   1.629  12.420  0.0884 -0.2886  0.0817
13928TIP3    H163199   5.792   1.614  12.348 -1.1435  0.7103  0.8907
13928TIP3    H263200   5.894   1.544  12.435 -0.7971 -0.8699 -0.7646
13929TIP3   OH263201   1.532   6.347   3.172 -0.2408  0.2156 -0.0443
13929TIP3    H163202   1.613   6.369   3.125 -0.3130 -1.1040 -0.8130
13929TIP3    H263203   1.463   6.386   3.118 -0.2110  0.1565 -0.1257
13930TIP3   OH263204   3.193   2.359   4.947 -0.0716 -0.6358 -0.6871
13930TIP3    H163205   3.263   2.399   4.999 -1.5129  0.5651  0.3421
13930TIP3    H263206   3.130   2.429   4.933 -1.6738 -2.0338 -0.5597
13931TIP3   OH263207   5.080   5.219   4.301  0.1075  0.0962 -0.4682
13931TIP3    H163208   5.131   5.299   4.298 -1.2143  0.9204 -1.5262
13931TIP3    H263209   5.125   5.163   4.365  0.8425  1.7934  0.5109
13932TIP3   OH263210   1.227   3.903   3.334 -0.0681 -0.1976  0.1076
13932TIP3    H163211   1.182   3.887   3.251  0.8752 -2.0080 -0.0722
13932TIP3    H263212   1.318   3.878   3.318  0.0990 -0.7152  1.7160
13933TIP3   OH263213   3.253   2.181   1.159 -0.4848  0.3118 -0.0423
13933TIP3    H163214   3.326   2.228   1.119 -0.5133  0.8933  0.5784
13933TIP3    H263215   3.250   2.098   1.112  1.4712 -0.3159  0.8506
13934TIP3   OH263216   0.366   5.769  14.872 -0.6589  0.2606  0.5644
13934TIP3    H163217   0.375   5.859  14.905 -2.6334  0.2327  1.2331
13934TIP3    H263218   0.344   5.780  14.780 -0.5940  0.4683  0.5721
13935TIP3   OH263219   4.862   0.806  10.671  1.2123  0.7409 -0.1054
13935TIP3    H163220   4.859   0.733  10.610  0.0272 -0.0095  0.8204
13935TIP3    H263221   4.822   0.879  10.624  1.4748  0.5210 -0.6729
13936TIP3   OH263222   1.898   0.152   0.674 -0.5271 -0.1889 -0.2597
13936TIP3    H163223   1.881   0.206   0.751  0.0338 -1.4591  0.7771
13936TIP3    H263224   1.927   0.068   0.709 -1.3482 -1.1711 -1.8459
13937TIP3   OH263225   3.309   0.101  13.329  0.0731 -0.2868  0.7691
13937TIP3    H163226   3.351   0.176  13.288  0.0585 -0.1096  1.0741
13937TIP3    H263227   3.223   0.134  13.356  0.4789 -0.1156  1.8598
13938TIP3   OH263228   4.871   1.563  14.062 -0.1519  0.1053 -0.9015
13938TIP3    H163229   4.940   1.621  14.092 -0.2972 -0.3928  0.4280
13938TIP3    H263230   4.909   1.475  14.068  0.2564  0.0779 -3.4129
13939TIP3   OH263231   3.408   6.467  13.601  0.2428  0.2672  0.2016
13939TIP3    H163232   3.477   6.515  13.554 -0.1321  0.9356  0.3325
13939TIP3    H263233   3.367   6.412  13.534  0.7635  0.0225  0.0802
13940TIP3   OH263234   6.674   4.722   1.382  0.0016  0.7326 -0.6202
13940TIP3    H163235   6.599   4.752   1.433 -1.5091 -2.0630 -1.1570
13940TIP3    H263236   6.639   4.657   1.322  2.8295 -0.5657 -0.9567
13941TIP3   OH263237   6.604   4.073  13.540  0.3238 -0.2116 -0.6310
13941TIP3    H163238   6.652   4.061  13.457  1.6875 -1.6923  0.3289
13941TIP3    H263239   6.534   4.007  13.536  0.3067 -0.1923 -0.6635
13942TIP3   OH263240   2.133   1.147   2.334  0.0176  0.4035  0.3817
13942TIP3    H163241   2.135   1.135   2.239  0.0796  0.7657  0.3345
13942TIP3    H263242   2.045   1.118   2.360  0.0583  0.1452  0.2371
13943TIP3   OH263243   1.864   2.670  16.067 -0.1291  0.0496 -0.0161
13943TIP3    H163244   1.824   2.667  15.980  0.4514 -2.6811 -0.2274
13943TIP3    H263245   1.958   2.682  16.049 -0.4805  4.1904  0.4168
13944TIP3   OH263246   5.572   0.975   6.067  0.0631 -0.2154  0.5192
13944TIP3    H163247   5.499   0.920   6.093 -0.5608  0.5185  0.3247
13944TIP3    H263248   5.536   1.033   6.000  0.9563 -0.2157  0.0278
13945TIP3   OH263249   5.240   6.772   2.921  0.4973 -0.1707  0.7542
13945TIP3    H163250   5.299   6.783   2.995  0.4452  1.7437  0.5244
13945TIP3    H263251   5.296   6.781   2.844  0.0487  0.8617  0.5434
13946TIP3   OH263252   2.717   5.528   4.121  0.0979 -0.2135  0.1509
13946TIP3    H163253   2.716   5.584   4.044  0.2685 -0.1418  0.2006
13946TIP3    H263254   2.747   5.443   4.088 -0.0615 -0.2500  0.0949
13947TIP3   OH263255   5.897   0.498  15.785  0.2705  0.2012 -0.4345
13947TIP3    H163256   5.967   0.460  15.839  0.4110  1.6000  0.3905
13947TIP3    H263257   5.834   0.427  15.774  0.7082 -0.3819  0.7681
13948TIP3   OH263258   0.140   4.061   0.945  0.1174 -0.2461 -0.3452
13948TIP3    H163259   0.150   4.131   0.881 -0.0582  1.7950  1.8007
13948TIP3    H263260   0.087   3.994   0.900 -1.6014  1.9589 -1.6751
13949TIP3   OH263261   3.007   6.088  16.789  0.3099 -0.6280 -0.0191
13949TIP3    H163262   3.093   6.076  16.750  0.5442  0.2623  0.2272
13949TIP3    H263263   3.024   6.108  16.881 -0.1801 -0.9782  0.1548
13950TIP3   OH263264   0.353   1.934   4.203  0.0652 -0.6119  0.9667
13950TIP3    H163265   0.383   1.843   4.205 -0.4519 -0.7731  1.6280
13950TIP3    H263266   0.431   1.985   4.223  1.0369 -0.7159 -2.2667
13951TIP3   OH263267   2.300   1.259   1.672 -0.2054 -0.2705 -0.8916
13951TIP3    H163268   2.207   1.280   1.658 -0.0379  1.5711  0.5703
13951TIP3    H263269   2.326   1.313   1.746  1.5272 -2.3126  0.0384
13952TIP3   OH263270   0.331   0.240  15.864  0.2162 -0.0410 -0.2053
13952TIP3    H163271   0.310   0.154  15.900  0.5288 -0.4956 -1.0923
13952TIP3    H263272   0.409   0.226  15.811  0.6301  0.9201  0.1321
13953TIP3   OH263273   2.791   4.717  11.987 -0.3457  0.0299 -0.4875
13953TIP3    H163274   2.823   4.769  11.913  0.3754  0.1447 -0.1015
13953TIP3    H263275   2.850   4.739  12.059  0.3462 -1.8060 -0.4891
13954TIP3   OH263276   6.262   0.788  12.982 -0.1884  0.0400  0.2721
13954TIP3    H163277   6.189   0.742  13.024  0.5027 -1.1963  0.1334
13954TIP3    H263278   6.222   0.833  12.908 -0.7927 -0.7387  0.1186
13955TIP3   OH263279   2.074   5.697   1.209 -0.4391  0.4309 -0.3286
13955TIP3    H163280   2.052   5.780   1.250  0.4865  0.4079  0.2406
13955TIP3    H263281   2.107   5.643   1.281 -1.9725 -0.7766 -0.5083
13956TIP3   OH263282   4.345   1.416  11.930  0.6207 -0.0738  0.1245
13956TIP3    H163283   4.332   1.496  11.879 -1.1374 -0.2900  0.2069
13956TIP3    H263284   4.406   1.364  11.878  3.0029  1.9642  0.8169
13957TIP3   OH263285   0.911   4.978  13.825  0.2954  0.7862  0.0670
13957TIP3    H163286   0.907   4.915  13.897  0.0161 -0.2920 -0.8835
13957TIP3    H263287   0.997   5.019  13.835 -0.5832  2.1841  2.2729
13958TIP3   OH263288   6.364   2.300  14.610 -0.1298  0.0538 -0.2489
13958TIP3    H163289   6.324   2.328  14.692 -1.4362 -0.1005 -0.8146
13958TIP3    H263290   6.361   2.204  14.613  1.2273  0.0193  0.1923
13959TIP3   OH263291   4.415   4.584  11.555  0.2436  0.2633 -0.1188
13959TIP3    H163292   4.449   4.673  11.547  2.1932 -0.2613  1.8859
13959TIP3    H263293   4.473   4.531  11.500 -0.9203  0.1730 -1.3212
13960TIP3   OH263294   3.820   2.443  11.397  0.3642 -1.1566 -0.2812
13960TIP3    H163295   3.786   2.357  11.370 -1.3115 -1.6775  3.2541
13960TIP3    H263296   3.756   2.506  11.364 -1.0259 -1.6862  1.3536
13961TIP3   OH263297   2.794   1.787   5.846  0.0698  0.0310 -0.1463
13961TIP3    H163298   2.866   1.726   5.866  0.9502  0.6997 -1.2453
13961TIP3    H263299   2.716   1.741   5.876  0.8723 -1.0402  0.3638
13962TIP3   OH263300   1.593   6.629   4.474  0.1401  0.3091 -0.3827
13962TIP3    H163301   1.629   6.608   4.388  0.4166 -0.2385 -0.1373
13962TIP3    H263302   1.669   6.627   4.533  0.0545  1.3201 -0.2382
13963TIP3   OH263303   3.241   2.876  13.704 -0.1388  0.0391 -0.6638
13963TIP3    H163304   3.228   2.787  13.670  0.0474 -0.2964  0.1441
13963TIP3    H263305   3.331   2.898  13.679  0.3444 -0.5904  0.4520
13964TIP3   OH263306   5.045   0.947   0.775 -0.2029  0.3095 -0.4273
13964TIP3    H163307   4.965   0.950   0.827 -0.8796  0.7892 -1.4676
13964TIP3    H263308   5.110   0.904   0.832 -0.6735  1.5882  1.1027
13965TIP3   OH263309   6.447   5.493   5.174 -0.4429 -0.1420 -0.3722
13965TIP3    H163310   6.459   5.544   5.094 -0.2428 -0.3344 -0.4638
13965TIP3    H263311   6.353   5.475   5.177 -0.6636  1.0520  0.1601
13966TIP3   OH263312   5.971   2.168   2.447 -0.0232 -0.2402  0.0038
13966TIP3    H163313   6.054   2.210   2.470  1.2684 -0.8635 -3.1434
13966TIP3    H263314   5.951   2.111   2.520  1.5054  1.0969  1.5052
13967TIP3   OH263315   6.040   5.807  12.052  0.7321  0.3049 -0.2036
13967TIP3    H163316   6.112   5.809  12.115  0.6460  1.0086 -0.1185
13967TIP3    H263317   5.964   5.780  12.103  1.0135 -0.8461 -0.3818
13968TIP3   OH263318   2.454   5.745  15.703  0.5836  0.4374  0.6752
13968TIP3    H163319   2.444   5.834  15.738  0.5548  1.6638 -2.2476
13968TIP3    H263320   2.528   5.752  15.642 -0.0412 -1.3029 -0.3089
13969TIP3   OH263321   2.301   4.295  11.431  0.2048 -0.5284  0.2042
13969TIP3    H163322   2.383   4.303  11.383  0.2922 -0.3902  0.3736
13969TIP3    H263323   2.310   4.216  11.484 -0.2237 -1.1440 -0.6388
13970TIP3   OH263324   6.458   4.955  14.877  0.7880 -0.4146  0.3206
13970TIP3    H163325   6.462   5.050  14.889  1.7273 -0.6587  2.0526
13970TIP3    H263326   6.366   4.937  14.859  0.7390  0.9036 -0.8714
13971TIP3   OH263327   2.347   5.735   3.843  0.6009  0.2808 -0.9974
13971TIP3    H163328   2.387   5.715   3.758  2.1889  0.9258 -0.4158
13971TIP3    H263329   2.304   5.653   3.869  2.1991 -0.6807 -1.2902
13972TIP3   OH263330   3.142   5.444  13.904  0.1924  0.4408 -0.0765
13972TIP3    H163331   3.118   5.450  13.811 -0.6035 -0.4879  0.0589
13972TIP3    H263332   3.072   5.489  13.950  0.7289  1.1406  0.0634
13973TIP3   OH263333   6.617   2.834  16.302  0.9349 -0.0645 -0.9205
13973TIP3    H163334   6.556   2.824  16.229  1.1114  0.9516 -1.2144
13973TIP3    H263335   6.616   2.749  16.346 -1.0730  0.0944 -0.6229
13974TIP3   OH263336   3.768   2.334  16.988 -0.5621 -0.1166 -0.3400
13974TIP3    H163337   3.812   2.368  17.066  1.9961 -1.9578 -0.8975
13974TIP3    H263338   3.793   2.241  16.985 -2.0080 -0.4793 -2.3998
13975TIP3   OH263339   1.757   1.012  11.814 -0.3396  0.6377 -0.1820
13975TIP3    H163340   1.828   1.026  11.876 -0.1273 -0.0821 -0.2528
13975TIP3    H263341   1.796   1.030  11.728  0.9479 -3.6176 -0.6298
13976TIP3   OH263342   6.280   2.938   2.728  0.3537  0.8316 -0.0009
13976TIP3    H163343   6.200   2.944   2.780  1.0527 -1.0921  1.3330
13976TIP3    H263344   6.350   2.966   2.787  1.1919 -1.6257  0.2288
13977TIP3   OH263345   4.210   5.323  11.758 -0.5035  0.1724  0.0803
13977TIP3    H163346   4.298   5.296  11.781 -0.9365 -0.8462  0.5937
13977TIP3    H263347   4.203   5.307  11.664 -0.7507 -1.5547  0.3746
13978TIP3   OH263348   2.115   1.428   2.283 -0.2403 -0.7428 -0.1982
13978TIP3    H163349   2.053   1.449   2.353  0.2508 -1.3144  0.4214
13978TIP3    H263350   2.097   1.337   2.262  0.4889 -0.9616  0.1010
13979TIP3   OH263351   3.707   0.084  11.243 -0.0893  0.4666 -0.6845
13979TIP3    H163352   3.712   0.177  11.223  2.3312  0.4813 -0.1556
13979TIP3    H263353   3.752   0.040  11.171  1.3823 -0.0547  0.5129
13980TIP3   OH263354   2.189   4.741   4.508  0.2620 -0.0943 -0.2713
13980TIP3    H163355   2.224   4.719   4.594  0.3561  0.9271 -0.0476
13980TIP3    H263356   2.221   4.829   4.490  1.2242 -0.7348 -1.8664
13981TIP3   OH263357   0.983   0.195  15.645  0.5945  0.4653 -0.4920
13981TIP3    H163358   0.959   0.171  15.556  0.0775  1.2056 -0.5578
13981TIP3    H263359   0.943   0.281  15.658 -0.1802 -0.0902  0.8052
13982TIP3   OH263360   2.989   3.535   3.103 -0.3775 -0.1100  0.5853
13982TIP3    H163361   3.054   3.474   3.067  0.6890  1.6461 -0.5396
13982TIP3    H263362   2.906   3.489   3.095  0.1231 -0.6275 -2.1872
13983TIP3   OH263363   0.226   3.512   3.784  0.0321 -0.5546  0.3694
13983TIP3    H163364   0.152   3.571   3.773  0.5705 -0.1053 -1.0184
13983TIP3    H263365   0.303   3.569   3.790  0.4335 -1.0615  0.1879
13984TIP3   OH263366   2.190   0.678  14.644  0.5476 -0.1821 -0.4153
13984TIP3    H163367   2.267   0.734  14.653  0.5956 -0.6198  2.2535
13984TIP3    H263368   2.180   0.667  14.549  3.3659  0.4316 -0.8437
13985TIP3   OH263369   1.445   6.233   4.013 -0.4737 -0.2378 -0.4957
13985TIP3    H163370   1.528   6.186   4.003 -0.4560 -0.4313  0.4673
13985TIP3    H263371   1.392   6.176   4.070 -0.7635  0.5143 -0.0048
13986TIP3   OH263372   1.421   1.914  11.524 -0.3450  0.1570 -0.0934
13986TIP3    H163373   1.500   1.963  11.548  0.6329 -1.5824  0.3078
13986TIP3    H263374   1.402   1.942  11.434  0.8141  0.4749 -0.2498
13987TIP3   OH263375   0.641   6.466  10.776  0.6189  0.2627 -0.0823
13987TIP3    H163376   0.659   6.373  10.790 -3.5332 -0.3712  1.7679
13987TIP3    H263377   0.581   6.468  10.701  2.1654  1.6573 -1.3341
13988TIP3   OH263378   3.983   0.770   0.145  0.1282  0.3821  0.4407
13988TIP3    H163379   3.981   0.828   0.069 -0.5821 -0.2255 -0.0117
13988TIP3    H263380   3.943   0.689   0.114  1.3470 -0.4497  0.9888
13989TIP3   OH263381   2.056   6.443   3.991 -0.5158 -1.1552 -0.0213
13989TIP3    H163382   2.009   6.434   3.908 -1.3801 -0.2440  0.3644
13989TIP3    H263383   2.133   6.497   3.969 -2.2144  1.4962  0.3051
13990TIP3   OH263384   2.491   0.179  17.219  0.1745  0.6234 -0.4013
13990TIP3    H163385   2.531   0.213  17.299  0.2117 -0.8450  0.2312
13990TIP3    H263386   2.412   0.231  17.207  0.0851  0.7464  0.6913
13991TIP3   OH263387   0.994   6.287  10.691 -1.2378 -0.1193  0.3206
13991TIP3    H163388   0.988   6.238  10.609  1.4018 -1.7719  1.0495
13991TIP3    H263389   0.953   6.231  10.757  0.1868 -0.5866  0.8291
13992TIP3   OH263390   3.058   2.730  14.852 -0.4299 -0.2362  0.3934
13992TIP3    H163391   3.016   2.733  14.938  1.7810  0.8389  1.5024
13992TIP3    H263392   3.090   2.640  14.844 -1.1980 -0.5103  0.4241
13993TIP3   OH263393   4.051   4.974  16.340  0.6593 -0.2596 -0.0682
13993TIP3    H163394   4.011   5.043  16.287 -0.0729 -1.1736 -0.7225
13993TIP3    H263395   3.977   4.921  16.370  1.2174 -0.8145  0.3462
13994TIP3   OH263396   0.840   2.594   2.531 -0.1484  0.3510 -0.0823
13994TIP3    H163397   0.766   2.588   2.591  0.1619 -0.0464  0.2606
13994TIP3    H263398   0.901   2.527   2.561  1.0283  1.6926  0.5687
13995TIP3   OH263399   5.189   1.519  14.328 -0.0093  0.1207  0.2468
13995TIP3    H163400   5.173   1.425  14.333 -1.2955  0.3081 -0.1502
13995TIP3    H263401   5.223   1.542  14.415  2.0269 -1.0056 -0.2300
13996TIP3   OH263402   5.276   0.172  16.154  0.0247  0.1335  0.2283
13996TIP3    H163403   5.310   0.244  16.206 -2.4655  2.4335 -1.2182
13996TIP3    H263404   5.207   0.133  16.207  0.3333 -0.2222  0.3736
13997TIP3   OH263405   6.002   3.833   0.829 -1.0377 -0.6629  0.6525
13997TIP3    H163406   6.090   3.848   0.865 -1.3183  1.2046  0.5969
13997TIP3    H263407   5.994   3.898   0.759 -1.7655 -2.0696 -0.5795
13998TIP3   OH263408   0.072   3.703  16.590 -0.1326  0.1030 -0.1889
13998TIP3    H163409   0.064   3.771  16.523 -1.2480 -1.6053 -1.8180
13998TIP3    H263410   0.154   3.659  16.569  0.5290  0.8291  0.7981
13999TIP3   OH263411   1.469   0.550  11.966  0.2330 -0.4579  0.1623
13999TIP3    H163412   1.421   0.546  12.048  1.2055 -0.2904  0.7480
13999TIP3    H263413   1.555   0.584  11.990 -0.8929  4.0387 -1.5606
14000TIP3   OH263414   1.426   2.575   2.168  0.2417  0.6974  0.1668
14000TIP3    H163415   1.521   2.584   2.159  0.1751  0.6740 -0.6558
14000TIP3    H263416   1.414   2.518   2.244  0.9132  0.0392 -0.2098
14001TIP3   OH263417   1.078   1.973  11.586  0.3203 -0.8062 -0.0777
14001TIP3    H163418   1.032   2.051  11.616  0.3620 -1.3351  1.3792
14001TIP3    H263419   1.106   1.995  11.497 -1.2377  0.1516 -0.3393
14002TIP3   OH263420   5.107   0.870  10.891  0.0798 -0.4389  0.6912
14002TIP3    H163421   5.199   0.893  10.878 -0.1417  0.6870  1.0158
14002TIP3    H263422   5.088   0.805  10.824  1.1361 -0.7366  0.6780
14003TIP3   OH263423   5.033   3.259  12.978  0.3262  0.1065  0.3785
14003TIP3    H163424   4.994   3.186  12.930  0.5497 -1.4996  2.5729
14003TIP3    H263425   5.088   3.304  12.913  0.0499 -1.5662 -1.0473
14004TIP3   OH263426   1.388   2.890  11.587 -0.0057  0.5391  0.2042
14004TIP3    H163427   1.304   2.925  11.617 -0.4166 -0.8181  0.6411
14004TIP3    H263428   1.444   2.892  11.665  0.3338  1.3008 -0.0511
14005TIP3   OH263429   0.466   2.428   5.941 -0.1785 -0.3241  0.2812
14005TIP3    H163430   0.557   2.400   5.949 -0.0724  0.2380  1.1519
14005TIP3    H263431   0.427   2.407   6.026 -0.4966  0.7354  0.4014
14006TIP3   OH263432   5.012   0.074  16.282  0.0729  0.5188  0.0016
14006TIP3    H163433   4.993   0.162  16.312  1.8092  1.1569 -0.7025
14006TIP3    H263434   4.953   0.060  16.208  1.4368  2.0069 -1.4075
14007TIP3   OH263435   4.497   3.148   2.622 -0.4171 -0.3779  0.3141
14007TIP3    H163436   4.571   3.094   2.594 -0.5060  0.2142 -1.0838
14007TIP3    H263437   4.421   3.091   2.613 -0.5898  0.1565 -1.7565
14008TIP3   OH263438   5.585   6.604  17.177 -0.1039 -0.8258  0.2194
14008TIP3    H163439   5.591   6.567  17.089 -0.8787  0.1351 -0.2491
14008TIP3    H263440   5.663   6.572  17.222  0.0293 -1.7605 -0.6487
14009TIP3   OH263441   1.006   1.198  14.379 -0.9053 -0.4784  0.5300
14009TIP3    H163442   1.006   1.146  14.298  0.4701  1.3473 -0.6786
14009TIP3    H263443   0.925   1.249  14.376 -0.8520 -0.4077  0.2976
14010TIP3   OH263444   5.043   4.874   2.362  0.0392 -0.4250 -0.2472
14010TIP3    H163445   5.131   4.883   2.325  0.7154 -1.8448  0.9476
14010TIP3    H263446   4.984   4.889   2.288  1.1873  3.4741 -0.4861
14011TIP3   OH263447   0.125   1.329  11.374 -1.2395  0.3331  0.1710
14011TIP3    H163448   0.038   1.368  11.378 -0.5808  1.7844  0.4922
14011TIP3    H263449   0.123   1.275  11.295 -2.1114  1.1334 -0.3654
14012TIP3   OH263450   2.573   3.210   4.967  0.4386  0.2275  0.2940
14012TIP3    H163451   2.515   3.180   4.897 -0.1101 -0.1765  0.9112
14012TIP3    H263452   2.550   3.302   4.981  1.4903  0.7020 -0.9744
14013TIP3   OH263453   0.976   2.959  15.029  0.3151 -0.0637  0.3911
14013TIP3    H163454   0.899   3.015  15.038  0.4394  0.3279 -0.7751
14013TIP3    H263455   0.950   2.892  14.965  0.6453 -0.4607  0.6697
14014TIP3   OH263456   4.758   6.717  16.542  0.4584  0.3318  0.2869
14014TIP3    H163457   4.746   6.724  16.447 -0.5667 -1.7006  0.2346
14014TIP3    H263458   4.826   6.781  16.562  1.4494  0.0462 -1.9783
14015TIP3   OH263459   1.248   0.883  16.508  0.0908 -0.1863 -0.0696
14015TIP3    H163460   1.295   0.884  16.592 -1.4124 -2.0222  0.8181
14015TIP3    H263461   1.316   0.863  16.443  1.1159  0.4013  0.7981
14016TIP3   OH263462   1.169   2.290  12.516  0.3753  0.6410 -0.7426
14016TIP3    H163463   1.117   2.293  12.437  0.3126 -0.2136 -0.7428
14016TIP3    H263464   1.227   2.366  12.510  0.4095  0.5502 -1.6326
14017TIP3   OH263465   0.480   6.049   5.591 -0.3647 -0.4949  0.0437
14017TIP3    H163466   0.572   6.062   5.567 -0.1283  0.7348  1.5395
14017TIP3    H263467   0.478   5.965   5.636  0.3682  0.2987  1.6144
14018TIP3   OH263468   2.764   1.592  12.393  0.4649 -0.7915 -0.2466
14018TIP3    H163469   2.748   1.656  12.323 -0.7629 -1.3064 -0.4542
14018TIP3    H263470   2.738   1.508  12.354 -0.3442 -1.0668  0.8645
14019TIP3   OH263471   4.511   2.954   1.166  0.2537  0.1071 -0.4205
14019TIP3    H163472   4.536   3.013   1.237  1.3482 -0.0976 -0.6239
14019TIP3    H263473   4.463   2.883   1.209  1.5415 -0.3967  0.2331
14020TIP3   OH263474   0.353   0.772  16.838 -0.6332  0.0132 -0.1742
14020TIP3    H163475   0.275   0.744  16.887 -1.7006  0.7496 -1.4351
14020TIP3    H263476   0.326   0.852  16.794  0.7030  0.0184 -1.0028
14021TIP3   OH263477   5.598   6.606   4.748 -0.3067  0.2703 -0.3001
14021TIP3    H163478   5.569   6.600   4.840 -1.1746  2.1156 -0.4208
14021TIP3    H263479   5.583   6.519   4.712 -1.5937  0.0045  0.8501
14022TIP3   OH263480   3.033   4.562   2.223  0.6731  0.0733  0.1343
14022TIP3    H163481   2.991   4.645   2.200  0.4166  0.5278  2.1461
14022TIP3    H263482   2.990   4.535   2.304  1.3737 -1.5826 -0.0283
14023TIP3   OH263483   1.843   2.662  13.483 -0.0627 -0.2204 -0.7861
14023TIP3    H163484   1.807   2.670  13.395 -0.2739  0.0699 -0.6713
14023TIP3    H263485   1.921   2.718  13.483 -0.6326  0.5817 -0.4770
14024TIP3   OH263486   5.969   3.167  16.969  0.0783  0.9669 -0.4090
14024TIP3    H163487   5.918   3.150  16.890 -0.6905  0.9424  0.0826
14024TIP3    H263488   6.049   3.116  16.958 -0.1453  0.7477 -1.0399
14025TIP3   OH263489   2.596   5.448  12.138 -0.0236  0.0042 -0.0230
14025TIP3    H163490   2.660   5.378  12.132  0.4188  0.1936  2.1709
14025TIP3    H263491   2.526   5.421  12.078  0.8848 -1.4912 -0.4419
14026TIP3   OH263492   4.368   0.052   2.946  0.4951 -0.4108  0.1413
14026TIP3    H163493   4.305  -0.016   2.922  0.0495 -0.1548  0.5576
14026TIP3    H263494   4.453   0.009   2.942  0.0528 -1.5397  2.2922
14027TIP3   OH263495   2.221   3.159  16.023  0.1587 -0.0352 -0.1797
14027TIP3    H163496   2.259   3.218  15.958 -2.5179 -0.0353 -1.8236
14027TIP3    H263497   2.163   3.215  16.075 -0.3314 -0.7205  0.0154
14028TIP3   OH263498   0.280   6.512  16.521  0.7168  0.1713 -0.6015
14028TIP3    H163499   0.323   6.545  16.600  0.5716 -1.4620  0.1738
14028TIP3    H263500   0.290   6.417  16.527 -2.3675 -0.1999 -0.7584
14029TIP3   OH263501   4.366   3.940   0.676 -0.5402 -0.6064  0.1928
14029TIP3    H163502   4.355   3.845   0.674  2.0577 -0.9716  0.3077
14029TIP3    H263503   4.389   3.959   0.767 -0.2262  0.0057 -0.0138
14030TIP3   OH263504   0.241   6.359  10.804  0.3288  0.3422 -0.3647
14030TIP3    H163505   0.302   6.317  10.742  2.4683  0.8659  1.3167
14030TIP3    H263506   0.157   6.319  10.785  1.2426 -0.6722 -2.5410
14031TIP3   OH263507   6.495   2.831  15.725  0.1571  0.8891  0.1764
14031TIP3    H163508   6.446   2.817  15.644 -2.0765 -0.4611  1.7301
14031TIP3    H263509   6.446   2.899  15.772  0.3239  0.2532  1.2884
14032TIP3   OH263510   1.102   3.598  14.590 -0.3720  0.2654 -0.0178
14032TIP3    H163511   1.175   3.567  14.643 -0.7937  2.3258  1.8065
14032TIP3    H263512   1.140   3.666  14.533 -0.1417 -1.1974 -1.6657
14033TIP3   OH263513   2.092   2.546   2.489 -1.1049 -0.6734 -0.2671
14033TIP3    H163514   2.118   2.607   2.558 -3.5286  1.1106 -0.8860
14033TIP3    H263515   2.032   2.485   2.532 -0.1535 -1.5042 -0.0919
14034TIP3   OH263516   0.730   3.821   0.553 -1.2942 -0.0380 -0.1833
14034TIP3    H163517   0.698   3.906   0.524  0.6252  1.1209  0.9784
14034TIP3    H263518   0.804   3.841   0.611  0.6623 -2.5464 -1.7046
14035TIP3   OH263519   5.296   1.534  13.791  0.1822 -0.2781 -0.3973
14035TIP3    H163520   5.255   1.620  13.780  0.1331 -0.1127  1.0316
14035TIP3    H263521   5.310   1.503  13.702 -1.1661  0.5632 -0.9211
14036TIP3   OH263522   5.365   0.210   5.460 -0.0026  0.3444  0.1967
14036TIP3    H163523   5.459   0.225   5.448  0.4766 -2.1570  0.4989
14036TIP3    H263524   5.355   0.194   5.554 -0.6342  0.0688  0.0868
14037TIP3   OH263525   5.935   4.969  17.149  0.5972  0.1684  0.3395
14037TIP3    H163526   6.003   4.945  17.086 -0.6024 -0.5774 -0.6986
14037TIP3    H263527   5.859   4.993  17.095 -0.2232  0.1916  1.4805
14038TIP3   OH263528   0.143   0.935   1.267  0.1204  0.0349 -0.6067
14038TIP3    H163529   0.053   0.916   1.294  0.2127 -0.5043 -0.6651
14038TIP3    H263530   0.194   0.932   1.347  0.0377  0.6708 -0.5252
14039TIP3   OH263531   3.265   5.778  14.076  0.6669 -0.0140  0.4266
14039TIP3    H163532   3.327   5.734  14.133 -0.5498  1.4968  3.0183
14039TIP3    H263533   3.292   5.755  13.987  3.8180 -0.8104  1.5574
14040TIP3   OH263534   6.595   0.858   0.403 -0.3246  0.2665  0.0939
14040TIP3    H163535   6.624   0.930   0.458 -1.6673  0.6939  0.2679
14040TIP3    H263536   6.670   0.839   0.347  1.2155 -0.4645  2.3382
14041TIP3   OH263537   5.179   2.905  13.686  0.0551  0.0430  0.0696
14041TIP3    H163538   5.258   2.852  13.683 -0.2743 -0.4807  0.5329
14041TIP3    H263539   5.179   2.943  13.774 -1.8895 -2.5793  1.2847
14042TIP3   OH263540   0.052   3.313   4.332 -0.2199  0.0906  0.2219
14042TIP3    H163541   0.054   3.279   4.242  0.6021 -0.1614  0.3265
14042TIP3    H263542   0.048   3.234   4.386 -0.1047  0.2263  0.4238
14043TIP3   OH263543   4.240   2.693  12.627  0.0147  0.1573 -0.1339
14043TIP3    H163544   4.158   2.646  12.612 -0.2884  0.8149 -0.5345
14043TIP3    H263545   4.262   2.731  12.542  0.9828 -0.4130 -0.1468
14044TIP3   OH263546   0.394   0.805   1.731  0.6017  0.3441 -0.2246
14044TIP3    H163547   0.429   0.846   1.810  0.1269  0.7062 -0.1990
14044TIP3    H263548   0.373   0.716   1.758 -1.0531  0.9373  0.4901
14045TIP3   OH263549   6.763   5.067  16.957  0.6992 -0.8286  0.5981
14045TIP3    H163550   6.676   5.103  16.974  2.1393  3.2323 -0.1981
14045TIP3    H263551   6.775   5.076  16.863  2.4894 -0.1220  0.8746
14046TIP3   OH263552   0.124   3.109  10.676 -0.3266  0.7368  0.1809
14046TIP3    H163553   0.093   3.198  10.693 -1.0373  0.7641 -1.1415
14046TIP3    H263554   0.212   3.106  10.713 -0.1412  2.1180 -0.1297
14047TIP3   OH263555   5.474   2.817   0.040 -0.4736 -0.0943  0.4546
14047TIP3    H163556   5.500   2.892   0.093  0.8047  0.9361 -1.5706
14047TIP3    H263557   5.552   2.762   0.036 -0.5430 -0.1432 -0.3549
14048TIP3   OH263558   4.542   5.486   1.661  0.2692 -0.2830  0.1554
14048TIP3    H163559   4.583   5.486   1.575 -1.9246  1.0049 -0.9440
14048TIP3    H263560   4.469   5.424   1.654  0.0837 -0.1829  1.0808
14049TIP3   OH263561   3.911   0.096   4.289  0.4708 -0.6649 -0.0345
14049TIP3    H163562   3.893   0.055   4.205  0.6410  0.3812 -0.5923
14049TIP3    H263563   4.007   0.099   4.294  0.4590  0.5510 -0.4442
14050TIP3   OH263564   6.519   5.293  11.538  0.3467  0.2390 -0.0632
14050TIP3    H163565   6.595   5.341  11.572 -0.3186  2.3382 -1.4483
14050TIP3    H263566   6.444   5.350  11.556 -0.6108 -0.7625 -0.7757
14051TIP3   OH263567   0.815   2.491  13.618 -0.2452 -0.6103  0.6322
14051TIP3    H163568   0.857   2.493  13.704  1.4302 -0.3777 -0.1837
14051TIP3    H263569   0.802   2.397  13.600  0.8603 -0.7328  0.4441
14052TIP3   OH263570   2.921   1.973  13.016 -0.2106 -0.1238 -0.2414
14052TIP3    H163571   2.906   2.067  13.012 -1.1593 -0.2647 -0.2784
14052TIP3    H263572   2.918   1.944  12.924 -1.0303 -0.3357 -0.1611
14053TIP3   OH263573   5.584   3.123  15.598  0.2502 -0.2575 -0.6014
14053TIP3    H163574   5.535   3.198  15.565 -0.8182 -0.8886 -0.4696
14053TIP3    H263575   5.645   3.101  15.527 -1.0760 -0.7419 -1.6119
14054TIP3   OH263576   0.747   1.692  12.696  0.3903  0.5754  0.1888
14054TIP3    H163577   0.698   1.644  12.629 -2.3852  1.9713  1.1393
14054TIP3    H263578   0.812   1.743  12.647  0.0067 -0.2401 -1.2060
14055TIP3   OH263579   6.451   5.848   5.153  0.1288  0.2533  0.6555
14055TIP3    H163580   6.474   5.780   5.090 -0.2759  0.4452  0.2948
14055TIP3    H263581   6.363   5.825   5.183 -0.8567  1.7413 -1.0255
14056TIP3   OH263582   2.559   0.936  15.611 -0.3158 -0.1520  0.6791
14056TIP3    H163583   2.526   1.023  15.635  1.1019  0.2838  1.1220
14056TIP3    H263584   2.565   0.938  15.515 -0.7788  0.0480  0.6526
14057TIP3   OH263585   1.875   2.979   0.891  0.7553  0.1599  0.6326
14057TIP3    H163586   1.964   2.954   0.916  1.7153  4.6023  2.1626
14057TIP3    H263587   1.886   3.057   0.838 -2.1679 -0.6049 -1.2072
14058TIP3   OH263588   3.402   2.013   2.983 -0.0406  0.3541 -0.3904
14058TIP3    H163589   3.374   2.104   2.991  2.1290  1.0357 -0.3351
14058TIP3    H263590   3.408   1.982   3.074  1.9729  1.0344 -0.2732
14059TIP3   OH263591   6.708   5.650   4.356 -0.4505 -0.1814  0.3753
14059TIP3    H163592   6.637   5.637   4.419 -0.7843 -1.0921 -0.1947
14059TIP3    H263593   6.665   5.686   4.279  0.1722  2.5370  1.2063
14060TIP3   OH263594   4.646   4.827   0.805  0.4515 -0.1553 -0.3463
14060TIP3    H163595   4.673   4.838   0.896  1.4068  1.2727 -0.7815
14060TIP3    H263596   4.693   4.750   0.774 -1.0621 -1.5767  0.7979
14061TIP3   OH263597   3.395   6.600   0.609  0.3807  0.2621  0.1754
14061TIP3    H163598   3.458   6.542   0.653  0.2935 -0.0469 -0.1102
14061TIP3    H263599   3.396   6.572   0.518 -1.6846 -1.0848  0.5554
14062TIP3   OH263600   1.958   3.407  13.277  0.1172 -0.2381 -0.1208
14062TIP3    H163601   1.870   3.376  13.258  0.3877 -1.1210  0.0624
14062TIP3    H263602   1.985   3.453  13.197 -0.5903  0.2334 -0.0951
14063TIP3   OH263603   2.433   2.342   1.569 -0.1610  0.3780  0.3441
14063TIP3    H163604   2.455   2.306   1.655  1.2179  0.3124 -0.0267
14063TIP3    H263605   2.478   2.426   1.565  0.7398 -0.1371 -0.7551
14064TIP3   OH263606   3.347   2.348   4.398 -0.0438 -0.4819 -0.9419
14064TIP3    H163607   3.358   2.286   4.325 -0.3259 -2.3154  0.5264
14064TIP3    H263608   3.424   2.333   4.453 -0.3598  0.1471 -0.3236
14065TIP3   OH263609   2.546   1.607   5.743 -0.0433 -0.3999 -0.5750
14065TIP3    H163610   2.579   1.523   5.711  0.8871 -0.8803  1.5785
14065TIP3    H263611   2.531   1.593   5.836  0.6603  1.9866 -0.0735
14066TIP3   OH263612   3.666   2.651  11.335  0.1804  0.0056 -0.8489
14066TIP3    H163613   3.599   2.682  11.397 -0.4468  0.8391 -1.9179
14066TIP3    H263614   3.690   2.729  11.285 -0.1977 -0.8691 -2.4521
14067TIP3   OH263615   6.475   1.379  16.517 -0.6577 -0.0087  0.0361
14067TIP3    H163616   6.409   1.447  16.515  0.7571  1.3889  0.1543
14067TIP3    H263617   6.472   1.340  16.429 -1.0101  0.6615 -0.2516
14068TIP3   OH263618   0.689   5.848  10.930  0.4764  0.3396  0.2301
14068TIP3    H163619   0.744   5.830  10.853 -2.4811 -1.6808 -1.5158
14068TIP3    H263620   0.697   5.769  10.984  0.8855  0.8869  0.9805
14069TIP3   OH263621   0.276   4.507   5.791 -0.4659 -0.7209  0.7403
14069TIP3    H163622   0.250   4.452   5.718 -0.6140 -1.1487  1.1088
14069TIP3    H263623   0.242   4.461   5.868 -1.7669  0.5815  0.9457
14070TIP3   OH263624   0.314   6.526   5.065  0.0564  0.0242  0.0947
14070TIP3    H163625   0.370   6.452   5.090  1.4933  1.1562  0.3328
14070TIP3    H263626   0.305   6.577   5.146  0.2382  0.8345 -0.3859
14071TIP3   OH263627   0.553   1.438  14.911 -0.9517 -0.2109  0.4387
14071TIP3    H163628   0.603   1.434  14.992 -2.5450 -0.4320  1.4177
14071TIP3    H263629   0.467   1.404  14.934 -1.1929 -1.0041 -1.5230
14072TIP3   OH263630   1.749   6.736   0.070 -0.1404  0.1351  0.1626
14072TIP3    H163631   1.776   6.817   0.026 -0.2384 -0.0939 -0.3257
14072TIP3    H263632   1.760   6.668   0.003  0.4624 -0.3411  0.7362
14073TIP3   OH263633   4.811   2.332   2.117 -0.0759 -0.5093  0.2116
14073TIP3    H163634   4.878   2.280   2.072  0.7205  0.3280  0.3993
14073TIP3    H263635   4.855   2.364   2.196 -1.0050 -0.7469  0.8397
14074TIP3   OH263636   5.965   3.425   0.276  0.4368  0.2234  0.7635
14074TIP3    H163637   6.007   3.492   0.222  0.9963 -1.1960 -0.6150
14074TIP3    H263638   6.028   3.353   0.278 -0.0924 -0.2089  2.3391
14075TIP3   OH263639   3.887   0.528  11.053  0.3231 -0.2149  0.7599
14075TIP3    H163640   3.956   0.483  11.004 -0.6126  0.5141 -1.2585
14075TIP3    H263641   3.857   0.597  10.995 -3.4924 -1.7373  0.7792
14076TIP3   OH263642   1.160   2.658  16.748 -0.1548 -0.1299 -0.3062
14076TIP3    H163643   1.080   2.629  16.705 -0.6599 -0.8138  1.0630
14076TIP3    H263644   1.131   2.709  16.823  0.6603 -0.9348  0.5839
14077TIP3   OH263645   0.649   6.437   1.592  0.1896  0.4062  0.9236
14077TIP3    H163646   0.722   6.473   1.540 -0.8531  1.1731 -0.0395
14077TIP3    H263647   0.659   6.342   1.585  1.2537  0.5031  1.0275
14078TIP3   OH263648   4.617   1.256  11.241 -0.3182  0.6163 -0.4008
14078TIP3    H163649   4.613   1.189  11.173  1.8003  0.9105 -0.8763
14078TIP3    H263650   4.609   1.208  11.323 -3.0262  0.2750 -0.8380
14079TIP3   OH263651   6.104   4.602   4.383 -0.0427  0.1629 -0.4674
14079TIP3    H163652   6.060   4.686   4.370 -1.1688 -0.2533  0.5921
14079TIP3    H263653   6.063   4.543   4.320 -0.8438 -0.1692  0.3661
14080TIP3   OH263654   4.163   4.888   4.220  0.0944 -0.2273 -0.0826
14080TIP3    H163655   4.191   4.969   4.176  0.6103 -1.0130 -1.2449
14080TIP3    H263656   4.068   4.895   4.224  0.1900  0.7820  0.5054
14081TIP3   OH263657   5.755   6.174   0.480 -0.0282 -0.0703 -0.7547
14081TIP3    H163658   5.720   6.178   0.569 -1.5148  0.0960 -1.3269
14081TIP3    H263659   5.677   6.171   0.424  0.8858 -1.9193 -1.9787
14082TIP3   OH263660   2.528   6.695   5.899 -0.0451  0.1331  0.2945
14082TIP3    H163661   2.528   6.747   5.818  0.2474  0.7997  0.7222
14082TIP3    H263662   2.618   6.664   5.907  0.3880  1.5950  1.3339
14083TIP3   OH263663   0.794   3.285  15.704 -0.0900  0.2136 -0.2805
14083TIP3    H163664   0.813   3.214  15.766 -0.1235 -0.8027 -1.4148
14083TIP3    H263665   0.876   3.299  15.658 -0.5079 -0.1822 -1.1540
14084TIP3   OH263666   3.727   5.247  13.235  0.2188 -0.0127  0.3012
14084TIP3    H163667   3.636   5.275  13.243 -0.4925 -1.7813 -1.3597
14084TIP3    H263668   3.739   5.185  13.307  0.3251  0.6881  0.9029
14085TIP3   OH263669   0.781   2.147  10.469  0.5191 -0.1571 -0.2672
14085TIP3    H163670   0.749   2.058  10.486  0.3374 -0.1225 -0.4247
14085TIP3    H263671   0.800   2.149  10.376  1.0279 -0.1894 -0.1646
14086TIP3   OH263672   3.555   5.522   4.367 -0.4003 -0.2088 -0.3104
14086TIP3    H163673   3.609   5.556   4.296 -1.1005 -1.2107 -1.3589
14086TIP3    H263674   3.519   5.440   4.331  0.7905 -1.7430  1.8929
14087TIP3   OH263675   2.725   4.627   5.431  0.2175 -0.4186  0.4219
14087TIP3    H163676   2.797   4.599   5.488  0.5003  2.0949  1.3962
14087TIP3    H263677   2.768   4.672   5.358 -0.2536 -1.2827 -0.3856
14088TIP3   OH263678   6.227   1.819  11.740 -0.2489  0.5752  0.4677
14088TIP3    H163679   6.288   1.748  11.761  0.3348  1.4849  1.8726
14088TIP3    H263680   6.283   1.895  11.726 -0.7757  0.5013 -2.3110
14089TIP3   OH263681   2.905   3.299  10.801  0.2919 -0.2018 -0.0029
14089TIP3    H163682   2.987   3.348  10.802  0.4011 -0.3661 -0.5354
14089TIP3    H263683   2.914   3.237  10.873  0.4464  0.0851  0.2273
14090TIP3   OH263684   5.373   4.650  16.673  0.6359 -0.9122  0.3433
14090TIP3    H163685   5.398   4.598  16.596 -0.9329  0.2980 -1.0352
14090TIP3    H263686   5.413   4.736  16.657  0.3884 -0.6849  0.9291
14091TIP3   OH263687   2.662   4.716  13.128 -0.2925 -0.5211 -0.0389
14091TIP3    H163688   2.750   4.721  13.166  0.7728  0.4153 -2.5418
14091TIP3    H263689   2.609   4.775  13.181  0.5223 -1.2646  1.6274
14092TIP3   OH263690   3.507   6.738  13.468 -0.0202  0.0107 -0.4924
14092TIP3    H163691   3.469   6.763  13.552  0.7458  1.0086 -0.4413
14092TIP3    H263692   3.442   6.765  13.403 -0.3782 -0.2935 -0.2620
14093TIP3   OH263693   3.583   5.488   0.490 -0.3243  0.6825  0.0986
14093TIP3    H163694   3.662   5.459   0.444 -1.1996 -0.3503 -0.7732
14093TIP3    H263695   3.594   5.582   0.500 -0.6463  1.1576 -3.3071
14094TIP3   OH263696   6.344   0.576  15.328  0.2182 -0.2624 -0.6726
14094TIP3    H163697   6.282   0.582  15.400  0.1097 -0.9781 -0.7042
14094TIP3    H263698   6.423   0.538  15.367  1.0385  1.6911 -0.3815
14095TIP3   OH263699   1.140   3.279  12.837  0.4655  0.0305 -0.1201
14095TIP3    H163700   1.173   3.210  12.894 -0.8581 -0.2194  0.3606
14095TIP3    H263701   1.171   3.360  12.877  2.3491 -0.2919 -0.9008
14096TIP3   OH263702   5.068   3.873   3.504  0.7946 -0.4080 -0.0065
14096TIP3    H163703   5.057   3.805   3.438  0.7683 -0.5076  0.1000
14096TIP3    H263704   5.074   3.954   3.454 -0.9127 -0.2953 -0.0324
14097TIP3   OH263705   2.755   2.451  15.175 -0.1109 -0.5539  0.3499
14097TIP3    H163706   2.832   2.473  15.228  0.0841 -0.4730  0.0371
14097TIP3    H263707   2.736   2.360  15.196  0.9501 -1.0178 -0.6429
14098TIP3   OH263708   4.230   2.433  15.497 -0.5407 -0.4888  0.1097
14098TIP3    H163709   4.294   2.363  15.511  1.3480  1.3681  1.0353
14098TIP3    H263710   4.206   2.425  15.404 -0.1080 -2.1295  0.1143
14099TIP3   OH263711   0.210   2.728  12.190  0.1074  1.1098  0.0463
14099TIP3    H163712   0.237   2.672  12.262 -0.9780  0.8265  0.2442
14099TIP3    H263713   0.121   2.755  12.213 -1.0867 -0.7177 -2.2118
14100TIP3   OH263714   3.584   5.294  14.690 -0.2099  0.2119 -0.4113
14100TIP3    H163715   3.606   5.278  14.598  0.9186  2.0025 -0.4672
14100TIP3    H263716   3.615   5.215  14.735  2.8402  0.9636 -1.0525
14101TIP3   OH263717   0.563   4.842   1.021 -0.5129  0.4141  0.1614
14101TIP3    H163718   0.611   4.805   0.947  0.4128  1.3895  0.2675
14101TIP3    H263719   0.544   4.766   1.077 -1.5755 -0.3903 -1.2526
14102TIP3   OH263720   6.489   2.040   0.168  0.2814 -0.0011 -0.0617
14102TIP3    H163721   6.535   1.997   0.239  0.5768  0.2877 -0.0784
14102TIP3    H263722   6.505   2.133   0.181 -0.6535  0.1336  0.1806
14103TIP3   OH263723   6.320   2.137   6.079  0.4027 -0.9399  0.7143
14103TIP3    H163724   6.242   2.191   6.095  0.1550 -1.2370  0.4978
14103TIP3    H263725   6.343   2.156   5.988 -0.1120 -1.7580  0.4127
14104TIP3   OH263726   2.688   6.527  13.837  0.7887 -0.0555  0.7629
14104TIP3    H163727   2.753   6.457  13.844  0.4461 -0.2118  2.7402
14104TIP3    H263728   2.613   6.485  13.794 -0.2032 -1.5317  3.7907
14105TIP3   OH263729   3.618   0.120   0.942 -0.6439  0.1977 -0.1990
14105TIP3    H163730   3.539   0.075   0.914  0.6642 -0.7694 -2.4572
14105TIP3    H263731   3.596   0.213   0.938 -3.0678 -0.0847  3.5900
14106TIP3   OH263732   5.454   0.938  13.704  0.2404  0.1687  0.9156
14106TIP3    H163733   5.507   1.018  13.703  1.4182 -0.5959 -0.7909
14106TIP3    H263734   5.465   0.903  13.792  2.7836 -0.0797  0.5449
14107TIP3   OH263735   2.108   2.386   0.905 -0.5703 -0.8615 -0.1146
14107TIP3    H163736   2.088   2.465   0.956 -1.8274 -1.0842 -0.2420
14107TIP3    H263737   2.121   2.318   0.970 -1.5779 -1.0128 -0.0697
14108TIP3   OH263738   1.269   2.285  15.959 -0.9216 -0.9753 -0.4136
14108TIP3    H163739   1.258   2.195  15.928  1.9268 -1.3388 -0.5323
14108TIP3    H263740   1.312   2.330  15.886 -3.3211  0.7920 -0.7785
14109TIP3   OH263741   0.588   1.922  15.939 -0.2326 -0.3466  0.0622
14109TIP3    H163742   0.669   1.889  15.900  0.2928  1.3099 -0.3208
14109TIP3    H263743   0.611   2.010  15.970 -2.3597  0.9693 -1.8630
14110TIP3   OH263744   0.581   0.939   1.251 -0.0046 -0.1215  0.1872
14110TIP3    H163745   0.672   0.966   1.242  0.3942 -1.6790 -0.6312
14110TIP3    H263746   0.585   0.843   1.253 -1.5446 -0.1816  1.0571
14111TIP3   OH263747   0.097   2.470   0.418  0.3004  0.1013  0.0692
14111TIP3    H163748   0.040   2.544   0.439 -1.1554 -0.7014 -0.9577
14111TIP3    H263749   0.160   2.505   0.354  0.2977  0.7234  0.4098
14112TIP3   OH263750   4.188   4.270   6.431 -0.0940 -0.2293 -0.3175
14112TIP3    H163751   4.132   4.267   6.509 -0.0430 -2.2318 -0.3254
14112TIP3    H263752   4.128   4.251   6.359 -0.3328  2.5711 -0.9230
14113TIP3   OH263753   0.244   6.767   4.787 -0.0549 -0.2028  0.0822
14113TIP3    H163754   0.313   6.784   4.723 -1.2502 -1.7905 -1.6835
14113TIP3    H263755   0.186   6.842   4.780 -0.0696 -0.2719 -0.5610
14114TIP3   OH263756   1.362   1.116   0.952  0.4272 -0.2427 -0.0941
14114TIP3    H163757   1.376   1.076   1.038 -1.1640 -0.8688 -0.1141
14114TIP3    H263758   1.349   1.209   0.971 -0.7862 -0.5073  0.4501
14115TIP3   OH263759   4.257   6.303  13.662  0.5563 -0.1834 -0.5547
14115TIP3    H163760   4.223   6.392  13.672 -0.8014 -0.8868  1.4253
14115TIP3    H263761   4.196   6.262  13.600  0.5814 -0.0607 -0.6631
14116TIP3   OH263762   3.744   0.628   1.358  0.0346  0.5041 -0.0451
14116TIP3    H163763   3.787   0.543   1.356  0.1241  0.5404  0.3314
14116TIP3    H263764   3.697   0.633   1.275 -0.6029 -0.2362  0.2698
14117TIP3   OH263765   3.086   0.253  16.101 -0.3464  0.2336 -0.1820
14117TIP3    H163766   3.104   0.159  16.109  0.9087  0.6495  2.3434
14117TIP3    H263767   2.991   0.259  16.103 -0.4208 -0.9504  0.2599
14118TIP3   OH263768   3.387   4.594  11.347  0.3454 -0.5371 -0.2553
14118TIP3    H163769   3.437   4.571  11.269  0.6756 -1.1207  0.1248
14118TIP3    H263770   3.440   4.562  11.420  1.2695  2.2851  0.3508
14119TIP3   OH263771   2.480   2.819   2.586  0.0238 -0.0784  0.3027
14119TIP3    H163772   2.495   2.844   2.677 -0.1589  0.0506  0.2987
14119TIP3    H263773   2.411   2.752   2.591 -1.8163  1.7650  0.0694
14120TIP3   OH263774   3.549   1.512   4.659  0.9157  0.0215  0.4874
14120TIP3    H163775   3.514   1.437   4.706 -2.0332  0.1406 -1.3967
14120TIP3    H263776   3.603   1.473   4.590  0.4072 -0.3210  0.2823
14121TIP3   OH263777   1.477   4.804  13.079  0.3685  0.2055  0.3493
14121TIP3    H163778   1.410   4.869  13.102  2.0084  2.3304 -0.7826
14121TIP3    H263779   1.440   4.721  13.110 -1.4433  1.7377  2.4902
14122TIP3   OH263780   1.898   5.117   0.051  0.5633  0.2762 -0.0980
14122TIP3    H163781   1.850   5.120  -0.032 -0.6284  1.5389  0.6167
14122TIP3    H263782   1.854   5.048   0.101 -0.5853  1.4750  0.5811
14123TIP3   OH263783   3.440   4.721   1.086  0.6242  0.0957  0.0155
14123TIP3    H163784   3.382   4.647   1.105 -0.9396  1.2380 -0.1936
14123TIP3    H263785   3.426   4.740   0.993  0.2469  1.2543  0.2864
14124TIP3   OH263786   2.936   2.306  10.550  0.1066  0.1536  0.2827
14124TIP3    H163787   3.026   2.329  10.530  0.1986  0.0549  0.5701
14124TIP3    H263788   2.928   2.215  10.522  0.0309  0.2327  0.0491
14125TIP3   OH263789   6.338   6.087   1.929  0.0681 -0.0341 -0.4834
14125TIP3    H163790   6.324   6.162   1.986 -2.1035  0.0976 -1.1368
14125TIP3    H263791   6.425   6.054   1.953 -1.0413 -0.3892  3.3476
14126TIP3   OH263792   5.334   0.140   5.722  0.0908  0.0493 -0.1637
14126TIP3    H163793   5.261   0.107   5.774  0.8165 -1.3348 -0.0083
14126TIP3    H263794   5.410   0.090   5.752  1.1832  1.7526 -0.0429
14127TIP3   OH263795   5.220   5.368   4.848  0.0182 -0.3260 -0.5373
14127TIP3    H163796   5.308   5.382   4.815  0.5730 -1.1278  0.5778
14127TIP3    H263797   5.191   5.454   4.877  0.8544 -0.2555  0.0949
14128TIP3   OH263798   3.144   2.197   1.417 -0.4436  0.1097  0.3230
14128TIP3    H163799   3.217   2.221   1.474 -0.0570 -0.1055 -0.0835
14128TIP3    H263800   3.185   2.158   1.340 -1.0067 -0.4641  0.3102
14129TIP3   OH263801   4.353   3.794   2.780  0.0573 -0.4756 -0.3952
14129TIP3    H163802   4.315   3.801   2.692 -0.5890 -0.7969 -0.1467
14129TIP3    H263803   4.317   3.713   2.815 -0.7610  0.3342  0.6736
14130TIP3   OH263804   4.857   0.423  13.702  0.0356 -0.3749  0.1013
14130TIP3    H163805   4.817   0.457  13.782 -0.2823 -0.7705  0.1117
14130TIP3    H263806   4.928   0.366  13.733  1.0509  0.8395  0.0740
14131TIP3   OH263807   3.091   3.587   1.590 -0.2447 -0.0376 -0.1168
14131TIP3    H163808   3.078   3.596   1.496 -1.9949  1.9923  0.2642
14131TIP3    H263809   3.093   3.492   1.606 -1.4942 -0.3974 -1.9961
14132TIP3   OH263810   2.909   4.201  13.156 -0.3124 -0.1889  0.1693
14132TIP3    H163811   2.968   4.147  13.103 -1.5293 -2.3226  0.9077
14132TIP3    H263812   2.953   4.285  13.164  2.3029 -1.5075  0.1126
14133TIP3   OH263813   1.974   0.126  17.163  0.3314 -0.2127  0.0307
14133TIP3    H163814   2.046   0.068  17.189  0.4286 -0.1868 -0.1775
14133TIP3    H263815   1.984   0.135  17.068  0.6773  0.6143  0.1360
14134TIP3   OH263816   0.824   1.610   6.732  0.2860  0.1401 -0.6399
14134TIP3    H163817   0.812   1.695   6.690  1.4974  1.4866  1.6423
14134TIP3    H263818   0.751   1.602   6.793 -0.5424 -1.0563 -1.7632
14135TIP3   OH263819   2.733   6.516   6.056  0.0412 -0.4690 -0.0035
14135TIP3    H163820   2.796   6.582   6.027 -0.5526  0.2424  0.3204
14135TIP3    H263821   2.738   6.448   5.989 -0.2667  0.4890 -1.0215
14136TIP3   OH263822   5.032   0.184  11.223  0.4934 -0.3005 -0.1277
14136TIP3    H163823   5.073   0.130  11.156  0.1779 -0.0436 -0.5391
14136TIP3    H263824   4.969   0.126  11.267 -0.9624  0.1181 -1.5984
14137TIP3   OH263825   5.227   1.811   5.360  0.5381 -0.4034  0.2105
14137TIP3    H163826   5.168   1.747   5.321  0.1714  0.6585 -1.0248
14137TIP3    H263827   5.289   1.832   5.291 -0.6951  2.2217 -0.1790
14138TIP3   OH263828   4.140   4.970  16.911  0.2878  0.8117 -0.4729
14138TIP3    H163829   4.219   4.949  16.862  0.3242  1.2920 -0.6225
14138TIP3    H263830   4.093   5.032  16.856  1.3882  3.0700  1.0876
14139TIP3   OH263831   1.646   6.193   3.463  0.3545  0.2556  0.4059
14139TIP3    H163832   1.667   6.122   3.523  1.5952  1.1324  1.0406
14139TIP3    H263833   1.585   6.155   3.401 -0.6291 -0.7889  1.9841
14140TIP3   OH263834   0.109   6.416   3.101  0.1616  0.4146 -0.1275
14140TIP3    H163835   0.059   6.491   3.068 -1.0469  0.1119  0.9911
14140TIP3    H263836   0.043   6.349   3.119  1.1104 -0.4825  0.0571
14141TIP3   OH263837   4.098   1.027   5.532 -0.0034 -0.2633  0.5414
14141TIP3    H163838   4.151   0.967   5.478 -1.0623 -0.3016 -0.4831
14141TIP3    H263839   4.077   1.099   5.473 -0.6439  0.0103  1.1043
14142TIP3   OH263840   2.292   1.839  15.824  0.4108  0.8567 -0.8862
14142TIP3    H163841   2.349   1.790  15.765 -0.4053  0.3054 -1.2272
14142TIP3    H263842   2.351   1.896  15.874  1.2247  0.4604 -1.3985
14143TIP3   OH263843   3.855   3.175  13.651  0.1051 -0.2108  0.4215
14143TIP3    H163844   3.869   3.262  13.687  2.5448  0.2745 -1.5533
14143TIP3    H263845   3.927   3.162  13.589 -0.9452 -3.1031 -0.3098
14144TIP3   OH263846   2.382   6.328  12.041  0.2001  0.4887  0.3214
14144TIP3    H163847   2.433   6.304  11.964  2.6931 -2.8344  2.8846
14144TIP3    H263848   2.298   6.285  12.029 -0.0361  1.3942 -1.3224
14145TIP3   OH263849   6.538   0.631   3.358 -0.3616 -0.0309  0.2626
14145TIP3    H163850   6.600   0.656   3.290  0.8837 -1.0157  1.0190
14145TIP3    H263851   6.550   0.536   3.368 -0.8203  0.0393  1.5441
14146TIP3   OH263852   6.752   1.679   5.491  0.0810  0.5522 -0.1113
14146TIP3    H163853   6.692   1.694   5.564  0.9429 -1.1993  0.9668
14146TIP3    H263854   6.713   1.608   5.441  0.2137  0.7897 -0.5573
14147TIP3   OH263855   5.741   4.569   4.562  0.1052  0.5978  0.2154
14147TIP3    H163856   5.715   4.601   4.476  0.6774 -0.5906 -0.4126
14147TIP3    H263857   5.788   4.642   4.602  1.2985  0.6030 -1.1563
14148TIP3   OH263858   5.346   5.764   3.559 -0.4729 -0.3009  0.1744
14148TIP3    H163859   5.432   5.768   3.602  0.3686 -1.3977 -1.3153
14148TIP3    H263860   5.286   5.737   3.628  0.7907 -1.7190  0.7666
14149TIP3   OH263861   2.348   0.557  13.660 -0.5696 -0.7764 -0.1210
14149TIP3    H163862   2.421   0.566  13.600 -1.0534 -3.3209 -1.1459
14149TIP3    H263863   2.385   0.512  13.736 -1.4484 -4.0116 -1.5218
14150TIP3   OH263864   4.955   6.046   2.386 -0.2479  0.2113 -0.8130
14150TIP3    H163865   4.987   5.958   2.403 -1.2110  0.1767  0.9254
14150TIP3    H263866   5.023   6.086   2.331  2.1114 -0.3228  1.6189
14151TIP3   OH263867   4.987   3.507   1.641 -0.0504 -0.3682 -0.0537
14151TIP3    H163868   4.960   3.419   1.669 -0.2611 -1.3823 -3.2867
14151TIP3    H263869   4.908   3.545   1.603  1.0332 -0.2935 -2.2563
14152TIP3   OH263870   1.096   2.851   0.689 -0.6139  0.0823 -0.0249
14152TIP3    H163871   1.119   2.779   0.747 -0.6428 -1.0399 -1.3935
14152TIP3    H263872   1.171   2.861   0.630 -1.0149  0.5210 -0.4737
14153TIP3   OH263873   4.374   0.070   4.873 -0.2200 -0.3816 -0.0529
14153TIP3    H163874   4.354   0.162   4.888 -0.2867  0.0274 -2.3895
14153TIP3    H263875   4.465   0.061   4.901  0.4226  0.8926 -1.6453
14154TIP3   OH263876   6.455   5.289   4.642 -0.0683 -0.1932  0.1260
14154TIP3    H163877   6.477   5.352   4.710 -1.3840 -0.5302  0.8785
14154TIP3    H263878   6.407   5.220   4.688  0.7904 -1.4243 -0.7974
14155TIP3   OH263879   0.528   3.976  13.369  0.0206  0.0868 -0.6937
14155TIP3    H163880   0.607   3.934  13.403 -0.3395 -0.8704 -1.0266
14155TIP3    H263881   0.560   4.043  13.309  0.5816 -0.5980 -1.1722
14156TIP3   OH263882   5.102   1.941  17.188 -0.4178  0.3294 -0.2435
14156TIP3    H163883   5.090   2.026  17.230  2.1121  0.7846 -0.3661
14156TIP3    H263884   5.022   1.928  17.137 -1.8675  1.5268  1.6632
14157TIP3   OH263885   0.928   5.276   3.736 -0.5478 -0.1646  0.3022
14157TIP3    H163886   0.845   5.318   3.716 -1.1927 -1.7672 -0.5056
14157TIP3    H263887   0.911   5.224   3.815 -1.1863 -2.8231 -1.5010
14158TIP3   OH263888   1.999   0.793  12.978  0.5200 -0.3517  0.4444
14158TIP3    H163889   2.078   0.768  12.929  0.6841 -0.3772  0.7173
14158TIP3    H263890   2.027   0.869  13.029 -0.7163  2.1821 -2.4690
14159TIP3   OH263891   1.179   4.029  16.303  0.1312 -0.2938  0.3782
14159TIP3    H163892   1.163   4.018  16.397  0.0693 -1.0959  0.2770
14159TIP3    H263893   1.094   4.054  16.267  0.3991  1.1164  0.6936
14160TIP3   OH263894   0.029   1.724   1.376  0.0692  0.1324  0.3297
14160TIP3    H163895   0.013   1.815   1.402 -0.0080 -0.3200  1.9355
14160TIP3    H263896  -0.052   1.678   1.399  1.1714 -0.8889  2.3200
14161TIP3   OH263897   4.915   4.292  15.459  0.2569 -0.6228 -0.6349
14161TIP3    H163898   4.901   4.323  15.370 -2.6872 -1.1078 -0.3677
14161TIP3    H263899   4.950   4.204  15.448  1.1453 -0.2062 -1.2908
14162TIP3   OH263900   5.050   4.143   5.835  0.5793 -0.0369 -0.5330
14162TIP3    H163901   5.001   4.060   5.833 -0.9671  0.8558 -0.0219
14162TIP3    H263902   5.008   4.196   5.767  2.4709 -0.1481 -1.8330
14163TIP3   OH263903   2.202   0.471  15.747 -0.0714  0.2089  0.7491
14163TIP3    H163904   2.294   0.479  15.724 -0.4991  0.5105 -0.9984
14163TIP3    H263905   2.201   0.456  15.841  1.7543  0.2087  0.7817
14164TIP3   OH263906   3.427   0.977   2.283 -0.2698  0.1762  0.1195
14164TIP3    H163907   3.425   1.060   2.330  0.2191 -0.2888  0.9835
14164TIP3    H263908   3.433   1.002   2.191 -2.1427  1.0977  0.2378
14165TIP3   OH263909   1.514   1.530  12.818 -0.5798 -0.1826 -0.5469
14165TIP3    H163910   1.547   1.566  12.900 -2.8240 -0.6738  0.5946
14165TIP3    H263911   1.588   1.537  12.757  0.6353  1.5502  1.0869
14166TIP3   OH263912   6.451   1.907  14.420 -0.3129 -0.7098  0.1211
14166TIP3    H163913   6.373   1.882  14.471 -0.3746  0.3203  0.5394
14166TIP3    H263914   6.426   1.890  14.329 -0.8349 -0.8783  0.2915
14167TIP3   OH263915   4.623   4.882  15.122  0.7016  0.1487  0.3207
14167TIP3    H163916   4.691   4.948  15.137  2.0825 -1.4030  1.0159
14167TIP3    H263917   4.595   4.857  15.210 -0.7338  0.7273  0.0347
14168TIP3   OH263918   3.918   0.475  13.678  0.3060  0.2729 -0.3132
14168TIP3    H163919   3.992   0.512  13.726  1.2112 -1.5296 -0.2854
14168TIP3    H263920   3.847   0.538  13.691  1.8349  2.0444 -0.3761
14169TIP3   OH263921   1.557   1.183   3.474  0.5580 -0.6635  0.5848
14169TIP3    H163922   1.523   1.243   3.541 -0.0860  0.5735 -0.8362
14169TIP3    H263923   1.596   1.111   3.525 -1.5739 -0.6941  2.2955
14170TIP3   OH263924   1.958   0.729   3.941  0.6391 -0.1838  0.1270
14170TIP3    H163925   1.887   0.668   3.923  0.7432  0.5042 -2.9151
14170TIP3    H263926   2.029   0.674   3.975  0.0432 -1.4468 -0.6567
14171TIP3   OH263927   0.842   0.521  11.812  0.2911  0.0300  0.1937
14171TIP3    H163928   0.831   0.611  11.781 -0.2145  0.3140  1.1877
14171TIP3    H263929   0.796   0.468  11.748  0.2148  0.5148 -0.1533
14172TIP3   OH263930   3.507   3.156  15.198  0.3390 -0.4136  0.3429
14172TIP3    H163931   3.499   3.136  15.291 -0.0046 -0.5052  0.2926
14172TIP3    H263932   3.417   3.173  15.169  0.1910 -2.5038 -0.4655
14173TIP3   OH263933   5.832   0.035  12.599  0.0810  0.1516  0.1788
14173TIP3    H163934   5.830   0.011  12.691  0.4680  0.1659  0.1888
14173TIP3    H263935   5.882   0.117  12.596  0.1563  0.0984 -0.0555
14174TIP3   OH263936   1.533   0.463  11.361 -0.1704 -0.1644  0.4662
14174TIP3    H163937   1.477   0.392  11.392 -0.3646  0.1280  0.7847
14174TIP3    H263938   1.545   0.519  11.437  2.9731 -1.7610  1.2610
14175TIP3   OH263939   2.434   6.752  14.093  0.3760 -0.1776 -0.0243
14175TIP3    H163940   2.349   6.714  14.072  0.8351 -0.3560 -1.6006
14175TIP3    H263941   2.463   6.704  14.171 -0.7891 -0.3735  0.2956
14176TIP3   OH263942   6.086   1.542   2.725  0.5057 -0.1771  0.1172
14176TIP3    H163943   6.053   1.552   2.636  1.0588  2.2373  0.1367
14176TIP3    H263944   6.168   1.593   2.726  0.8602 -0.7306  1.8154
14177TIP3   OH263945   4.376   1.846  14.627  0.3250 -0.0205  0.4478
14177TIP3    H163946   4.411   1.908  14.564 -2.2520  0.5287 -0.4985
14177TIP3    H263947   4.283   1.838  14.605  0.2786 -3.0720  1.5041
14178TIP3   OH263948   3.787   6.330   2.550 -0.4933 -0.1372 -0.6169
14178TIP3    H163949   3.761   6.273   2.623  2.0404 -0.5021  0.0569
14178TIP3    H263950   3.762   6.281   2.471 -0.6496 -1.0450 -0.0111
14179TIP3   OH263951   4.187   2.926   1.075  0.2981  1.0913  0.1364
14179TIP3    H163952   4.240   2.949   1.151  0.1457  0.6959  0.3617
14179TIP3    H263953   4.117   2.991   1.073  1.6820  2.5957 -1.0832
14180TIP3   OH263954   0.308   6.613   2.980  0.2594  0.0183  0.1843
14180TIP3    H163955   0.243   6.579   3.041  0.6547 -0.1978  0.4881
14180TIP3    H263956   0.389   6.570   3.005  0.1982 -0.9664 -1.2330
14181TIP3   OH263957   0.200   2.645   5.704  0.4020  0.1038 -0.8873
14181TIP3    H163958   0.177   2.581   5.770 -0.2757  0.0012 -1.2257
14181TIP3    H263959   0.293   2.664   5.721  0.5020 -0.6693 -0.5469
14182TIP3   OH263960   5.905   3.459  11.821  0.3346 -0.1822  0.2384
14182TIP3    H163961   5.860   3.541  11.843 -1.7291 -0.8129 -1.4616
14182TIP3    H263962   5.998   3.482  11.821 -0.0688  1.6197  1.9573
14183TIP3   OH263963   1.716   4.723  13.384  0.0732 -0.3364  0.2421
14183TIP3    H163964   1.696   4.816  13.376 -0.3897 -0.5993 -2.2009
14183TIP3    H263965   1.807   4.715  13.354 -0.3863 -0.8666 -1.0394
14184TIP3   OH263966   3.324   3.917   2.639 -0.4851 -0.1518  0.2977
14184TIP3    H163967   3.263   3.930   2.566 -1.5271 -0.7094  1.0477
14184TIP3    H263968   3.385   3.991   2.633 -0.3066 -0.4222 -1.3709
14185TIP3   OH263969   6.447   0.744  14.448  0.0712 -0.3546  0.5302
14185TIP3    H163970   6.396   0.712  14.522  0.4680 -0.4127  0.7814
14185TIP3    H263971   6.538   0.724  14.471  0.3540  1.2184  0.8322
14186TIP3   OH263972   4.344   6.563   6.338  0.4773 -0.0192 -0.1402
14186TIP3    H163973   4.265   6.520   6.370 -0.4985 -0.6456 -3.2113
14186TIP3    H263974   4.395   6.493   6.297  0.4948  1.1157 -2.1427
14187TIP3   OH263975   2.844   0.627  17.190 -0.6257 -0.5750 -0.3319
14187TIP3    H163976   2.928   0.640  17.146 -0.4145  0.0715  0.2414
14187TIP3    H263977   2.835   0.532  17.199  1.1918 -0.5684  1.7857
14188TIP3   OH263978   6.453   6.277  15.153  1.0237 -0.4283  0.0068
14188TIP3    H163979   6.448   6.188  15.118  0.1126 -0.3645 -0.0374
14188TIP3    H263980   6.373   6.287  15.205  0.2370  0.9923 -1.4484
14189TIP3   OH263981   0.547   5.426   4.380 -0.2516 -0.2764  0.1061
14189TIP3    H163982   0.487   5.402   4.450 -1.6885 -0.7530 -1.2495
14189TIP3    H263983   0.507   5.502   4.339 -0.5635 -1.2974 -1.5460
14190TIP3   OH263984   0.695   2.944  13.868  0.2622 -0.3155 -0.1077
14190TIP3    H163985   0.638   2.868  13.882 -0.4078  0.2576  0.3224
14190TIP3    H263986   0.767   2.931  13.930  0.2333 -0.6797 -0.1483
14191TIP3   OH263987   0.780   1.767  16.437  0.0261 -0.1927 -0.0543
14191TIP3    H163988   0.711   1.787  16.374 -1.2987 -0.1101  1.3887
14191TIP3    H263989   0.733   1.742  16.516  1.6320  1.2053  1.3770
14192TIP3   OH263990   0.002   4.291   3.900  0.7053 -0.5513 -0.1746
14192TIP3    H163991  -0.055   4.319   3.828  1.2917  0.0226 -0.4144
14192TIP3    H263992   0.068   4.236   3.858  0.1110 -1.5453  0.1594
14193TIP3   OH263993   0.482   3.789   5.110 -0.2271 -0.1128 -0.5095
14193TIP3    H163994   0.498   3.783   5.016 -0.7289  1.3336 -0.6943
14193TIP3    H263995   0.470   3.882   5.127  0.8425 -0.2451  1.1563
14194TIP3   OH263996   2.056   0.960   1.956 -0.5137  0.4077 -0.6721
14194TIP3    H163997   2.127   0.897   1.970  0.5441  1.9664  1.2141
14194TIP3    H263998   1.985   0.927   2.010 -0.2614  0.3850 -0.3535
14195TIP3   OH263999   5.520   0.599  11.475  0.3421 -0.0914 -0.0407
14195TIP3    H164000   5.603   0.586  11.429  0.0286 -1.8061 -0.1790
14195TIP3    H264001   5.473   0.517  11.461 -1.4504  0.9255 -0.1007
14196TIP3   OH264002   5.091   2.709   3.905  0.1673 -0.1879 -0.3452
14196TIP3    H164003   5.086   2.670   3.992  0.0572  1.6938  0.5079
14196TIP3    H264004   5.180   2.691   3.876 -0.0847 -1.6415 -0.2450
14197TIP3   OH264005   4.829   4.481  15.704  0.2904  0.1808 -0.4872
14197TIP3    H164006   4.901   4.466  15.643  0.6270 -0.9090  0.1446
14197TIP3    H264007   4.755   4.506  15.649  0.9119  0.4088 -1.2256
14198TIP3   OH264008   2.235   0.156   1.539  0.6225  0.0116 -0.4711
14198TIP3    H164009   2.196   0.157   1.626 -1.0402  1.7018 -1.1954
14198TIP3    H264010   2.187   0.087   1.492  1.6545 -1.0346  0.0035
14199TIP3   OH264011   0.689   3.323  13.467  0.2879 -0.5166 -0.0839
14199TIP3    H164012   0.681   3.336  13.562 -1.2160  2.5167 -0.5728
14199TIP3    H264013   0.600   3.305  13.438  0.7977 -1.7610 -0.9225
14200TIP3   OH264014   0.219   2.483   1.129  0.6477  0.1026 -0.0838
14200TIP3    H164015   0.231   2.542   1.203 -0.5283  0.5528 -0.2352
14200TIP3    H264016   0.156   2.417   1.161  0.6408 -0.0786 -0.4666
14201TIP3   OH264017   2.911   4.994  15.035  0.2162  0.3926 -1.0767
14201TIP3    H164018   2.895   4.976  14.942  4.1430  1.7659 -2.1263
14201TIP3    H264019   2.949   4.913  15.068  0.9678  0.6494 -1.2871
14202TIP3   OH264020   1.533   4.490   3.442  0.0702 -0.4570 -0.3050
14202TIP3    H164021   1.568   4.427   3.379 -0.4301  0.5088 -1.5733
14202TIP3    H264022   1.610   4.536   3.476  0.2917 -0.5167 -0.7229
14203TIP3   OH264023   2.596   3.451  11.940 -0.2638 -1.2616 -0.4092
14203TIP3    H164024   2.662   3.461  12.009 -0.6529  0.3115 -0.2533
14203TIP3    H264025   2.522   3.407  11.983  0.0983 -1.6925 -0.2216
14204TIP3   OH264026   5.075   0.453  14.869 -0.0484 -0.5909  0.4438
14204TIP3    H164027   4.994   0.447  14.818  1.1331  0.2235 -1.6087
14204TIP3    H264028   5.073   0.540  14.907  0.7920  0.2092 -1.2891
14205TIP3   OH264029   1.750   5.814   2.376  0.6216 -0.7060 -0.1820
14205TIP3    H164030   1.709   5.738   2.417 -0.1493  1.3259  2.9901
14205TIP3    H264031   1.740   5.884   2.440  1.1673  2.1475 -3.0760
14206TIP3   OH264032   0.652   1.261  15.305  0.9366  0.7885 -0.0459
14206TIP3    H164033   0.587   1.315  15.259  1.1195  0.8419 -0.2410
14206TIP3    H264034   0.602   1.186  15.339  0.7117  0.9976  0.0886
14207TIP3   OH264035   2.865   2.695   1.825  0.4192  0.2888  0.1914
14207TIP3    H164036   2.885   2.658   1.911  2.7363  1.1433  0.0504
14207TIP3    H264037   2.799   2.762   1.842  1.2575  0.8339  1.4042
14208TIP3   OH264038   4.281   0.838  16.710 -0.8597  0.0122  0.1998
14208TIP3    H164039   4.342   0.911  16.723 -1.3000  0.2721  0.8301
14208TIP3    H264040   4.306   0.773  16.775 -0.1043 -0.6510 -0.7347
14209TIP3   OH264041   5.123   0.659   4.941  0.2823 -0.2506  0.6944
14209TIP3    H164042   5.070   0.587   4.976 -1.1491 -0.5183 -1.8985
14209TIP3    H264043   5.190   0.615   4.888 -0.9809  0.3094 -1.4175
14210TIP3   OH264044   4.323   5.125   2.425  0.2223 -0.1667 -0.2673
14210TIP3    H164045   4.320   5.053   2.362 -1.7253  0.9056 -1.4495
14210TIP3    H264046   4.319   5.204   2.372  0.9025  0.7903  1.0874
14211TIP3   OH264047   4.891   5.393  14.029  0.0369  0.5367  0.0339
14211TIP3    H164048   4.941   5.441  13.963  0.1293 -0.3148 -0.5251
14211TIP3    H264049   4.910   5.301  14.011 -0.3828  0.2783  0.8982
14212TIP3   OH264050   2.980   5.218  16.266  0.5245 -0.7566  0.3467
14212TIP3    H164051   3.048   5.280  16.291 -0.1259  0.4393 -0.7977
14212TIP3    H264052   3.028   5.140  16.238  1.3309 -0.8828  2.0083
14213TIP3   OH264053   5.421   2.014  11.711 -0.2422 -0.2885 -0.0547
14213TIP3    H164054   5.457   2.061  11.786  0.2542 -0.4495 -0.1867
14213TIP3    H264055   5.468   2.049  11.636  0.2375 -1.0829 -0.1366
14214TIP3   OH264056   5.913   0.831   1.679 -0.4098 -0.3426  0.0028
14214TIP3    H164057   5.979   0.769   1.650 -1.0895 -0.7877 -0.5987
14214TIP3    H264058   5.864   0.853   1.600 -0.1737  0.9625  0.2098
14215TIP3   OH264059   6.046   5.097   5.382  0.1800 -0.0295 -0.0556
14215TIP3    H164060   6.139   5.115   5.373  0.3923 -1.2268 -0.2866
14215TIP3    H264061   6.038   5.002   5.374 -1.1058  0.0963 -0.4673
14216TIP3   OH264062   0.447   2.042  13.910 -0.5466  0.3129  0.1527
14216TIP3    H164063   0.393   2.104  13.959 -0.1517 -1.9088  3.5113
14216TIP3    H264064   0.384   1.976  13.879 -0.2168 -0.6543  1.4975
14217TIP3   OH264065   3.817   5.193  16.708  0.1929  0.0306  0.4394
14217TIP3    H164066   3.778   5.136  16.643  0.5688 -1.2869  1.3501
14217TIP3    H264067   3.906   5.160  16.720  0.6807  1.2881  0.4059
14218TIP3   OH264068   3.219   5.549  12.051  0.2024  0.5591 -0.1981
14218TIP3    H164069   3.195   5.461  12.022 -0.3897  0.9011 -0.7576
14218TIP3    H264070   3.231   5.599  11.971 -3.1805  1.9831  0.0834
14219TIP3   OH264071   4.857   4.456   0.221 -0.5959  0.2664 -0.2643
14219TIP3    H164072   4.856   4.480   0.314 -0.9186 -1.4844  0.1888
14219TIP3    H264073   4.932   4.398   0.212 -1.2686 -0.5293 -0.8429
14220TIP3   OH264074   0.130   3.165  11.298 -0.8255 -0.0605  0.4795
14220TIP3    H164075   0.104   3.199  11.212 -0.5919  0.3406  0.5641
14220TIP3    H264076   0.183   3.088  11.278 -0.0102  0.5625  0.2399
14221TIP3   OH264077   1.735   6.164  14.371 -0.1142 -0.8727  0.0285
14221TIP3    H164078   1.671   6.140  14.304  1.5755 -2.8871 -0.8927
14221TIP3    H264079   1.714   6.109  14.446  0.3642 -1.3404 -0.1785
14222TIP3   OH264080   1.605   1.631  14.094  0.3387  0.1963 -0.4651
14222TIP3    H164081   1.533   1.617  14.033  1.2393 -2.4527 -0.9897
14222TIP3    H264082   1.634   1.543  14.118  1.3602  1.1995  2.1855
14223TIP3   OH264083   3.700   0.856  14.393  0.2845 -0.3000  0.6292
14223TIP3    H164084   3.665   0.817  14.312  2.2952 -1.8798  0.4880
14223TIP3    H264085   3.737   0.940  14.365 -0.8840  0.1081  0.2897
14224TIP3   OH264086   4.606   1.821   5.605 -0.0649 -0.1052  0.0750
14224TIP3    H164087   4.596   1.732   5.637  1.5320 -0.4735 -0.4442
14224TIP3    H264088   4.662   1.864   5.670  1.0929 -0.1494 -0.8756
14225TIP3   OH264089   2.364   5.238  16.564  1.1122  0.1319  0.7029
14225TIP3    H164090   2.322   5.165  16.519 -0.2756  0.1926  1.8691
14225TIP3    H264091   2.382   5.206  16.652  2.1614  0.5997  0.6603
14226TIP3   OH264092   4.738   4.673  16.985  0.3859  0.4259  0.5708
14226TIP3    H164093   4.804   4.688  17.053 -1.3104  1.6915  1.9866
14226TIP3    H264094   4.739   4.579  16.970  2.4609  0.4164  0.6131
14227TIP3   OH264095   2.681   0.835  17.203  0.0535  0.2524 -0.1411
14227TIP3    H164096   2.734   0.756  17.206  0.3353  0.4464  0.0198
14227TIP3    H264097   2.697   0.871  17.115 -0.0673  0.1385 -0.2113
14228TIP3   OH264098   0.888   3.748  14.651  0.2468 -0.1759  0.0168
14228TIP3    H164099   0.815   3.710  14.601  0.2388 -0.0111 -0.0980
14228TIP3    H264100   0.959   3.685  14.641  0.0051 -0.5241  0.4450
14229TIP3   OH264101   1.687   3.056   1.913  0.3980  0.0279  0.1034
14229TIP3    H164102   1.780   3.033   1.905  0.7916  1.1539  1.2415
14229TIP3    H264103   1.676   3.130   1.853  0.2990  0.0776  0.1844
14230TIP3   OH264104   6.299   3.107   6.276 -0.3777 -0.1912  0.2226
14230TIP3    H164105   6.337   3.066   6.199 -1.0488  1.1371 -0.8410
14230TIP3    H264106   6.289   3.199   6.252 -1.8760 -0.0229  1.3761
14231TIP3   OH264107   2.668   4.102   2.862  0.0238 -0.1167  0.2009
14231TIP3    H164108   2.725   4.169   2.901 -0.5607  0.1955  0.5251
14231TIP3    H264109   2.684   4.109   2.768 -2.1976  2.5168 -0.0581
14232TIP3   OH264110   4.551   0.376  12.466 -0.4458  0.3742  0.2127
14232TIP3    H164111   4.543   0.281  12.479 -0.7818  0.1343 -1.6860
14232TIP3    H264112   4.598   0.385  12.384 -3.0079  1.8449 -1.1501
14233TIP3   OH264113   5.415   2.805   2.897 -0.5056 -0.3422 -0.3041
14233TIP3    H164114   5.504   2.840   2.902  0.0199 -1.8636  1.1401
14233TIP3    H264115   5.362   2.866   2.948 -0.1434  0.0534 -0.3955
14234TIP3   OH264116   3.481   2.311  10.460 -0.0782  0.3183  0.3835
14234TIP3    H164117   3.552   2.374  10.468 -0.8671  1.3350 -0.4356
14234TIP3    H264118   3.485   2.259  10.541  1.2940  0.6603  0.5376
14235TIP3   OH264119   4.221   6.280   3.079  0.6656  0.0514 -0.3813
14235TIP3    H164120   4.308   6.243   3.069  1.3945  1.6937 -0.2193
14235TIP3    H264121   4.166   6.205   3.103  2.3260 -0.7404  1.0905
14236TIP3   OH264122   4.182   1.598   0.788  0.5869 -0.3209 -0.2278
14236TIP3    H164123   4.157   1.517   0.742  0.3523 -1.2015  1.4060
14236TIP3    H264124   4.256   1.572   0.843  0.5200  0.5873  0.2960
14237TIP3   OH264125   2.628   6.531   5.044 -0.0319 -0.0732  0.0269
14237TIP3    H164126   2.581   6.475   5.106 -1.7066  0.8010 -0.4262
14237TIP3    H264127   2.625   6.484   4.961 -1.3152  0.6106 -0.3210
14238TIP3   OH264128   4.848   2.199  12.682  0.4077  0.1088  0.0768
14238TIP3    H164129   4.924   2.145  12.702  1.3565  1.7489  1.0423
14238TIP3    H264130   4.869   2.285  12.719 -1.7114  0.7227 -0.0473
14239TIP3   OH264131   0.710   3.921  17.219 -0.3999 -0.0767 -0.4556
14239TIP3    H164132   0.704   3.919  17.124 -0.6355 -0.4727 -0.4351
14239TIP3    H264133   0.727   3.831  17.244  0.0807  0.1005 -0.1459
14240TIP3   OH264134   0.583   3.157  15.617 -0.1424 -0.5550  0.6135
14240TIP3    H164135   0.663   3.207  15.629 -0.1020 -0.1878 -1.1461
14240TIP3    H264136   0.612   3.068  15.601 -0.1013 -0.4701  0.2242
14241TIP3   OH264137   2.876   6.240  11.833  0.4499  0.1660 -0.2992
14241TIP3    H164138   2.812   6.210  11.769  0.5989 -0.6826 -0.0625
14241TIP3    H264139   2.825   6.289  11.898  0.4023  1.6576 -1.4374
14242TIP3   OH264140   3.276   1.509   1.086  0.0652 -0.1300 -0.4090
14242TIP3    H164141   3.324   1.568   1.028 -1.2268  2.1740  0.7884
14242TIP3    H264142   3.245   1.566   1.156 -0.7763 -2.3666  1.0579
14243TIP3   OH264143   6.061   0.308  12.035 -0.5286 -0.0679  0.2684
14243TIP3    H164144   5.984   0.252  12.027 -1.6131  1.2063  1.5909
14243TIP3    H264145   6.109   0.272  12.110 -2.1204  1.7562  2.2333
14244TIP3   OH264146   6.161   1.612   4.497  0.3023  0.3191 -0.1917
14244TIP3    H164147   6.234   1.550   4.490 -1.1445 -1.3877 -0.5857
14244TIP3    H264148   6.112   1.600   4.416 -0.3471  1.5350  0.0174
14245TIP3   OH264149   0.304   1.986  15.685  0.0640 -0.8531  0.0031
14245TIP3    H164150   0.365   1.914  15.696 -0.5853 -1.0953  2.3528
14245TIP3    H264151   0.359   2.061  15.661  1.0568 -1.5067  0.2287
14246TIP3   OH264152   4.057   2.418  13.998 -0.2113 -0.4262 -0.8122
14246TIP3    H164153   4.106   2.347  14.040 -0.9837 -0.7599 -0.4692
14246TIP3    H264154   4.056   2.394  13.905 -1.4912 -1.4946 -0.5402
14247TIP3   OH264155   1.193   5.419   0.322 -0.5851 -0.0069  0.3742
14247TIP3    H164156   1.152   5.432   0.408 -1.4008 -0.9208  0.1259
14247TIP3    H264157   1.212   5.508   0.291 -1.2687  0.3708  1.0196
14248TIP3   OH264158   2.561   3.887  13.629  0.0280 -0.0800  0.1133
14248TIP3    H164159   2.655   3.892  13.608 -0.5388 -0.6025 -2.7106
14248TIP3    H264160   2.539   3.976  13.657  1.4498 -0.0405  1.1470
14249TIP3   OH264161   3.438   5.485  12.203 -0.2313  0.0097 -0.0683
14249TIP3    H164162   3.362   5.498  12.146 -0.4057  1.0331  0.3932
14249TIP3    H264163   3.400   5.468  12.289  0.0493 -0.4611 -0.0355
14250TIP3   OH264164   1.454   2.454  15.373 -0.1280  0.2035 -0.4632
14250TIP3    H164165   1.411   2.525  15.325 -1.1031 -0.0712 -0.0106
14250TIP3    H264166   1.539   2.490  15.397 -0.2802  0.9190 -0.9692
14251TIP3   OH264167   5.069   5.672  15.314  0.3670 -0.6783  0.1556
14251TIP3    H164168   5.061   5.621  15.394  0.5953 -1.8344 -0.5443
14251TIP3    H264169   5.038   5.613  15.245  0.0558  0.3420 -0.5947
14252TIP3   OH264170   6.632   2.676   0.963  0.2573 -0.1387  0.3241
14252TIP3    H164171   6.557   2.678   1.023 -0.7576  0.3104 -0.9546
14252TIP3    H264172   6.646   2.583   0.945 -1.7700 -0.0873 -1.6359
14253TIP3   OH264173   4.020   0.546  14.315  0.0684  0.1617 -0.3702
14253TIP3    H164174   4.012   0.630  14.360  1.9249 -0.3980  1.0478
14253TIP3    H264175   4.070   0.491  14.375 -2.3883 -2.4669 -0.6220
14254TIP3   OH264176   2.970   6.075  12.346 -0.2048 -0.3816  0.2720
14254TIP3    H164177   2.979   6.103  12.255 -1.3383  0.7293  0.4942
14254TIP3    H264178   2.880   6.044  12.354 -0.5985  0.9945  1.3935
14255TIP3   OH264179   3.350   3.072  12.375  0.4924  0.3744  0.5561
14255TIP3    H164180   3.327   3.165  12.366 -1.8883 -0.1831  0.5731
14255TIP3    H264181   3.299   3.042  12.451  1.6821 -0.8054  0.8984
14256TIP3   OH264182   2.140   5.628  15.516  0.5838  0.3057  0.2634
14256TIP3    H164183   2.219   5.575  15.504 -0.3417 -0.8707 -0.8039
14256TIP3    H264184   2.173   5.715  15.537  2.1456 -0.6605  2.0305
14257TIP3   OH264185   0.296   1.131  15.611 -0.1830  0.1049  0.5901
14257TIP3    H164186   0.302   1.117  15.705  0.3022 -2.0952  0.2693
14257TIP3    H264187   0.376   1.092  15.576 -1.3751 -1.0551 -0.9053
14258TIP3   OH264188   1.174   4.835   4.403 -0.0805 -0.4386 -0.7857
14258TIP3    H164189   1.168   4.859   4.495 -3.3921 -0.7274 -0.8806
14258TIP3    H264190   1.222   4.907   4.363  0.0858  0.4175  0.9106
14259TIP3   OH264191   1.684   3.865   4.580  0.8148  0.6673 -0.1758
14259TIP3    H164192   1.596   3.885   4.550  1.2720  0.8297 -1.4622
14259TIP3    H264193   1.697   3.773   4.558  0.0706 -0.0508  2.3042
14260TIP3   OH264194   6.010   1.864  12.800  0.1620 -0.2642 -0.0597
14260TIP3    H164195   5.982   1.778  12.771 -0.0499  0.4836 -2.1229
14260TIP3    H264196   6.048   1.905  12.723 -0.0346  1.6227  0.8076
14261TIP3   OH264197   3.538   4.076  14.209  0.2390  0.6453  0.1795
14261TIP3    H164198   3.569   4.083  14.119  0.1293  2.2444  0.2374
14261TIP3    H264199   3.451   4.038  14.202 -0.5034  2.4079 -0.5687
14262TIP3   OH264200   0.397   2.700  16.241 -0.1911 -0.1797 -0.0742
14262TIP3    H164201   0.372   2.632  16.305 -1.0438 -1.4088 -1.6676
14262TIP3    H264202   0.473   2.663  16.197 -0.5305 -0.0021 -0.8023
14263TIP3   OH264203   2.041   5.247   3.719  0.3456  0.4068  0.7828
14263TIP3    H164204   2.021   5.295   3.799  1.4408  1.0229  0.6991
14263TIP3    H264205   1.960   5.202   3.697 -0.5856  1.9197  1.0809
14264TIP3   OH264206   4.088   4.218  11.971  0.3573  0.3445 -0.4613
14264TIP3    H164207   4.148   4.158  12.016  0.9888  2.5505  1.7448
14264TIP3    H264208   4.131   4.237  11.888  1.4006 -0.2375 -0.0653
14265TIP3   OH264209   5.978   1.510  16.061  0.1646  0.1491 -0.1559
14265TIP3    H164210   5.986   1.565  15.983 -0.3230  0.6732  0.1543
14265TIP3    H264211   5.887   1.522  16.089  0.1230 -0.6343  0.0585
14266TIP3   OH264212   3.497   1.627   3.769  0.2896  0.2441 -0.3915
14266TIP3    H164213   3.497   1.690   3.841  1.3867  0.8876 -0.9339
14266TIP3    H264214   3.590   1.610   3.752 -0.0171 -2.5604  0.6274
14267TIP3   OH264215   5.610   4.557   3.096  0.1578  0.2378  1.0306
14267TIP3    H164216   5.638   4.467   3.114  0.1900  0.1777  0.6902
14267TIP3    H264217   5.690   4.609   3.101  0.3053  0.0931  0.2285
14268TIP3   OH264218   6.554   0.098   5.285  0.7809 -0.0167  0.0554
14268TIP3    H164219   6.572   0.138   5.200  0.6063 -0.5707 -0.2415
14268TIP3    H264220   6.463   0.122   5.304  0.5229 -0.6772 -0.3452
14269TIP3   OH264221   2.275   1.427  11.278 -0.2072  0.4546 -0.2980
14269TIP3    H164222   2.318   1.358  11.328  1.7129  1.6634 -0.2238
14269TIP3    H264223   2.326   1.432  11.197  0.2979  2.4278  0.1175
14270TIP3   OH264224   1.404   2.187   1.645 -0.4184 -0.0279  0.7631
14270TIP3    H164225   1.432   2.098   1.622  1.1576  0.7009 -0.2279
14270TIP3    H264226   1.485   2.233   1.666 -1.0083  1.6974 -0.6092
14271TIP3   OH264227   1.408   5.249   2.520  0.1936 -0.0903 -0.1211
14271TIP3    H164228   1.396   5.332   2.567 -0.5112 -0.7976  0.9754
14271TIP3    H264229   1.396   5.182   2.587 -1.9426 -1.1736 -1.5297
14272TIP3   OH264230   0.222   5.931   5.186  0.0567 -0.3046  0.0270
14272TIP3    H164231   0.128   5.951   5.181 -0.3973 -2.2236  0.3796
14272TIP3    H264232   0.239   5.878   5.108  0.7312 -0.3925  0.2342
14273TIP3   OH264233   4.881   3.969  15.398 -0.4546 -0.0972 -0.0194
14273TIP3    H164234   4.861   3.884  15.358  0.4741 -0.1179 -0.4490
14273TIP3    H264235   4.834   4.032  15.344  0.7263 -0.1347 -1.1173
14274TIP3   OH264236   0.843   4.760   5.997  0.0367  0.2867  0.1587
14274TIP3    H164237   0.788   4.693   5.955  0.0622  0.6635 -0.4805
14274TIP3    H264238   0.780   4.824   6.031  0.0934  1.1688 -1.3374
14275TIP3   OH264239   1.864   2.335  11.660  0.0207  1.0033  0.4959
14275TIP3    H164240   1.835   2.410  11.713  1.4376  0.9230  1.3909
14275TIP3    H264241   1.950   2.361  11.626 -0.5279  0.7478 -1.1748
14276TIP3   OH264242   1.886   0.172  12.475  0.2275 -0.1934 -0.8152
14276TIP3    H164243   1.870   0.192  12.382 -0.1778 -1.6381 -1.0802
14276TIP3    H264244   1.866   0.078  12.482 -1.1842  0.2188  1.0491
14277TIP3   OH264245   3.249   6.121  14.788  0.0169 -0.0016  0.1300
14277TIP3    H164246   3.328   6.176  14.781 -1.8238  2.6258 -0.8743
14277TIP3    H264247   3.226   6.101  14.698 -2.4461  2.2993  0.1729
14278TIP3   OH264248   3.191   6.587  13.752 -0.0074  0.0727 -0.0571
14278TIP3    H164249   3.283   6.578  13.727 -0.7431 -1.7640 -2.3084
14278TIP3    H264250   3.167   6.675  13.724  1.2949  0.9306  1.4201
14279TIP3   OH264251   6.674   3.620   4.886  0.0737 -0.2497  0.5083
14279TIP3    H164252   6.609   3.586   4.824  0.8297 -1.5333  0.3882
14279TIP3    H264253   6.636   3.604   4.972 -0.3400  0.2057  0.4134
14280TIP3   OH264254   0.750   3.142   0.592  0.1186  0.2460  0.2802
14280TIP3    H164255   0.839   3.168   0.570  0.4833  0.4953  1.9925
14280TIP3    H264256   0.753   3.047   0.598  0.3792  0.2824  0.7613
14281TIP3   OH264257   0.514   4.056  16.536 -0.2128  0.1639 -0.5867
14281TIP3    H164258   0.557   3.995  16.476  2.7384  0.3468  1.2633
14281TIP3    H264259   0.570   4.134  16.536 -0.6249  0.5035  1.6948
14282TIP3   OH264260   3.339   4.267   3.649 -0.8828  0.1334 -0.4774
14282TIP3    H164261   3.421   4.224   3.672 -0.2811  0.3434 -2.2188
14282TIP3    H264262   3.317   4.319   3.727  0.4771 -0.1266  0.0894
14283TIP3   OH264263   2.633   1.955  15.211  0.1413 -0.4812 -0.6534
14283TIP3    H164264   2.550   2.000  15.230 -0.0761 -0.0867 -2.5111
14283TIP3    H264265   2.621   1.918  15.124  1.8393 -0.6294 -0.8381
14284TIP3   OH264266   5.103   3.337   3.047  0.0712  0.1110 -0.5534
14284TIP3    H164267   5.136   3.295   2.967  0.3208 -0.3669 -0.1994
14284TIP3    H264268   5.065   3.266   3.098 -0.4368  0.4804 -0.4214
14285TIP3   OH264269   2.198   3.437   5.066 -0.2084 -0.1944 -0.0687
14285TIP3    H164270   2.138   3.487   5.011 -1.6113 -0.6723  0.9780
14285TIP3    H264271   2.182   3.346   5.043 -0.0591 -0.3376  0.3773
14286TIP3   OH264272   2.070   4.041   0.434  0.0348 -0.2126  0.9061
14286TIP3    H164273   2.004   4.049   0.366 -0.3953 -1.9353  1.1140
14286TIP3    H264274   2.028   4.074   0.513 -0.1419 -0.0870  0.7581
14287TIP3   OH264275   2.104   4.304  15.059 -0.0239 -0.2647  0.3164
14287TIP3    H164276   2.077   4.359  14.986  1.5254  0.1179  0.0024
14287TIP3    H264277   2.197   4.325  15.071 -0.1779 -0.5851  2.1605
14288TIP3   OH264278   2.930   6.613  13.636  0.4493 -0.5308 -0.0203
14288TIP3    H164279   2.983   6.604  13.557 -0.6624 -2.0058 -0.6060
14288TIP3    H264280   2.993   6.603  13.708  1.6127  1.6889 -0.6750
14289TIP3   OH264281   5.550   6.005  14.409  0.6122  0.0080  0.1639
14289TIP3    H164282   5.514   5.917  14.420 -1.5165  0.6267 -1.4417
14289TIP3    H264283   5.557   6.017  14.314 -0.2409  1.9654  0.3099
14290TIP3   OH264284   5.167   2.743   5.371  0.3731 -0.0765 -0.4916
14290TIP3    H164285   5.155   2.652   5.398  0.9593 -0.3877 -1.2533
14290TIP3    H264286   5.099   2.758   5.305  0.3733 -0.0042 -0.4760
14291TIP3   OH264287   3.411   0.010   0.816 -0.3000  0.2100 -0.1594
14291TIP3    H164288   3.320   0.027   0.841 -0.8751  0.6693 -2.4728
14291TIP3    H264289   3.404  -0.049   0.741  1.3890 -1.4867  0.9701
14292TIP3   OH264290   1.120   4.590   2.050  0.3993 -0.3671  0.4393
14292TIP3    H164291   1.206   4.595   2.010  0.7032  1.3702  1.2358
14292TIP3    H264292   1.132   4.532   2.125  1.0597  0.3705  0.9242
14293TIP3   OH264293   0.057   6.749   3.212  0.2903 -0.4442 -0.0621
14293TIP3    H164294   0.147   6.720   3.224  0.5972  1.3918  2.4493
14293TIP3    H264295   0.064   6.829   3.160  0.0896 -0.4120 -0.0418
14294TIP3   OH264296   0.436   4.673  13.273  0.4157  0.4106 -0.3067
14294TIP3    H164297   0.455   4.766  13.263  1.0864  0.1568 -1.5710
14294TIP3    H264298   0.515   4.636  13.311  0.9623  0.0220 -1.7787
14295TIP3   OH264299   4.023   1.073  13.766 -0.2909  0.9962 -0.4097
14295TIP3    H164300   4.079   1.150  13.753  0.5056  0.3538 -0.7432
14295TIP3    H264301   4.016   1.065  13.861  1.7255 -0.0470 -0.3380
14296TIP3   OH264302   6.171   5.591  12.712  0.1856 -0.0603  0.1867
14296TIP3    H164303   6.123   5.524  12.663  0.5573 -0.8419  0.8958
14296TIP3    H264304   6.263   5.572  12.695  0.4250 -1.9045  3.2051
14297TIP3   OH264305   6.727   3.384  14.740  0.2699 -0.0752  0.0168
14297TIP3    H164306   6.714   3.300  14.786  0.4390 -0.3756 -0.4860
14297TIP3    H264307   6.684   3.448  14.796  0.9399 -0.3657  0.8800
14298TIP3   OH264308   0.771   2.014   3.435  0.3716  0.3854 -0.9270
14298TIP3    H164309   0.772   2.056   3.521 -2.6229 -1.6707  0.2184
14298TIP3    H264310   0.848   1.958   3.435 -0.6375 -1.0830  1.2800
14299TIP3   OH264311   3.395   3.349  11.130 -0.1683 -0.2847  0.2909
14299TIP3    H164312   3.354   3.422  11.084 -0.3477 -0.7614 -0.3154
14299TIP3    H264313   3.345   3.341  11.211 -0.6297 -0.2097  0.0180
14300TIP3   OH264314   5.047   6.737   1.917 -0.1474  0.6635 -0.2496
14300TIP3    H164315   4.989   6.786   1.857 -2.7631  1.3100  2.6906
14300TIP3    H264316   5.001   6.655   1.932  1.6302 -0.4676 -0.8838
14301TIP3   OH264317   3.802   0.110  14.329 -0.1347  0.3766 -0.6837
14301TIP3    H164318   3.877   0.093  14.386 -1.7521 -0.0022  1.3930
14301TIP3    H264319   3.841   0.139  14.246  2.2793  0.8097  0.5533
14302TIP3   OH264320   0.161   4.305   5.612  0.4382 -0.1044  0.1142
14302TIP3    H164321   0.084   4.262   5.648  0.8153 -2.3096 -1.5735
14302TIP3    H264322   0.227   4.235   5.607  1.3630  0.8569 -1.8057
14303TIP3   OH264323   4.453   3.612  11.456  0.2492  0.4397  0.6066
14303TIP3    H164324   4.453   3.623  11.551 -1.3944  0.1116  0.6620
14303TIP3    H264325   4.390   3.541  11.441  0.4929  0.5039 -0.7293
14304TIP3   OH264326   5.823   2.101  14.692 -0.1668 -0.6855  0.2879
14304TIP3    H164327   5.915   2.105  14.668 -0.5351  0.9087 -0.9052
14304TIP3    H264328   5.782   2.048  14.624 -0.6359  1.0741 -0.8133
14305TIP3   OH264329   3.502   3.108   5.577  0.0110  0.8778 -0.1463
14305TIP3    H164330   3.442   3.094   5.650  1.5998 -0.0865  1.0094
14305TIP3    H264331   3.563   3.035   5.581 -0.3013  0.4032 -2.9142
14306TIP3   OH264332   0.021   5.432   3.833  0.1017  0.8791  0.1925
14306TIP3    H164333  -0.071   5.409   3.841  0.4824 -1.3012 -1.2699
14306TIP3    H264334   0.066   5.371   3.891  0.6208  2.0055  0.9823
14307TIP3   OH264335   2.842   1.923   3.308 -0.1162  0.1885 -0.3331
14307TIP3    H164336   2.757   1.956   3.337 -0.6987 -0.7377 -0.9475
14307TIP3    H264337   2.829   1.828   3.302  1.2997 -0.0817  0.6811
14308TIP3   OH264338   0.089   0.015   2.718  0.9957 -0.0320 -0.1983
14308TIP3    H164339   0.112   0.106   2.702  0.2379  0.6340  2.2971
14308TIP3    H264340   0.022  -0.005   2.652  1.1025  1.2199 -0.6908
14309TIP3   OH264341   5.353   3.112  10.738  0.6051 -0.4353 -0.3871
14309TIP3    H164342   5.262   3.132  10.713  0.6087 -1.6195 -1.4162
14309TIP3    H264343   5.406   3.175  10.689  0.4193 -0.7039 -0.9385
14310TIP3   OH264344   5.673   3.019  12.886 -0.0984  0.1797  0.2812
14310TIP3    H164345   5.748   2.960  12.882  0.2874  0.7505 -1.2368
14310TIP3    H264346   5.652   3.038  12.794 -1.6577  0.5824  0.7020
14311TIP3   OH264347   1.560   3.275  15.261  0.1978  0.6694 -0.0039
14311TIP3    H164348   1.579   3.260  15.354 -2.3005  0.8563  0.5632
14311TIP3    H264349   1.504   3.353  15.261 -0.3156  0.3107 -1.6355
14312TIP3   OH264350   6.170   6.081   0.833 -0.1021  0.3321 -0.5337
14312TIP3    H164351   6.088   6.108   0.875 -0.8334 -2.5119 -0.0750
14312TIP3    H264352   6.150   6.080   0.739 -1.6451 -3.6374 -0.2178
14313TIP3   OH264353   5.301   0.796  14.431 -0.4873 -0.1982  0.2584
14313TIP3    H164354   5.295   0.764  14.341  0.2511  0.6695 -0.1033
14313TIP3    H264355   5.380   0.754  14.466 -0.2892  0.1484  0.2248
14314TIP3   OH264356   2.133   5.237   5.199  0.1978 -0.2913 -0.9806
14314TIP3    H164357   2.141   5.315   5.254  0.7240 -1.1213  0.1368
14314TIP3    H264358   2.080   5.176   5.251 -1.4967 -0.1346 -2.4738
14315TIP3   OH264359   6.502   1.814  15.976  0.6242 -0.0873 -0.3182
14315TIP3    H164360   6.428   1.845  16.028  0.8938 -0.8148  0.5020
14315TIP3    H264361   6.475   1.728  15.944 -0.3411  1.1704 -3.0492
14316TIP3   OH264362   1.857   6.335   5.090 -0.2373  0.0361  0.3152
14316TIP3    H164363   1.905   6.253   5.081 -0.6967 -0.1730 -0.2662
14316TIP3    H264364   1.770   6.309   5.120 -0.0983  0.3841  1.0206
14317TIP3   OH264365   6.484   6.079  12.812 -0.1021  0.1422 -0.7919
14317TIP3    H164366   6.526   6.130  12.743  0.1722  0.5498 -0.3275
14317TIP3    H264367   6.513   6.121  12.894 -0.9065  0.0424 -0.4529
14318TIP3   OH264368   5.532   6.465  16.630 -0.5977  0.0814  0.7035
14318TIP3    H164369   5.483   6.387  16.657 -1.8507  0.4106 -0.5694
14318TIP3    H264370   5.554   6.450  16.538  0.8711  0.3771  0.9830
14319TIP3   OH264371   1.152   3.989   3.813 -0.1069 -0.3480 -0.4306
14319TIP3    H164372   1.079   3.941   3.774 -1.0113  0.0783  0.7246
14319TIP3    H264373   1.162   4.066   3.756 -0.7058 -0.2991 -0.4781
14320TIP3   OH264374   5.348   5.088   5.761  0.6277 -0.5594 -0.0862
14320TIP3    H164375   5.416   5.056   5.821  2.0668 -1.1628 -1.9790
14320TIP3    H264376   5.391   5.157   5.711 -1.2231  1.4816  1.0412
14321TIP3   OH264377   0.081   1.891   4.159  0.3425 -0.4565 -0.0806
14321TIP3    H164378   0.049   1.800   4.155 -0.1491 -0.2308 -1.6488
14321TIP3    H264379   0.174   1.885   4.140  0.5640 -0.7577  1.0665
14322TIP3   OH264380   3.494   0.534  15.786 -0.0915  0.3442 -1.0192
14322TIP3    H164381   3.465   0.608  15.734  1.3933  0.3878 -1.8299
14322TIP3    H264382   3.480   0.561  15.876 -0.5746  1.1775 -1.3363
14323TIP3   OH264383   0.396   2.021   1.226  0.3270  0.6569  0.2330
14323TIP3    H164384   0.334   2.087   1.256 -1.1668 -1.0042  0.9084
14323TIP3    H264385   0.361   1.938   1.260  2.2587 -0.4556 -0.4127
14324TIP3   OH264386   3.242   4.246  17.017 -0.4516  0.0499  0.1570
14324TIP3    H164387   3.333   4.217  17.015 -0.7564 -0.8727 -0.5660
14324TIP3    H264388   3.222   4.256  17.111 -0.0630 -1.2084  0.3817
14325TIP3   OH264389   2.701   5.192  15.114  0.1422  0.0656  0.6451
14325TIP3    H164390   2.716   5.268  15.058  0.6943 -1.1128 -0.8446
14325TIP3    H264391   2.764   5.126  15.083 -2.0516 -1.8988  0.1547
14326TIP3   OH264392   3.851   2.174  14.947 -0.2478  0.3636 -0.5413
14326TIP3    H164393   3.781   2.168  14.882  0.9520 -1.3170 -1.7003
14326TIP3    H264394   3.899   2.254  14.924 -2.5018  2.2422  1.0361
14327TIP3   OH264395   3.440   1.358  11.899 -0.1635  0.1613 -0.0036
14327TIP3    H164396   3.382   1.430  11.922  0.6602  1.1202 -0.8958
14327TIP3    H264397   3.479   1.331  11.982 -0.2038  0.9726  0.2801
14328TIP3   OH264398   4.658   3.641  10.848 -0.1394 -0.4676  0.1097
14328TIP3    H164399   4.675   3.728  10.812 -0.7641  0.3733  1.7645
14328TIP3    H264400   4.735   3.590  10.825  0.8246  0.8990  0.2116
14329TIP3   OH264401   1.692   2.357   3.615 -0.8028  0.1423 -0.0441
14329TIP3    H164402   1.704   2.349   3.520 -0.8118 -0.9973  0.0410
14329TIP3    H264403   1.779   2.341   3.651 -1.3276 -2.2753  0.2704
14330TIP3   OH264404   0.626   4.615   4.373  0.3084  0.2346 -0.1366
14330TIP3    H164405   0.532   4.599   4.359  0.3919  0.1678 -0.6214
14330TIP3    H264406   0.662   4.622   4.285  0.8055  0.0133  0.0506
14331TIP3   OH264407   0.765   2.633   4.701  0.1856  0.1210 -0.2888
14331TIP3    H164408   0.836   2.594   4.752  0.8972  0.9973 -0.5894
14331TIP3    H264409   0.795   2.626   4.610  0.9496  2.5442 -0.2676
14332TIP3   OH264410   2.933   5.941   2.372 -0.5236 -0.1660  0.7879
14332TIP3    H164411   2.951   6.022   2.324  0.3488  0.2663  1.7971
14332TIP3    H264412   2.950   5.871   2.309 -0.4660  0.4127  0.1534
14333TIP3   OH264413   5.782   5.323  15.684  0.2066 -0.1681 -0.0857
14333TIP3    H164414   5.824   5.402  15.718  1.2757 -1.1780  1.0570
14333TIP3    H264415   5.800   5.324  15.590 -1.9660  2.2063 -0.5007
14334TIP3   OH264416   5.124   5.884   1.057  0.5183  0.5173 -0.2556
14334TIP3    H164417   5.069   5.933   1.117 -1.0224 -0.3424 -0.9360
14334TIP3    H264418   5.212   5.918   1.071 -0.2770  2.3130  0.4389
14335TIP3   OH264419   0.882   4.789   2.157 -0.1581  0.1551 -0.5456
14335TIP3    H164420   0.833   4.871   2.168  0.8573  0.5362  1.3638
14335TIP3    H264421   0.855   4.736   2.232  0.4664 -0.6089 -0.8630
14336TIP3   OH264422   2.721   2.559  13.686  0.3243 -0.0432 -0.2465
14336TIP3    H164423   2.699   2.652  13.694  0.2315  0.1031 -1.9771
14336TIP3    H264424   2.645   2.513  13.722  0.2852  0.5508  0.4188
14337TIP3   OH264425   4.870   6.449   2.612 -0.3510  0.0740  0.2513
14337TIP3    H164426   4.797   6.511   2.608  0.1500  0.6867  0.5532
14337TIP3    H264427   4.944   6.497   2.575  0.3269  0.0598  1.5596
14338TIP3   OH264428   6.640   6.440   0.412  0.2276 -0.7543 -0.3411
14338TIP3    H164429   6.581   6.433   0.487 -1.3546 -2.2485 -1.6837
14338TIP3    H264430   6.727   6.451   0.451 -0.8407  0.8918  1.6678
14339TIP3   OH264431   1.627   2.351  13.921 -0.2454  0.8760 -0.0514
14339TIP3    H164432   1.591   2.295  13.991 -0.2203  1.6415  0.5828
14339TIP3    H264433   1.560   2.349  13.853 -0.9054  1.2312  0.5746
14340TIP3   OH264434   5.954   1.228  13.522 -0.1294 -0.4424 -0.3964
14340TIP3    H164435   5.893   1.234  13.595 -1.7630  0.9172 -1.8265
14340TIP3    H264436   6.014   1.158  13.547 -0.4344  0.2224  2.3856
14341TIP3   OH264437   4.022   6.331   0.347 -0.2427 -0.2162  0.5831
14341TIP3    H164438   4.115   6.312   0.360 -0.0643  1.3870  1.8598
14341TIP3    H264439   3.981   6.245   0.335  1.6867 -0.8132 -2.1923
14342TIP3   OH264440   4.846   3.177   4.628  0.2103 -0.0058 -0.1282
14342TIP3    H164441   4.836   3.118   4.703 -1.8991  0.3332 -0.0907
14342TIP3    H264442   4.797   3.135   4.558  1.4107  0.1314 -1.0482
14343TIP3   OH264443   5.924   6.064  14.962  0.0852 -0.0689  0.4134
14343TIP3    H164444   5.870   5.998  14.919 -0.8464  0.2634  1.0546
14343TIP3    H264445   5.991   6.085  14.898  0.4767 -1.7350  0.2515
14344TIP3   OH264446   4.014   5.182   2.256  0.0155 -0.1156 -0.0338
14344TIP3    H164447   3.984   5.256   2.309  0.1160 -1.3196  1.7343
14344TIP3    H264448   4.027   5.111   2.318 -0.7339 -1.8461 -1.7927
14345TIP3   OH264449   5.528   1.347  12.241 -0.1485  0.2462  0.3036
14345TIP3    H164450   5.599   1.287  12.218 -0.2577  0.2335 -0.0098
14345TIP3    H264451   5.458   1.324  12.180 -0.5634 -0.0105  0.8782
14346TIP3   OH264452   4.065   2.134  14.663 -0.4330  0.0297  0.8512
14346TIP3    H164453   4.131   2.174  14.606 -0.0427  0.0824  1.3255
14346TIP3    H264454   3.992   2.196  14.663 -0.7158 -0.3017 -0.1261
14347TIP3   OH264455   6.627   2.883  10.879  0.1707 -0.6189 -0.5156
14347TIP3    H164456   6.680   2.880  10.799  0.1432 -1.7548 -0.5032
14347TIP3    H264457   6.583   2.968  10.876  1.7996  0.2362 -0.6533
14348TIP3   OH264458   1.814   4.491   6.533 -0.3399 -0.0188  0.1814
14348TIP3    H164459   1.801   4.438   6.454 -0.4862  0.9486 -0.4471
14348TIP3    H264460   1.904   4.472   6.560  0.2687  0.8924 -1.1528
14349TIP3   OH264461   4.896   2.679   5.630  0.4898  0.6308  0.3718
14349TIP3    H164462   4.955   2.603   5.624 -1.3481 -0.7385 -1.0483
14349TIP3    H264463   4.818   2.645   5.674 -1.3283  1.0177 -2.4252
14350TIP3   OH264464   3.517   3.447   2.869  0.7801  0.4647  0.0434
14350TIP3    H164465   3.598   3.496   2.880  0.7391  0.4046  0.6240
14350TIP3    H264466   3.454   3.510   2.834  0.2955  1.2253  2.2230
14351TIP3   OH264467   0.360   1.973   6.615 -0.0896 -0.6945  0.2629
14351TIP3    H164468   0.281   2.027   6.623  0.7481  0.2659  2.2880
14351TIP3    H264469   0.340   1.912   6.544 -2.3803 -0.0101  0.2859
14352TIP3   OH264470   6.718   6.590   2.993 -0.0071  0.0954  1.0799
14352TIP3    H164471   6.749   6.657   3.054 -1.3776  1.8586 -0.0889
14352TIP3    H264472   6.623   6.603   2.990 -0.5095 -3.0045  2.0679
14353TIP3   OH264473   0.446   1.229   2.148 -0.7499  0.1213 -0.1990
14353TIP3    H164474   0.406   1.184   2.222 -0.0879 -0.3640 -0.1317
14353TIP3    H264475   0.513   1.285   2.187 -0.0723 -0.4983 -0.4724
14354TIP3   OH264476   2.622   3.269  12.597  0.1401  0.1445  0.3974
14354TIP3    H164477   2.651   3.223  12.675 -1.2902 -1.0905  0.2316
14354TIP3    H264478   2.594   3.199  12.537  0.1551  1.1228 -0.7758
14355TIP3   OH264479   1.648   1.814   0.050  0.1183 -0.1367 -0.9348
14355TIP3    H164480   1.659   1.888   0.111 -1.7427  0.4860 -1.3450
14355TIP3    H264481   1.655   1.737   0.106  2.5471  0.2946 -0.5634
14356TIP3   OH264482   6.171   2.744  16.498  0.1453 -0.4866 -0.3884
14356TIP3    H164483   6.100   2.686  16.472  0.4388 -0.6253 -0.9100
14356TIP3    H264484   6.241   2.725  16.435  1.5426 -2.1041  1.5791
14357TIP3   OH264485   1.572   2.676   4.205  0.8399  0.3666  0.0104
14357TIP3    H164486   1.662   2.701   4.226  0.5620  2.0646 -0.7101
14357TIP3    H264487   1.548   2.734   4.132 -1.0216  0.3025  0.5586
14358TIP3   OH264488   1.377   3.835  12.514  0.4535  0.1350 -0.3679
14358TIP3    H164489   1.312   3.884  12.464  1.5765  0.2478 -1.7193
14358TIP3    H264490   1.429   3.903  12.557  1.4451  0.1114 -1.5276
14359TIP3   OH264491   0.529   0.946  14.729  0.5879 -0.1425  0.3731
14359TIP3    H164492   0.485   0.877  14.779 -0.2945  0.3034  0.2179
14359TIP3    H264493   0.501   1.027  14.770  0.8126  0.1728 -0.0916
14360TIP3   OH264494   1.588   4.202   1.329 -0.1521  0.3263  0.0001
14360TIP3    H164495   1.543   4.132   1.282 -1.9703  0.6779  1.1814
14360TIP3    H264496   1.680   4.195   1.301 -0.4691 -2.0056 -0.4918
14361TIP3   OH264497   3.198   6.165   2.781  0.5279  0.1404 -0.1364
14361TIP3    H164498   3.246   6.184   2.862 -1.2303  0.7670  0.7698
14361TIP3    H264499   3.263   6.177   2.712  1.6046  1.2853  1.0524
14362TIP3   OH264500   4.393   0.079   0.440  0.0641 -0.0658  0.6746
14362TIP3    H164501   4.323   0.064   0.503  2.2855 -1.8486  2.8516
14362TIP3    H264502   4.412  -0.008   0.405  0.5410  0.5434 -0.6017
14363TIP3   OH264503   2.771   4.686   6.559  0.5161 -0.1002 -0.0959
14363TIP3    H164504   2.761   4.693   6.654 -0.2074  0.7418 -0.2367
14363TIP3    H264505   2.726   4.604   6.536  2.2139 -1.2341  0.5052
14364TIP3   OH264506   2.118   5.641   2.543  0.6178 -0.4195  0.5089
14364TIP3    H164507   2.065   5.568   2.575  0.7983 -0.3581  0.9414
14364TIP3    H264508   2.167   5.671   2.619 -1.4694  1.9067  0.9959
14365TIP3   OH264509   5.777   0.569  12.688  0.4033  0.2775  0.1093
14365TIP3    H164510   5.824   0.648  12.661 -1.3163  1.4401  0.4452
14365TIP3    H264511   5.796   0.561  12.782 -0.0359  0.7367  0.2402
14366TIP3   OH264512   0.523   5.275  16.745 -0.7090 -0.0012  0.5683
14366TIP3    H164513   0.591   5.254  16.681 -1.7838  1.7767 -1.2037
14366TIP3    H264514   0.470   5.195  16.751  0.1678 -0.6086  0.2081
14367TIP3   OH264515   4.101   5.256   6.082 -0.1095 -0.0471  0.4778
14367TIP3    H164516   4.118   5.327   6.020  0.6814  0.5041  1.3053
14367TIP3    H264517   4.083   5.301   6.165  2.3987 -0.8087  1.4978
14368TIP3   OH264518   0.045   6.629   3.558 -0.6938 -0.3142 -0.0968
14368TIP3    H164519   0.065   6.722   3.547 -0.1382 -0.3448  0.6440
14368TIP3    H264520  -0.023   6.626   3.625 -0.6872 -0.4484 -0.0950
14369TIP3   OH264521   5.667   2.412  11.197 -0.6367 -0.2983  0.3089
14369TIP3    H164522   5.682   2.378  11.109  1.6458 -0.2025  0.6114
14369TIP3    H264523   5.698   2.342  11.255  1.3904  1.0823  0.9634
14370TIP3   OH264524   2.191   4.022  13.045  0.1581  0.4081  0.9031
14370TIP3    H164525   2.155   4.108  13.068  0.8992  0.7976  0.6409
14370TIP3    H264526   2.286   4.034  13.052  0.3169 -0.0094 -0.4714
14371TIP3   OH264527   3.867   2.293  14.527  0.4728  0.9750 -0.5385
14371TIP3    H164528   3.815   2.272  14.449 -0.8062  1.1959  0.2533
14371TIP3    H264529   3.934   2.354  14.494  0.2921  0.6355 -1.5748
14372TIP3   OH264530   5.968   5.044   4.160  0.2727  0.2175 -0.1683
14372TIP3    H164531   5.986   5.057   4.067  1.3833 -1.2409 -0.1709
14372TIP3    H264532   5.989   5.128   4.200 -0.4440  0.9337 -1.2493
14373TIP3   OH264533   5.132   3.055  16.444 -0.6694  0.5151  0.1521
14373TIP3    H164534   5.192   3.126  16.467 -1.5380  0.9950  0.9919
14373TIP3    H264535   5.075   3.046  16.521 -1.0626 -0.5691 -0.2555
14374TIP3   OH264536   0.018   1.053  10.828  0.4497 -0.0096  0.2133
14374TIP3    H164537   0.031   0.963  10.800  0.1734  0.2817 -0.8772
14374TIP3    H264538   0.055   1.106  10.757  0.0084  0.7397  0.5378
14375TIP3   OH264539   2.396   4.180   2.094 -0.9750 -0.1428  0.4841
14375TIP3    H164540   2.367   4.115   2.030 -1.9978  2.7583 -2.1175
14375TIP3    H264541   2.327   4.181   2.161 -1.1476 -1.4015  0.3384
14376TIP3   OH264542   6.780   6.223  12.254 -0.0529 -0.1720  0.7899
14376TIP3    H164543   6.707   6.285  12.258 -0.0797 -0.0858 -0.6065
14376TIP3    H264544   6.857   6.276  12.237  0.0387 -0.4387  0.3473
14377TIP3   OH264545   0.504   0.416   6.166 -0.0523 -0.2677  0.1566
14377TIP3    H164546   0.520   0.396   6.074 -0.8464 -0.5331  0.0667
14377TIP3    H264547   0.408   0.416   6.173  0.0037  0.2929  0.8625
14378TIP3   OH264548   1.693   5.506   0.881  0.1450  0.2900 -0.2384
14378TIP3    H164549   1.781   5.469   0.883  0.1156  0.2680  1.9795
14378TIP3    H264550   1.682   5.538   0.792  2.5150  0.6079 -0.4420
14379TIP3   OH264551   0.074   1.599  12.246 -0.4558 -0.0416 -0.7430
14379TIP3    H164552   0.169   1.608  12.242 -0.4797  0.9082  0.5362
14379TIP3    H264553   0.041   1.688  12.239 -1.3506 -0.5023 -2.9449
14380TIP3   OH264554   5.810   3.426  16.078  0.5347  0.3803  0.0291
14380TIP3    H164555   5.827   3.354  16.139  0.6959  0.7350  0.4097
14380TIP3    H264556   5.724   3.406  16.040 -0.7181  1.3953  2.1890
14381TIP3   OH264557   5.294   3.646   1.657  0.4019  0.3311  0.1504
14381TIP3    H164558   5.229   3.692   1.604 -0.3188 -1.6778 -0.7580
14381TIP3    H264559   5.245   3.617   1.734  1.1805  2.2434  1.4138
14382TIP3   OH264560   2.146   4.284   4.535 -0.5835  0.6054 -0.4005
14382TIP3    H164561   2.210   4.344   4.496 -0.7400  0.6298 -0.6200
14382TIP3    H264562   2.096   4.338   4.596  0.7660  0.2122  1.1106
14383TIP3   OH264563   4.645   6.058   1.654  0.2841  0.6308 -0.0142
14383TIP3    H164564   4.639   6.019   1.742  3.5966 -1.0312 -0.4468
14383TIP3    H264565   4.626   6.151   1.667  0.0924  0.2861  2.3608
14384TIP3   OH264566   2.935   6.501  16.806 -0.3470  0.7143 -0.4264
14384TIP3    H164567   2.873   6.453  16.752 -0.3874  1.3141 -0.9213
14384TIP3    H264568   3.020   6.462  16.787 -0.5236  0.1067  0.0103
14385TIP3   OH264569   5.510   5.368   5.922  0.3725  0.0585  0.0222
14385TIP3    H164570   5.500   5.325   5.837 -1.6932 -1.9145  1.2063
14385TIP3    H264571   5.457   5.447   5.915 -1.9948 -1.4361  0.2908
14386TIP3   OH264572   0.418   5.657   1.200  0.0090  0.3841  0.4657
14386TIP3    H164573   0.422   5.596   1.275 -0.2611 -0.7615 -0.4400
14386TIP3    H264574   0.433   5.743   1.239 -2.1416  0.0346  2.1478
14387TIP3   OH264575   4.695   5.167  11.971 -0.7370  0.4789  0.1701
14387TIP3    H164576   4.722   5.137  12.058 -2.9059 -0.7854  0.4378
14387TIP3    H264577   4.747   5.113  11.910 -0.6850 -0.0481  0.6791
14388TIP3   OH264578   6.335   5.698  14.395 -0.1914 -0.6476 -0.6310
14388TIP3    H164579   6.357   5.790  14.412 -0.1233 -0.7555 -0.1285
14388TIP3    H264580   6.287   5.700  14.312 -0.1873 -0.1578 -0.6234
14389TIP3   OH264581   1.443   6.122  10.580 -0.6006  0.1653 -0.4850
14389TIP3    H164582   1.376   6.176  10.538 -1.0585  0.0641  0.1092
14389TIP3    H264583   1.458   6.050  10.519 -0.8376  0.3301 -0.7376
14390TIP3   OH264584   1.944   4.692  12.677 -0.3144  0.2094 -0.1374
14390TIP3    H164585   1.859   4.717  12.642 -1.0558 -0.1890  1.3262
14390TIP3    H264586   1.987   4.776  12.696 -1.1525  0.4105  0.9093
14391TIP3   OH264587   6.307   3.032   2.294  0.2288 -0.0929 -0.3723
14391TIP3    H164588   6.340   3.018   2.205 -1.7544  1.6723 -1.4248
14391TIP3    H264589   6.229   2.977   2.299 -0.7841  1.3099 -0.4299
14392TIP3   OH264590   6.578   0.040   2.365  0.3128  0.0069 -0.0064
14392TIP3    H164591   6.615   0.066   2.281 -0.1043 -0.2769 -0.2759
14392TIP3    H264592   6.654   0.016   2.419  0.6646  1.1712  0.0382
14393TIP3   OH264593   6.751   5.800   5.104 -0.2775 -0.6097  0.0524
14393TIP3    H164594   6.813   5.797   5.032  0.5726 -1.7912  0.8130
14393TIP3    H264595   6.686   5.733   5.082 -0.7792 -0.0177 -0.2850
14394TIP3   OH264596   2.724   4.839   3.775 -0.0841 -0.2080  0.1503
14394TIP3    H164597   2.732   4.813   3.683  0.5141  0.5127 -0.0049
14394TIP3    H264598   2.814   4.859   3.802  0.0091 -2.1484  1.4184
14395TIP3   OH264599   2.909   0.140   3.507  0.3094  0.0703  0.3359
14395TIP3    H164600   2.826   0.178   3.537  0.5624 -1.1481  2.7226
14395TIP3    H264601   2.894   0.118   3.416 -1.2297  1.9761  0.0830
14396TIP3   OH264602   2.735   0.187   4.595  0.1292  0.2554  0.2260
14396TIP3    H164603   2.674   0.211   4.526 -1.2710  2.0392  2.0329
14396TIP3    H264604   2.701   0.106   4.631 -0.1685  0.3029  0.0481
14397TIP3   OH264605   0.829   4.392  10.775 -0.4384 -0.2490 -0.2034
14397TIP3    H164606   0.879   4.468  10.744 -1.3893  0.7997  0.8043
14397TIP3    H264607   0.858   4.320  10.719  0.4973  0.8483 -1.1520
14398TIP3   OH264608   6.224   3.546  12.130 -0.4920 -0.4847 -0.0596
14398TIP3    H164609   6.258   3.459  12.109  0.6813  0.2564 -1.3684
14398TIP3    H264610   6.294   3.586  12.182 -1.7811 -0.9355  2.0774
14399TIP3   OH264611   1.853   1.797  16.589 -0.0711  0.5879  0.6747
14399TIP3    H164612   1.927   1.776  16.646  0.0954  0.0994  0.2838
14399TIP3    H264613   1.776   1.769  16.637 -0.1582  2.8166  1.9055
14400TIP3   OH264614   4.830   5.609   5.247 -0.1130  0.0154  0.3115
14400TIP3    H164615   4.902   5.562   5.205 -1.0504 -0.9944 -0.1974
14400TIP3    H264616   4.840   5.700   5.217  0.9400 -0.1197  0.2467
14401TIP3   OH264617   6.767   3.160   3.407  0.7823 -0.3614 -0.6252
14401TIP3    H164618   6.739   3.071   3.429 -0.7562 -0.4189 -2.6551
14401TIP3    H264619   6.825   3.186   3.479  0.1842 -2.4980  0.6591
14402TIP3   OH264620   3.343   3.863   3.427  0.0746  0.6799  0.4047
14402TIP3    H164621   3.437   3.879   3.438 -0.1142  1.2940  1.1704
14402TIP3    H264622   3.303   3.949   3.431 -0.7994  0.1948  2.9447
14403TIP3   OH264623   4.739   2.791  17.003 -0.3590 -0.1964 -0.3539
14403TIP3    H164624   4.674   2.734  16.963 -0.6774 -0.2471  0.2358
14403TIP3    H264625   4.769   2.743  17.080  0.7074 -0.3769 -0.8699
14404TIP3   OH264626   3.204   6.238  12.771 -0.1557  0.1150  0.3161
14404TIP3    H164627   3.120   6.243  12.725 -0.5281 -0.9396  0.8517
14404TIP3    H264628   3.195   6.161  12.828  1.0132  0.2572  0.7027
14405TIP3   OH264629   5.422   1.748   0.354 -0.2114 -0.5335 -0.3499
14405TIP3    H164630   5.480   1.823   0.359 -1.2401  0.2626 -0.2467
14405TIP3    H264631   5.334   1.785   0.346 -0.7496 -1.7179 -0.1297
14406TIP3   OH264632   3.973   6.142   4.637  0.1981  0.1536  0.4819
14406TIP3    H164633   3.982   6.047   4.629  0.7215  0.1188  1.4560
14406TIP3    H264634   4.036   6.178   4.575  1.5976 -0.1316  1.7290
14407TIP3   OH264635   0.533   2.415   5.179 -0.7145  0.0179  0.2735
14407TIP3    H164636   0.538   2.422   5.083  0.2202  0.8622  0.3757
14407TIP3    H264637   0.440   2.427   5.198 -0.7978  0.6149 -0.4742
14408TIP3   OH264638   4.509   1.622   5.771  0.0190  0.6872  0.0715
14408TIP3    H164639   4.433   1.676   5.791  0.7098  1.7609 -0.1325
14408TIP3    H264640   4.539   1.589   5.855 -0.9809 -0.1521  0.0933
14409TIP3   OH264641   4.603   6.556   2.572 -0.0001  1.2517  0.2666
14409TIP3    H164642   4.591   6.529   2.481 -0.3505  2.8629 -0.1775
14409TIP3    H264643   4.548   6.494   2.622 -1.5274  1.7017 -0.8065
14410TIP3   OH264644   3.929   5.036  14.508 -0.0711 -0.0901 -0.1193
14410TIP3    H164645   4.017   5.004  14.486 -0.9175 -1.1833 -2.0767
14410TIP3    H264646   3.872   4.995  14.442 -2.0767  0.4306  1.2595
14411TIP3   OH264647   1.246   6.299   4.997  0.4471  0.6831  0.1982
14411TIP3    H164648   1.232   6.237   4.925 -0.0234 -0.4465  1.2358
14411TIP3    H264649   1.247   6.244   5.075  3.9235  1.4953  0.8128
14412TIP3   OH264650   5.641   2.553   5.420 -0.2080 -0.2262 -0.2004
14412TIP3    H164651   5.575   2.560   5.351 -0.3297  1.3901  0.0736
14412TIP3    H264652   5.595   2.509   5.491 -1.4337  2.1089  0.4993
14413TIP3   OH264653   1.947   0.404   6.362  0.5890  0.0512 -0.8760
14413TIP3    H164654   1.942   0.438   6.273 -1.2450  0.8417 -0.4998
14413TIP3    H264655   2.019   0.341   6.360  0.6063  0.1071 -2.8973
14414TIP3   OH264656   2.818   5.473  15.754  0.0392 -0.0223 -0.0835
14414TIP3    H164657   2.820   5.567  15.740 -0.9939  0.3515  1.9393
14414TIP3    H264658   2.802   5.435  15.668 -0.8087  1.7407 -0.7198
14415TIP3   OH264659   5.409   5.818  11.402 -0.4841 -0.1388 -0.4410
14415TIP3    H164660   5.326   5.863  11.416 -1.0589 -1.8692  1.9679
14415TIP3    H264661   5.472   5.889  11.388 -1.6198  1.3663  1.7585
14416TIP3   OH264662   0.957   1.847   3.036 -0.0477 -0.3754  0.1320
14416TIP3    H164663   0.912   1.896   3.105 -2.5191  0.3001 -1.8584
14416TIP3    H264664   1.047   1.879   3.039  0.0166 -0.6936  3.3029
14417TIP3   OH264665   4.013   6.131   2.248 -0.1764 -0.4379  0.5950
14417TIP3    H164666   4.035   6.040   2.265  0.1534 -0.4873 -0.0665
14417TIP3    H264667   3.932   6.146   2.296 -0.0379 -0.9746  1.0021
14418TIP3   OH264668   0.281   4.717   3.588 -0.1593  0.3683 -0.0694
14418TIP3    H164669   0.350   4.671   3.542 -0.4717 -0.7867  0.6001
14418TIP3    H264670   0.324   4.791   3.630  0.4725  0.2847 -0.5816
14419TIP3   OH264671   3.267   4.429  12.718  0.1424  0.0665  0.3847
14419TIP3    H164672   3.301   4.381  12.643 -0.2798 -0.4367  0.5194
14419TIP3    H264673   3.337   4.423  12.784  0.9037  1.2984 -0.2947
14420TIP3   OH264674   5.210   3.753  10.614  0.1572 -0.4566 -0.0538
14420TIP3    H164675   5.212   3.660  10.593 -0.5996 -0.3465 -0.6441
14420TIP3    H264676   5.293   3.787  10.581 -0.2394 -0.6316 -1.2797
14421TIP3   OH264677   1.377   3.993   2.344  0.5340  0.1307  0.5868
14421TIP3    H164678   1.346   4.022   2.429  0.2744 -0.2476  0.6242
14421TIP3    H264679   1.299   3.959   2.300  0.3662  1.7843 -0.4245
14422TIP3   OH264680   0.970   5.694   5.915 -0.3395  0.4304 -0.0235
14422TIP3    H164681   0.924   5.610   5.903 -2.1492  1.5622 -1.2272
14422TIP3    H264682   1.015   5.684   5.999  1.1031 -2.4794 -1.0542
14423TIP3   OH264683   2.146   1.000  11.199  0.0270  0.0585  0.0546
14423TIP3    H164684   2.174   0.963  11.115  0.1088 -2.8300  1.3162
14423TIP3    H264685   2.059   0.962  11.214 -0.9914  2.3851  0.1891
14424TIP3   OH264686   4.151   2.468   0.057 -0.7385  0.0901  0.7873
14424TIP3    H164687   4.245   2.480   0.072 -0.2865 -1.8835 -0.2572
14424TIP3    H264688   4.133   2.515  -0.024 -0.6845  0.5801  1.0564
14425TIP3   OH264689   3.390   2.541  16.705 -0.0921  0.1333 -0.3420
14425TIP3    H164690   3.447   2.617  16.698 -1.6427  1.4283  0.6315
14425TIP3    H264691   3.434   2.483  16.768  0.5650  0.7119 -0.2657
14426TIP3   OH264692   4.322   3.219  11.706 -0.3860 -0.2397  0.2581
14426TIP3    H164693   4.303   3.129  11.729  1.5799 -0.2925  1.8540
14426TIP3    H264694   4.333   3.264  11.790  0.3955  1.0822 -0.5226
14427TIP3   OH264695   2.136   6.342   6.170  0.8645 -0.3595  0.0892
14427TIP3    H164696   2.095   6.353   6.256  0.9252 -0.2289  0.1023
14427TIP3    H264697   2.092   6.405   6.114  1.2950  0.0307  0.1897
14428TIP3   OH264698   0.393   2.301  15.108  0.4933 -0.3644 -0.1521
14428TIP3    H164699   0.444   2.220  15.107 -1.7092 -1.7769 -2.0965
14428TIP3    H264700   0.313   2.281  15.059 -1.0508  2.3758  1.0695
14429TIP3   OH264701   3.617   4.414  16.848 -0.4328 -0.1938 -0.4749
14429TIP3    H164702   3.574   4.338  16.809 -2.2295  0.8055 -0.5018
14429TIP3    H264703   3.709   4.387  16.859 -1.5136 -3.2360  1.7992
14430TIP3   OH264704   0.587   6.347   3.893  0.5390 -0.8023 -0.2845
14430TIP3    H164705   0.586   6.442   3.906 -1.3095 -0.8685  0.1928
14430TIP3    H264706   0.668   6.318   3.935  0.1601  0.3389  1.2839
14431TIP3   OH264707   5.796   4.307   4.518  0.2456  0.0994  0.1953
14431TIP3    H164708   5.751   4.391   4.513 -2.6296 -1.3475  0.8486
14431TIP3    H264709   5.774   4.273   4.605 -0.8209 -2.4632 -1.0042
14432TIP3   OH264710   6.127   2.724   4.276  0.2975  0.1427 -0.0461
14432TIP3    H164711   6.184   2.735   4.199 -0.2143  0.2634 -0.4120
14432TIP3    H264712   6.169   2.656   4.328  1.5986  1.2848  0.4453
14433TIP3   OH264713   5.576   0.842   0.820  0.5822 -0.1655 -0.2834
14433TIP3    H164714   5.498   0.895   0.806  0.4232 -0.8974 -2.4104
14433TIP3    H264715   5.624   0.848   0.737  3.2575  1.0115  1.2660
14434TIP3   OH264716   1.840   1.855  14.963 -0.0931 -0.4486  0.0907
14434TIP3    H164717   1.805   1.903  14.888 -1.6300  0.2198  1.2125
14434TIP3    H264718   1.905   1.915  15.001 -1.7882  0.6740  1.3053
14435TIP3   OH264719   5.710   3.434   5.032  0.1067 -0.0211  0.6235
14435TIP3    H164720   5.674   3.359   5.080  0.1191  0.9359  2.1686
14435TIP3    H264721   5.634   3.488   5.012  0.3687  0.7321  1.6275
14436TIP3   OH264722   6.593   1.213   4.320 -0.5789  0.1173  0.1045
14436TIP3    H164723   6.635   1.164   4.391  1.4279 -0.4715 -1.4272
14436TIP3    H264724   6.583   1.149   4.249  0.3367  1.4416 -1.2482
14437TIP3   OH264725   5.523   2.596  10.988 -0.3887  0.4392  0.9535
14437TIP3    H164726   5.543   2.552  10.906 -1.0421 -0.3037  1.1871
14437TIP3    H264727   5.569   2.544  11.055 -2.4265 -0.8351  1.4066
14438TIP3   OH264728   4.064   6.133  12.915  0.2993  0.5681  0.4778
14438TIP3    H164729   4.028   6.062  12.862  3.2220 -1.0683  0.5961
14438TIP3    H264730   4.111   6.187  12.852  1.0366  0.4404  0.9189
14439TIP3   OH264731   0.523   5.724   0.952  0.4451  0.6008 -0.5500
14439TIP3    H164732   0.555   5.646   0.907 -1.9815 -1.0011  0.3958
14439TIP3    H264733   0.499   5.693   1.039  1.3700  2.8568  0.5580
14440TIP3   OH264734   3.028   2.858  15.472  0.4328  0.4948 -0.1496
14440TIP3    H164735   3.015   2.943  15.515 -1.0610  1.4813 -2.4237
14440TIP3    H264736   3.111   2.866  15.426  0.1952  0.8237 -0.5284
14441TIP3   OH264737   0.344   5.525   5.867 -0.4160  0.4884 -0.6933
14441TIP3    H164738   0.423   5.472   5.875 -0.6865  0.0690 -0.7346
14441TIP3    H264739   0.290   5.498   5.941 -0.5977  0.6357 -0.7711
14442TIP3   OH264740   6.535   0.485   5.345 -0.1496 -0.1295 -0.2305
14442TIP3    H164741   6.587   0.414   5.384  0.6195  0.5064 -0.0849
14442TIP3    H264742   6.469   0.505   5.410 -0.5276 -0.8818 -0.3743
14443TIP3   OH264743   0.242   1.073  15.280  0.3263  0.0338 -0.0282
14443TIP3    H164744   0.277   1.146  15.229 -0.9292  0.0569 -0.8847
14443TIP3    H264745   0.235   1.001  15.217  1.1497 -0.7120  0.7116
14444TIP3   OH264746   4.344   1.316  15.392 -0.2017 -0.0576  0.8015
14444TIP3    H164747   4.419   1.345  15.444 -0.0942 -0.9464  1.1498
14444TIP3    H264748   4.341   1.221  15.405 -1.5228 -0.0034  0.9756
14445TIP3   OH264749   0.418   2.426  13.745  0.0101 -0.5084 -0.9218
14445TIP3    H164750   0.482   2.443  13.814  0.1555  1.4851 -1.5138
14445TIP3    H264751   0.369   2.349  13.776  0.9223 -0.4337  0.7789
14446TIP3   OH264752   1.016   5.094  11.304  0.3287 -0.4514 -0.1989
14446TIP3    H164753   1.052   5.017  11.349 -1.2733 -0.6040  0.8734
14446TIP3    H264754   0.996   5.156  11.375  0.8231  0.6205 -0.9833
14447TIP3   OH264755   3.696   2.685   5.257 -0.5781  0.0540  0.5436
14447TIP3    H164756   3.616   2.651   5.298 -0.5740  0.0169  0.5200
14447TIP3    H264757   3.665   2.748   5.193 -0.6503 -0.9078 -0.3846
14448TIP3   OH264758   6.402   3.456  13.926 -0.1524 -0.4505  0.0758
14448TIP3    H164759   6.435   3.545  13.935  0.5637 -0.5493 -1.4429
14448TIP3    H264760   6.479   3.400  13.933 -0.2863 -0.8135 -1.2192
14449TIP3   OH264761   2.645   2.100  15.688 -0.2354 -0.0693  0.5941
14449TIP3    H164762   2.560   2.062  15.709  0.9797 -2.4589  1.3149
14449TIP3    H264763   2.675   2.051  15.612  0.1749  1.2866 -0.1267
14450TIP3   OH264764   5.178   4.500  13.079 -0.5839  0.0625  0.1486
14450TIP3    H164765   5.185   4.416  13.125  1.9834  1.3435  2.2016
14450TIP3    H264766   5.221   4.484  12.995 -0.8524 -0.8919  0.1810
14451TIP3   OH264767   0.301   5.545  11.722 -0.0709  0.6306 -0.7638
14451TIP3    H164768   0.326   5.610  11.657 -1.3508  1.5539 -0.3540
14451TIP3    H264769   0.269   5.470  11.671  0.7852  0.5733 -1.2219
14452TIP3   OH264770   4.938   6.456   0.716 -0.2462 -0.7012 -0.4808
14452TIP3    H164771   4.885   6.462   0.795 -1.7667 -1.5257 -1.4259
14452TIP3    H264772   5.026   6.483   0.744 -1.2034  0.9173  1.0252
14453TIP3   OH264773   0.626   1.413   2.502  0.2023 -0.2057 -0.1230
14453TIP3    H164774   0.570   1.482   2.537 -0.9163 -0.6083 -1.0594
14453TIP3    H264775   0.649   1.443   2.414  0.9142 -0.3577  0.0074
14454TIP3   OH264776   2.040   1.386  14.554  0.1127 -0.0402  0.2670
14454TIP3    H164777   2.070   1.298  14.530  0.0601 -0.5998  2.2029
14454TIP3    H264778   1.979   1.410  14.484  1.8255 -0.6139 -1.4671
14455TIP3   OH264779   0.678   2.326   0.711  0.3757  0.3481 -0.0902
14455TIP3    H164780   0.648   2.411   0.679  1.3596  1.5567  2.0479
14455TIP3    H264781   0.732   2.291   0.641 -1.0741  0.9059 -1.5053
14456TIP3   OH264782   5.113   3.171  12.646 -0.4110 -0.2326 -0.0441
14456TIP3    H164783   5.017   3.172  12.654 -0.3650  0.1710  0.4633
14456TIP3    H264784   5.140   3.260  12.668  0.0084 -0.0840 -1.1432
14457TIP3   OH264785   6.488   1.106   0.070 -0.0542 -0.6812 -0.0437
14457TIP3    H164786   6.544   1.135  -0.002 -1.4011  0.4242 -0.6810
14457TIP3    H264787   6.489   1.179   0.132  0.3829 -1.2616  0.6376
14458TIP3   OH264788   3.099   1.213  13.880 -0.0510 -0.5090 -0.6170
14458TIP3    H164789   3.087   1.214  13.975 -1.1420 -2.0523 -0.7199
14458TIP3    H264790   3.191   1.190  13.867 -0.1696 -1.4190  0.0689
14459TIP3   OH264791   3.527   2.577   0.886 -0.0805  0.2679 -0.3274
14459TIP3    H164792   3.588   2.538   0.949 -0.8492  0.9606  0.8798
14459TIP3    H264793   3.476   2.640   0.938  0.2013  1.8707 -1.9262
14460TIP3   OH264794   1.362   1.410   2.482 -0.1673 -0.0496  0.0417
14460TIP3    H164795   1.364   1.503   2.501 -1.4249  0.0561 -0.3355
14460TIP3    H264796   1.388   1.403   2.390  0.4491 -0.1197  0.2179
14461TIP3   OH264797   3.488   5.623  15.112 -0.5039  0.3263  0.1288
14461TIP3    H164798   3.422   5.554  15.118 -1.6671  1.3359 -0.6642
14461TIP3    H264799   3.439   5.704  15.126  1.1079  0.9068  2.5701
14462TIP3   OH264800   2.430   2.108  14.688 -0.1656 -0.0230  0.1765
14462TIP3    H164801   2.431   2.013  14.675  0.9693  0.1663 -1.3074
14462TIP3    H264802   2.364   2.140  14.627  0.9841  0.3205 -0.9236
14463TIP3   OH264803   5.162   4.565  16.809 -0.5840  0.0149  0.1088
14463TIP3    H164804   5.132   4.650  16.840  0.0106  0.6154 -0.8843
14463TIP3    H264805   5.238   4.586  16.754 -0.1369 -1.2003  0.2438
14464TIP3   OH264806   1.509   2.574  15.712  0.1542  0.0427  0.2537
14464TIP3    H164807   1.540   2.500  15.764  0.2148  1.2399  1.9554
14464TIP3    H264808   1.552   2.563  15.627 -0.6310 -2.4126  0.1365
14465TIP3   OH264809   0.391   4.428  13.927 -0.0523  0.0530 -0.3454
14465TIP3    H164810   0.346   4.445  13.845 -1.3458 -0.6523  0.2095
14465TIP3    H264811   0.341   4.358  13.968  1.2897 -0.4408  0.4852
14466TIP3   OH264812   1.331   1.018  12.817 -0.3192 -0.3314 -0.5075
14466TIP3    H164813   1.336   1.089  12.880 -0.8305 -0.9076  0.1890
14466TIP3    H264814   1.325   1.061  12.732 -4.2836  0.5183  0.1262
14467TIP3   OH264815   5.564   4.704  11.134 -0.2000  0.1655  0.0223
14467TIP3    H164816   5.523   4.618  11.140 -0.4567  0.3991  1.9310
14467TIP3    H264817   5.520   4.746  11.060 -1.8170 -0.4399  0.6175
14468TIP3   OH264818   4.935   3.385  13.214 -0.4410  0.2321 -1.0289
14468TIP3    H164819   4.999   3.378  13.285 -0.7384 -1.6963 -0.9236
14468TIP3    H264820   4.965   3.321  13.149 -2.1938 -0.5964 -1.0332
14469TIP3   OH264821   5.137   3.443  11.207 -0.1324  0.1269 -0.3514
14469TIP3    H164822   5.230   3.465  11.200 -0.8363  3.0694 -1.0525
14469TIP3    H264823   5.112   3.472  11.295 -0.8848  1.4976 -0.9923
14470TIP3   OH264824   4.603   0.525   3.647 -0.3534  0.1606  0.9000
14470TIP3    H164825   4.624   0.618   3.641  1.3416 -0.2703 -0.2269
14470TIP3    H264826   4.513   0.518   3.616  0.5160  1.0567 -1.9490
14471TIP3   OH264827   4.188   0.802   2.253  0.7193  0.4602 -0.2069
14471TIP3    H164828   4.205   0.711   2.229 -0.3607 -0.0161  0.7505
14471TIP3    H264829   4.097   0.817   2.227  0.2906  0.6622  1.3626
14472TIP3   OH264830   3.671   5.256   4.831 -0.0327  0.2581 -0.2148
14472TIP3    H164831   3.693   5.182   4.887  1.1376  0.7981  0.0348
14472TIP3    H264832   3.575   5.258   4.831 -0.0522 -0.5120  0.7365
14473TIP3   OH264833   2.089   2.103   3.160  0.8879 -0.3010  0.0632
14473TIP3    H164834   2.046   2.039   3.105  0.9005  0.1223 -0.4445
14473TIP3    H264835   2.102   2.058   3.244 -0.5254 -0.4398  0.2272
14474TIP3   OH264836   4.465   1.472  11.151  0.0201 -0.1217  0.2446
14474TIP3    H164837   4.533   1.409  11.171  1.1028 -0.0511 -2.9769
14474TIP3    H264838   4.400   1.423  11.101  0.0314  0.8828 -0.7829
14475TIP3   OH264839   2.670   3.467   0.484  0.2206 -0.1517  0.2664
14475TIP3    H164840   2.753   3.436   0.447  0.9052 -0.4503  1.9974
14475TIP3    H264841   2.660   3.556   0.450  0.5855 -0.5751 -0.9842
14476TIP3   OH264842   3.445   5.902  15.195  0.0602 -0.4269 -0.0340
14476TIP3    H164843   3.433   5.871  15.285  0.2176  0.2345  0.2186
14476TIP3    H264844   3.520   5.962  15.200 -1.8486  2.0283 -0.0170
14477TIP3   OH264845   0.174   6.525   1.053  0.6397 -0.3471  0.2157
14477TIP3    H164846   0.134   6.468   1.120 -0.8498  0.5584  0.1087
14477TIP3    H264847   0.133   6.498   0.971  0.5907  0.2680  0.0346
14478TIP3   OH264848   4.719   5.357   5.632 -0.1941  0.5093 -0.2409
14478TIP3    H164849   4.671   5.387   5.708 -0.4059 -2.1075  0.7023
14478TIP3    H264850   4.653   5.348   5.563 -0.9253 -1.9981  0.7372
14479TIP3   OH264851   3.753   0.673   2.155 -0.2628  0.5200 -0.0283
14479TIP3    H164852   3.807   0.600   2.126 -0.7047  1.3030 -2.9662
14479TIP3    H264853   3.701   0.637   2.227  0.8825 -1.5258 -0.1935
14480TIP3   OH264854   0.809   2.431  15.818 -0.6809 -0.5452  1.0956
14480TIP3    H164855   0.880   2.401  15.875  0.6378 -1.4952 -1.0039
14480TIP3    H264856   0.788   2.356  15.764 -2.1679  0.2356  0.5742
14481TIP3   OH264857   1.091   6.122  11.679 -0.0854 -0.0300  0.0232
14481TIP3    H164858   1.183   6.132  11.656  0.1111 -0.4985  0.6036
14481TIP3    H264859   1.067   6.206  11.718 -0.3645  0.6965 -1.6505
14482TIP3   OH264860   4.812   1.996   4.017 -0.0787 -0.4139 -0.2225
14482TIP3    H164861   4.731   1.949   4.000 -1.0049  1.2582 -0.5383
14482TIP3    H264862   4.794   2.051   4.093  1.5183 -1.8026  1.1932
14483TIP3   OH264863   1.114   3.420  16.131  0.3433  0.2666 -0.0406
14483TIP3    H164864   1.081   3.355  16.193  0.8676 -1.0484 -1.1125
14483TIP3    H264865   1.209   3.417  16.141  0.5917 -1.5857 -2.4498
14484TIP3   OH264866   6.330   2.986  11.018  0.4239  0.0886 -0.0329
14484TIP3    H164867   6.398   2.932  10.979 -1.0466 -1.3174 -0.7218
14484TIP3    H264868   6.305   2.939  11.098  0.4662  0.7481  0.3684
14485TIP3   OH264869   4.127   3.855  13.403 -0.1198  0.0209 -0.1657
14485TIP3    H164870   4.215   3.817  13.399 -0.5362 -0.9421 -0.4127
14485TIP3    H264871   4.106   3.856  13.496  0.5170  1.1272 -0.0225
14486TIP3   OH264872   5.523   6.210   2.309 -0.0440 -0.3862 -0.2009
14486TIP3    H164873   5.474   6.285   2.273  0.4625 -0.0956 -0.2869
14486TIP3    H264874   5.460   6.138   2.309 -0.6833  0.1766  0.3682
14487TIP3   OH264875   5.028   1.221   3.325  0.3890  0.1599 -0.4207
14487TIP3    H164876   5.113   1.246   3.289  0.2795  1.2573  0.0519
14487TIP3    H264877   4.965   1.274   3.276  0.1085  0.4951  0.2882
14488TIP3   OH264878   1.816   6.047  10.964  0.5510 -0.0904 -0.5368
14488TIP3    H164879   1.742   6.056  10.904  1.4279 -0.0622 -1.6313
14488TIP3    H264880   1.846   6.137  10.979  0.1909 -0.0800  0.1274
14489TIP3   OH264881   0.721   2.371  11.756  0.3396 -0.6348  0.3012
14489TIP3    H164882   0.693   2.284  11.784  1.3625 -1.1075 -0.1149
14489TIP3    H264883   0.646   2.407  11.710 -0.2149 -1.1550  0.7893
14490TIP3   OH264884   2.914   4.344  15.700  0.2340 -0.4669 -0.2472
14490TIP3    H164885   2.969   4.292  15.757  1.3118 -0.0385 -0.8727
14490TIP3    H264886   2.865   4.280  15.648  0.7901 -0.8525 -0.2982
14491TIP3   OH264887   3.829   2.219  15.475  0.0657 -0.0129 -0.5202
14491TIP3    H164888   3.864   2.305  15.454 -0.1365  0.2962  0.3979
14491TIP3    H264889   3.835   2.170  15.393  2.4252  0.1057 -0.4432
14492TIP3   OH264890   0.534   5.403  11.063  0.2219  0.0070  0.2033
14492TIP3    H164891   0.612   5.391  11.116  0.4558 -0.5928 -0.2737
14492TIP3    H264892   0.540   5.336  10.995 -0.1750  0.6439 -0.4656
14493TIP3   OH264893   1.714   1.235  10.621  0.3165  0.5198  0.1123
14493TIP3    H164894   1.674   1.244  10.535  0.1383  0.4574  0.1889
14493TIP3    H264895   1.741   1.144  10.627 -1.5894 -0.0125  0.9528
14494TIP3   OH264896   6.000   5.229  16.102  0.4281 -0.2905  0.5856
14494TIP3    H164897   5.928   5.166  16.104  1.0128 -1.0774 -1.3292
14494TIP3    H264898   5.958   5.314  16.091 -0.3337 -0.3939  2.5133
14495TIP3   OH264899   4.865   4.643   5.449 -0.2735 -0.1088 -0.0102
14495TIP3    H164900   4.942   4.694   5.425 -0.3870 -0.1837 -0.5469
14495TIP3    H264901   4.879   4.620   5.541 -1.0321  2.2999  0.7298
14496TIP3   OH264902   4.878   6.377   4.294  0.3110 -1.0048 -0.6805
14496TIP3    H164903   4.802   6.423   4.259  0.9788  0.2131 -0.5544
14496TIP3    H264904   4.913   6.328   4.219  0.1329 -0.5731 -1.0500
14497TIP3   OH264905   3.895   6.164   5.358 -0.2403 -0.5199 -0.2376
14497TIP3    H164906   3.838   6.173   5.282 -1.4844 -1.8510  0.5082
14497TIP3    H264907   3.968   6.110   5.328 -0.2885 -0.3244 -0.7106
14498TIP3   OH264908   3.633   3.512   2.314 -0.6321 -0.2886 -0.3188
14498TIP3    H164909   3.709   3.473   2.355  0.0281 -0.4151 -1.6217
14498TIP3    H264910   3.614   3.590   2.366  0.8273  0.1333 -0.3956
14499TIP3   OH264911   0.199   3.921  10.466  0.4133 -0.4142  0.1863
14499TIP3    H164912   0.156   3.994  10.511  2.0089  0.8290 -0.2468
14499TIP3    H264913   0.274   3.899  10.521  1.0530 -0.4238 -0.6790
14500TIP3   OH264914   5.077   1.601  11.945  0.4698 -0.6261  0.2746
14500TIP3    H164915   5.138   1.640  12.007  2.9358 -2.9381 -0.6211
14500TIP3    H264916   5.037   1.528  11.991 -1.5313  0.7221  0.7739
14501TIP3   OH264917   0.588   6.025   2.294  0.3779  0.0642  0.1168
14501TIP3    H164918   0.666   6.064   2.333  0.0020  0.8675  0.0920
14501TIP3    H264919   0.620   5.949   2.245  1.2231  0.7505 -0.4152
14502TIP3   OH264920   4.477   4.888  11.773  0.2089 -0.1241 -0.4505
14502TIP3    H164921   4.525   4.812  11.806 -0.0187 -1.0142 -2.0874
14502TIP3    H264922   4.539   4.932  11.715  0.1058  0.5412 -0.0563
14503TIP3   OH264923   3.423   0.210   4.477 -0.0448 -0.0746  0.4217
14503TIP3    H164924   3.436   0.115   4.478 -1.5520 -0.2918  1.0866
14503TIP3    H264925   3.330   0.222   4.497  0.2909  1.5666  1.1385
14504TIP3   OH264926   2.789   6.368   5.268 -0.5269 -0.2458  0.3929
14504TIP3    H164927   2.809   6.319   5.189  0.7014  1.8269 -0.6286
14504TIP3    H264928   2.751   6.450   5.236 -2.3889 -0.4298  2.0448
14505TIP3   OH264929   3.547   5.272   6.051 -0.4482 -0.2033 -0.7294
14505TIP3    H164930   3.477   5.235   6.105 -0.5624  0.4479 -0.4244
14505TIP3    H264931   3.628   5.246   6.096 -0.5748  1.4337  0.4889
14506TIP3   OH264932   3.714   1.029   4.484  0.2763  0.2262 -0.1574
14506TIP3    H164933   3.704   0.937   4.509  1.0667  0.2372  0.2045
14506TIP3    H264934   3.738   1.026   4.392  1.6173  0.0171  0.1970
14507TIP3   OH264935   6.646   1.600   0.630 -0.3162 -0.1182 -0.1008
14507TIP3    H164936   6.606   1.683   0.656 -0.4520  0.2987 -1.6442
14507TIP3    H264937   6.706   1.622   0.560  0.0019 -1.2638 -0.2015
14508TIP3   OH264938   0.945   6.269  14.874 -0.0969  0.2697  0.2964
14508TIP3    H164939   0.887   6.251  14.800  0.4684  0.4329 -0.1897
14508TIP3    H264940   1.006   6.335  14.840 -0.0694  0.6199  1.0213
14509TIP3   OH264941   0.255   4.699  14.128 -0.2300 -0.6838  0.2864
14509TIP3    H164942   0.334   4.716  14.180  0.3690 -0.0426 -0.8362
14509TIP3    H264943   0.225   4.614  14.160 -0.0697 -0.1489  1.9379
14510TIP3   OH264944   6.252   3.374  15.865 -0.2394 -0.3283 -0.2489
14510TIP3    H164945   6.276   3.368  15.773 -0.9458  0.5105 -0.4926
14510TIP3    H264946   6.289   3.295  15.904  0.1243 -0.6560 -1.2345
14511TIP3   OH264947   2.604   5.385   5.505  0.0090  0.2065  0.7039
14511TIP3    H164948   2.591   5.315   5.570  0.2909 -1.6617 -1.2002
14511TIP3    H264949   2.568   5.349   5.424  2.3228  1.3362 -0.8716
14512TIP3   OH264950   3.994   6.654  15.232 -0.0324  0.2168 -0.0266
14512TIP3    H164951   3.931   6.726  15.223  0.6950  0.9727  0.7802
14512TIP3    H264952   3.954   6.581  15.183 -0.7245  1.1945 -0.9654
14513TIP3   OH264953   2.993   0.351  11.676  0.3184  0.1690  0.4494
14513TIP3    H164954   3.048   0.312  11.609  0.0200 -0.6455  0.6764
14513TIP3    H264955   2.936   0.280  11.705  0.1556  0.6219  1.2614
14514TIP3   OH264956   3.343   4.700   5.742 -0.5022 -0.0721  0.5320
14514TIP3    H164957   3.279   4.701   5.812 -0.3297  1.9274  0.6756
14514TIP3    H264958   3.390   4.783   5.750 -0.4478  0.1880 -1.9155
14515TIP3   OH264959   3.132   2.990   4.581 -0.1799  0.0264  0.0070
14515TIP3    H164960   3.127   3.015   4.489  0.4675  1.1493  0.2652
14515TIP3    H264961   3.090   2.904   4.585  2.2707 -1.3474 -1.8364
14516TIP3   OH264962   5.059   3.679  12.155 -0.1688  0.7502 -0.7715
14516TIP3    H164963   5.118   3.685  12.080 -0.0856  1.5273 -0.6420
14516TIP3    H264964   5.115   3.692  12.232  0.2347 -2.6945 -0.3794
14517TIP3   OH264965   5.174   1.131  13.995 -0.3065  0.0535 -0.2408
14517TIP3    H164966   5.128   1.089  13.923  0.4516 -1.2772  0.0350
14517TIP3    H264967   5.255   1.164  13.956  0.2046 -0.8594  0.0452
14518TIP3   OH264968   6.456   6.285   1.626 -0.4868  0.2373 -0.0425
14518TIP3    H164969   6.364   6.261   1.632 -1.3558  3.2076 -0.7925
14518TIP3    H264970   6.495   6.250   1.706 -2.7353  0.9182  1.3973
14519TIP3   OH264971   2.246   6.041   3.097 -0.0786 -0.0536 -0.1124
14519TIP3    H164972   2.196   5.976   3.148  0.8526 -0.7852 -0.1133
14519TIP3    H264973   2.189   6.063   3.024 -1.6996  1.4753  1.5603
14520TIP3   OH264974   0.281   1.634   3.975 -0.1061 -0.6012 -0.3285
14520TIP3    H164975   0.351   1.569   3.981  1.5354  1.0442 -1.4192
14520TIP3    H264976   0.306   1.691   3.903 -2.1926  0.4859 -0.2437
14521TIP3   OH264977   5.693   4.978  12.617  0.8321 -0.4490 -0.4796
14521TIP3    H164978   5.633   4.986  12.542  0.1664 -1.8089 -0.1057
14521TIP3    H264979   5.666   5.049  12.675 -1.3525 -1.8439  0.2942
14522TIP3   OH264980   0.278   2.261  11.420 -0.0797  0.4437  0.1105
14522TIP3    H164981   0.199   2.307  11.391  0.4029  0.9408 -0.4273
14522TIP3    H264982   0.264   2.170  11.395 -1.0941  0.2763  1.2811
14523TIP3   OH264983   3.588   5.015   0.664 -0.9600 -0.5335 -0.5423
14523TIP3    H164984   3.667   4.971   0.694 -0.3659  0.3298 -0.8333
14523TIP3    H264985   3.611   5.049   0.578 -2.3236 -2.1120 -1.5693
14524TIP3   OH264986   3.824   2.384   5.967 -0.3390 -0.6292 -0.2187
14524TIP3    H164987   3.850   2.317   6.030 -2.3902 -1.4632 -0.2231
14524TIP3    H264988   3.878   2.365   5.889  0.0296 -1.4591  0.2273
14525TIP3   OH264989   3.634   1.063  11.849  0.7940  0.3416  0.1669
14525TIP3    H164990   3.632   1.053  11.754  2.8258 -0.3362  0.1797
14525TIP3    H264991   3.542   1.059  11.876  0.3242 -1.0512 -1.6014
14526TIP3   OH264992   1.722   4.034  11.775  0.0729  0.2066  0.2734
14526TIP3    H164993   1.741   4.042  11.682  0.9145 -1.3326  0.3002
14526TIP3    H264994   1.777   4.101  11.817  0.3529  0.3042 -0.2468
14527TIP3   OH264995   1.832   2.724   0.337  0.6264 -0.5791 -0.5907
14527TIP3    H164996   1.879   2.805   0.358 -1.5227  0.4187  0.4624
14527TIP3    H264997   1.841   2.671   0.416 -1.1456  0.1748  0.1432
14528TIP3   OH264998   3.914   6.233  13.933  0.0736 -0.4143 -0.6260
14528TIP3    H164999   4.001   6.204  13.962  0.0022  0.4830  0.5488
14528TIP3    H265000   3.858   6.157  13.948  0.3444 -0.4671  0.2041
14529TIP3   OH265001   6.108   2.882  14.330 -0.1022  0.4993  0.3566
14529TIP3    H165002   6.179   2.942  14.305 -1.0224  1.8339  0.8704
14529TIP3    H265003   6.037   2.903  14.269 -1.5570  2.1842  2.5554
14530TIP3   OH265004   2.419   4.882   0.053 -0.1653 -0.5401 -0.7559
14530TIP3    H165005   2.463   4.897   0.136  0.8516  0.9090 -1.5292
14530TIP3    H265006   2.335   4.844   0.077 -1.0071  2.2961  1.1025
14531TIP3   OH265007   2.821   0.230   4.115 -0.2948  0.1848 -0.5762
14531TIP3    H165008   2.879   0.195   4.183 -1.6154  1.7100  1.4286
14531TIP3    H265009   2.753   0.164   4.104 -1.6670  1.1350  1.7347
14532TIP3   OH265010   0.400   1.870   3.803 -0.0502  0.5087 -0.1269
14532TIP3    H165011   0.338   1.936   3.835 -2.3778 -1.9801  0.7012
14532TIP3    H265012   0.480   1.886   3.854 -1.7216  0.5134  2.6125
14533TIP3   OH265013   0.069   1.139   0.234  0.7558  0.1299 -0.8636
14533TIP3    H165014   0.156   1.143   0.272  0.9376  2.5995 -1.4783
14533TIP3    H265015   0.081   1.090   0.152  1.3975 -0.3186 -0.5006
14534TIP3   OH265016   6.291   3.569   2.501 -0.6048 -0.5355 -0.9736
14534TIP3    H165017   6.204   3.585   2.463 -0.1089 -0.6254 -2.1935
14534TIP3    H265018   6.291   3.475   2.521 -1.4494 -0.1774  0.7861
14535TIP3   OH265019   5.059   5.033   1.855 -0.3805 -0.2769  0.1775
14535TIP3    H165020   5.051   5.058   1.763 -1.5365  0.5902  0.5095
14535TIP3    H265021   5.136   4.975   1.857  0.1188  0.3110 -1.1963
14536TIP3   OH265022   3.658   0.573   5.095 -0.6136 -0.1136 -0.0839
14536TIP3    H165023   3.600   0.530   5.159 -0.0511 -0.9226 -0.1021
14536TIP3    H265024   3.666   0.663   5.126 -2.0039  0.0417 -0.1713
14537TIP3   OH265025   0.253   3.276   1.182  0.4981  0.1554  0.0376
14537TIP3    H165026   0.323   3.228   1.138  0.5704 -0.8174  1.1979
14537TIP3    H265027   0.287   3.294   1.270 -0.8717 -0.7482  0.7809
14538TIP3   OH265028   4.611   4.373   5.684 -0.3956 -0.1514 -0.5632
14538TIP3    H165029   4.629   4.448   5.741  2.4306 -0.4291 -0.9901
14538TIP3    H265030   4.569   4.309   5.742  0.0380  0.5809  0.5873
14539TIP3   OH265031   2.545   5.990   3.659  0.2186  0.2678  0.3512
14539TIP3    H165032   2.472   6.008   3.600 -0.9822 -2.0495  1.0573
14539TIP3    H265033   2.576   5.903   3.633  0.9763  0.0960  1.7809
14540TIP3   OH265034   3.258   5.348  16.141 -0.0631  0.0764  0.1934
14540TIP3    H165035   3.257   5.372  16.234 -0.5594 -0.7316  0.4049
14540TIP3    H265036   3.318   5.274  16.136  0.5480  0.6117 -0.2527
14541TIP3   OH265037   2.081   1.965  12.144 -0.0681  0.6432 -0.0667
14541TIP3    H165038   2.026   2.031  12.101 -1.0923  0.6110  1.1606
14541TIP3    H265039   2.020   1.894  12.164  0.2748  0.9164  1.9702
14542TIP3   OH265040   5.489   5.701   1.041  0.3571 -0.1633 -0.0032
14542TIP3    H165041   5.565   5.653   1.010 -0.8931 -1.6699 -0.8081
14542TIP3    H265042   5.483   5.777   0.984  1.1426 -0.1370 -0.0507
14543TIP3   OH265043   0.967   5.050  10.586 -0.4808 -0.1335  0.7059
14543TIP3    H165044   0.977   5.113  10.515 -0.0998  1.8702  2.4696
14543TIP3    H265045   0.876   5.061  10.615  0.4309  1.9140  3.0315
14544TIP3   OH265046   6.511   2.094   3.965  0.3279 -0.0098 -0.2942
14544TIP3    H165047   6.432   2.040   3.966 -1.0878  1.9622 -1.9597
14544TIP3    H265048   6.544   2.091   4.055 -1.3171 -1.2799  0.2844
14545TIP3   OH265049   0.292   2.713   2.940 -0.7034 -0.2148 -0.0717
14545TIP3    H165050   0.320   2.800   2.967  0.6246 -1.1105  1.5347
14545TIP3    H265051   0.317   2.707   2.848 -1.5637  1.3871 -0.4302
14546TIP3   OH265052   5.277   1.879   4.384 -0.3058 -0.5858 -0.4767
14546TIP3    H165053   5.280   1.938   4.309 -0.3672  0.2575  0.1702
14546TIP3    H265054   5.263   1.793   4.346 -0.4031 -0.1625 -1.4283
14547TIP3   OH265055   6.499   0.733   2.230 -0.0136 -0.2840  0.3567
14547TIP3    H165056   6.426   0.794   2.217  0.5313  0.3851  0.3450
14547TIP3    H265057   6.561   0.756   2.161 -0.0944 -1.3174 -0.0672
14548TIP3   OH265058   0.275   1.633  11.729  0.0444 -0.5556 -0.8802
14548TIP3    H165059   0.298   1.562  11.789  1.3128 -0.6703 -1.4702
14548TIP3    H265060   0.308   1.603  11.644 -0.2863  0.3128 -1.3171
14549TIP3   OH265061   2.799   5.560  16.064 -0.1084 -0.0562 -0.0121
14549TIP3    H165062   2.713   5.549  16.104  0.2931 -1.0932  0.5870
14549TIP3    H265063   2.792   5.518  15.978  0.2230 -1.4410  0.6284
14550TIP3   OH265064   6.530   3.942   4.709 -0.2339  0.7275 -0.4602
14550TIP3    H165065   6.617   3.974   4.734  0.0028 -1.2385  1.3319
14550TIP3    H265066   6.473   4.019   4.717  0.9618  1.5384  0.3750
14551TIP3   OH265067   4.802   2.117  16.227  0.3207 -0.4556 -0.1957
14551TIP3    H165068   4.793   2.106  16.132 -0.8396  0.4574 -0.2101
14551TIP3    H265069   4.724   2.075  16.263 -0.7400  1.7404  0.1529
14552TIP3   OH265070   5.568   2.828  15.003  0.7781 -0.7237  0.2034
14552TIP3    H165071   5.613   2.758  14.957  0.4055 -0.4301 -0.6165
14552TIP3    H265072   5.622   2.905  14.989  1.6901 -1.0362  1.9036
14553TIP3   OH265073   1.608   2.857  16.553  0.5554 -0.4956  0.3541
14553TIP3    H165074   1.644   2.842  16.640  1.8838  0.8829  0.0529
14553TIP3    H265075   1.618   2.951  16.538 -1.0783 -0.4598 -0.6634
14554TIP3   OH265076   2.640   1.706   3.162 -0.0104 -0.1144 -0.1167
14554TIP3    H165077   2.619   1.795   3.191 -0.7980 -0.7175  1.2286
14554TIP3    H265078   2.686   1.718   3.079  1.9609  1.6515  1.1876
14555TIP3   OH265079   1.667   4.320   3.831 -0.0685 -0.5849  0.0131
14555TIP3    H165080   1.699   4.285   3.915 -0.4151  0.1531  0.4662
14555TIP3    H265081   1.680   4.249   3.769  1.9078 -0.5312  0.3000
14556TIP3   OH265082   5.529   6.071   3.761 -0.1428  0.2121 -0.5280
14556TIP3    H165083   5.545   6.000   3.823 -0.9053  1.8925  1.6603
14556TIP3    H265084   5.609   6.075   3.708  0.7820 -0.8748  0.7576
14557TIP3   OH265085   0.161   5.597   4.137  0.4671 -0.4774  0.4597
14557TIP3    H165086   0.185   5.518   4.186 -0.8427 -0.3651  1.3158
14557TIP3    H265087   0.087   5.570   4.083  0.4742 -0.0183  0.2258
14558TIP3   OH265088   1.549   0.121  15.915 -0.0185 -0.4973 -0.4298
14558TIP3    H165089   1.637   0.154  15.895  0.8261 -2.5362 -0.2051
14558TIP3    H265090   1.512   0.187  15.974  2.5211 -1.1174  1.9601
14559TIP3   OH265091   3.107   1.918  11.556 -0.0077  0.4527  0.3871
14559TIP3    H165092   3.175   1.956  11.501 -2.2416  2.2014 -1.2663
14559TIP3    H265093   3.122   1.824  11.553  2.3923  0.8117  0.1888
14560TIP3   OH265094   2.907   1.939  12.719  0.3433  0.3782  0.2460
14560TIP3    H165095   2.992   1.955  12.679 -0.4184  1.0721 -1.1125
14560TIP3    H265096   2.898   1.843  12.719  0.6826  0.3476 -0.5247
14561TIP3   OH265097   5.640   1.762   0.622 -0.4456 -0.1152  0.3103
14561TIP3    H165098   5.633   1.767   0.717 -1.7861 -1.9590  0.3359
14561TIP3    H265099   5.609   1.847   0.591  2.3325  1.4151  1.5867
14562TIP3   OH265100   1.460   2.967   5.002 -0.3140  0.3023  0.8176
14562TIP3    H165101   1.540   2.991   5.048 -0.2312  0.3123  0.6659
14562TIP3    H265102   1.402   3.043   5.014 -0.4769  0.0990  1.3360
14563TIP3   OH265103   4.095   5.983   0.801  0.2531  0.0717 -0.0241
14563TIP3    H165104   4.149   5.907   0.822 -0.2860  0.2947  2.2543
14563TIP3    H265105   4.155   6.057   0.805  0.0275  0.1832  1.3521
14564TIP3   OH265106   5.202   2.184   5.373 -0.3542  0.0528 -0.1757
14564TIP3    H165107   5.148   2.262   5.365  0.0478  0.3051 -0.4065
14564TIP3    H265108   5.211   2.170   5.468 -0.1034  0.5104 -0.1311
14565TIP3   OH265109   2.170   0.206   4.592 -0.1412 -0.2883 -0.0339
14565TIP3    H165110   2.208   0.130   4.635 -0.9330 -0.2311  0.7823
14565TIP3    H265111   2.212   0.281   4.633 -0.4569 -0.2473  0.2132
14566TIP3   OH265112   6.297   2.725   0.598  0.3178 -0.7030 -0.0257
14566TIP3    H165113   6.324   2.743   0.508  0.0673 -1.2247 -0.2054
14566TIP3    H265114   6.208   2.690   0.590  0.3361 -0.8518  0.4179
14567TIP3   OH265115   2.382   2.051  15.276  0.1528  0.0718 -0.3922
14567TIP3    H165116   2.350   2.055  15.366 -1.4255 -1.5625 -0.8555
14567TIP3    H265117   2.398   2.142  15.253 -1.4348  0.6946  0.8334
14568TIP3   OH265118   2.281   5.808   4.899 -0.2033 -0.0067  0.5505
14568TIP3    H165119   2.249   5.810   4.990 -0.3160 -0.2108  0.5159
14568TIP3    H265120   2.267   5.897   4.867  0.5363  0.2703  0.9727
14569TIP3   OH265121   1.597   2.791   6.452  0.1695  0.1217  0.3510
14569TIP3    H165122   1.535   2.858   6.425  0.4308 -0.2384 -1.1916
14569TIP3    H265123   1.565   2.711   6.409  0.4022 -0.5389  1.3950
14570TIP3   OH265124   5.442   3.045  14.706  0.0658  0.1102  0.2781
14570TIP3    H165125   5.434   2.978  14.773 -1.6021  0.4015  0.3950
14570TIP3    H265126   5.352   3.061  14.676  0.7136  0.4033 -1.6146
14571TIP3   OH265127   6.287   3.613   1.699 -0.1404  0.3046 -0.6052
14571TIP3    H165128   6.310   3.620   1.791  0.6583 -1.4125 -0.6564
14571TIP3    H265129   6.230   3.688   1.683 -0.2971  0.6099  1.2750
14572TIP3   OH265130   5.937   5.813  10.521 -0.2836  0.3531 -0.2568
14572TIP3    H165131   5.907   5.843  10.607  0.9611  1.2292 -0.1216
14572TIP3    H265132   5.974   5.891  10.480 -0.6506 -0.1102 -1.5044
14573TIP3   OH265133   6.234   1.162  17.188 -0.0421  0.1900 -0.2066
14573TIP3    H165134   6.265   1.241  17.143  1.2342 -1.1822 -1.8150
14573TIP3    H265135   6.313   1.126  17.229 -0.6730 -0.1126  0.7487
14574TIP3   OH265136   1.566   6.066  10.819 -0.2277 -0.2619 -0.0773
14574TIP3    H165137   1.573   5.971  10.810  0.5869 -0.1758 -0.3452
14574TIP3    H265138   1.518   6.094  10.741  0.2025 -0.3623 -0.3734
14575TIP3   OH265139   4.793   1.859  12.855 -0.2748  0.1984  0.1334
14575TIP3    H165140   4.799   1.871  12.950 -0.7368 -0.2849  0.2264
14575TIP3    H265141   4.863   1.913  12.820  0.7945 -0.7073  0.8370
14576TIP3   OH265142   6.361   3.930  16.656  0.2602  0.5187 -0.0102
14576TIP3    H165143   6.378   3.982  16.735 -1.5366 -0.8120  1.2912
14576TIP3    H265144   6.347   3.841  16.687 -1.8420  0.2164 -1.6687
14577TIP3   OH265145   0.047   0.262  15.838  0.2561 -0.0246  0.6476
14577TIP3    H165146   0.060   0.239  15.746  0.7213 -1.6415  1.0947
14577TIP3    H265147   0.128   0.305  15.864  0.7922 -1.0818  0.7451
14578TIP3   OH265148   5.277   2.268   5.867 -0.0542  0.1524 -0.4149
14578TIP3    H165149   5.191   2.303   5.841 -0.5996  0.3918  1.6850
14578TIP3    H265150   5.330   2.346   5.885  0.4003 -0.0114 -1.0176
14579TIP3   OH265151   1.458   1.384  15.314 -0.2488  0.3318 -0.1431
14579TIP3    H165152   1.397   1.356  15.245 -2.3487  2.0377  0.9357
14579TIP3    H265153   1.509   1.454  15.274  1.6474 -1.6327 -1.3059
14580TIP3   OH265154   2.336   0.997   1.577 -0.2272 -0.4802 -0.2914
14580TIP3    H165155   2.424   0.972   1.605  0.7354  1.6042 -1.3983
14580TIP3    H265156   2.323   1.085   1.613 -1.2442 -0.1297 -1.4842
14581TIP3   OH265157   5.795   2.106   4.257 -0.6248 -0.3584 -0.5540
14581TIP3    H165158   5.863   2.162   4.295 -1.5976  1.3381 -1.2692
14581TIP3    H265159   5.839   2.061   4.185  0.1632 -0.5315  0.0256
14582TIP3   OH265160   4.841   4.917  12.605 -0.3106 -0.1762  0.0475
14582TIP3    H165161   4.797   4.999  12.584  0.4259 -0.2682 -2.0359
14582TIP3    H265162   4.930   4.943  12.628 -0.5565 -0.2581  1.1202
14583TIP3   OH265163   5.221   5.441  12.415  0.9592 -0.4414  0.0677
14583TIP3    H165164   5.273   5.486  12.482  0.3043  0.0929  0.2192
14583TIP3    H265165   5.253   5.474  12.332  1.8811 -1.2196  0.1092
14584TIP3   OH265166   0.997   6.740   5.080 -0.2439  0.4154 -0.1279
14584TIP3    H165167   1.077   6.708   5.123 -1.9970 -1.1371  2.1007
14584TIP3    H265168   0.986   6.682   5.004 -0.3677 -0.7364  0.7466
14585TIP3   OH265169   1.445   2.019   5.774  0.3754  0.4644  0.1784
14585TIP3    H165170   1.406   1.990   5.691  0.5811 -0.2822  0.3408
14585TIP3    H265171   1.475   2.108   5.756 -1.3873  1.0488  0.0500
14586TIP3   OH265172   4.548   0.069   2.456 -0.7998 -0.1905 -0.1450
14586TIP3    H165173   4.527   0.014   2.381  1.0056  0.1294 -0.8933
14586TIP3    H265174   4.616   0.128   2.425 -1.5760  1.4075  1.1146
14587TIP3   OH265175   1.187   3.620   4.204  0.4187 -0.4426 -0.6006
14587TIP3    H165176   1.258   3.679   4.228 -0.0823  0.2947 -0.9278
14587TIP3    H265177   1.191   3.613   4.109  0.6860 -1.2048 -0.5390
14588TIP3   OH265178   0.940   3.547   1.136  0.1996  0.5488  0.0169
14588TIP3    H165179   0.885   3.472   1.158  2.5723 -1.8638 -1.8376
14588TIP3    H265180   0.947   3.544   1.040  1.0463  2.6263 -0.0119
14589TIP3   OH265181   2.796   0.749   1.112 -0.1157 -0.0206 -0.1956
14589TIP3    H165182   2.758   0.782   1.031 -1.9409  0.0907  0.6907
14589TIP3    H265183   2.876   0.801   1.124 -1.5973  2.3278 -0.1618
14590TIP3   OH265184   1.729   5.430  16.132  0.7498  0.2178  0.1416
14590TIP3    H165185   1.765   5.510  16.171  0.3257 -0.4937  2.0629
14590TIP3    H265186   1.777   5.419  16.051  2.2352  1.3271  0.8472
14591TIP3   OH265187   3.821   2.880  16.782  0.3972  0.0517 -0.2440
14591TIP3    H165188   3.783   2.934  16.852 -1.2004 -3.1122  1.4303
14591TIP3    H265189   3.916   2.887  16.794  0.2780  3.0063 -0.5516
14592TIP3   OH265190   0.805   1.565  11.623  0.2753 -0.0803 -0.3488
14592TIP3    H165191   0.890   1.602  11.598 -0.3469  2.9265  1.7222
14592TIP3    H265192   0.741   1.621  11.579 -0.6857 -1.4717 -0.7635
14593TIP3   OH265193   3.071   5.670   4.309  0.5900  0.4732 -0.4025
14593TIP3    H165194   3.083   5.590   4.257  2.0845 -1.6335  3.0246
14593TIP3    H265195   3.158   5.691   4.342 -0.6416  0.2940  3.1883
14594TIP3   OH265196   3.635   0.847   1.984 -0.0008 -0.0226 -0.2877
14594TIP3    H165197   3.549   0.828   1.948 -0.1992  0.2610  0.0416
14594TIP3    H265198   3.645   0.785   2.057 -0.1501  0.3093  0.0172
14595TIP3   OH265199   3.480   0.820   0.149 -0.2924 -0.6424 -0.0411
14595TIP3    H165200   3.508   0.852   0.235 -1.4737 -0.1674  0.1749
14595TIP3    H265201   3.427   0.743   0.168  0.4990 -1.3032 -0.4322
14596TIP3   OH265202   2.718   1.961  15.475 -0.2086 -0.2669  0.0841
14596TIP3    H165203   2.672   1.961  15.391 -3.3035  0.7344  1.7030
14596TIP3    H265204   2.802   1.919  15.456 -1.9900 -2.7280 -2.8864
14597TIP3   OH265205   3.117   4.489   0.076  0.5630 -0.2072  0.1927
14597TIP3    H165206   3.148   4.522  -0.008 -1.1806  3.1960  0.7819
14597TIP3    H265207   3.035   4.444   0.056  1.1147 -1.0718 -0.1494
14598TIP3   OH265208   6.760   4.338  16.641  0.3491  0.6224  0.3944
14598TIP3    H165209   6.827   4.364  16.577  1.2592  2.3360  2.0131
14598TIP3    H265210   6.798   4.264  16.687  0.1645  0.1254 -0.2370
14599TIP3   OH265211   2.203   3.279  12.310 -0.1843  0.2128  0.1233
14599TIP3    H165212   2.162   3.269  12.396  2.4389  0.5759  1.4480
14599TIP3    H265213   2.130   3.295  12.251 -2.1873 -1.5767  2.0179
14600TIP3   OH265214   5.984   3.285   2.423  0.1303 -0.1660 -0.0700
14600TIP3    H165215   6.020   3.247   2.502  1.8139 -1.2085 -1.3097
14600TIP3    H265216   6.019   3.375   2.422  2.9034 -1.1983 -1.3203
14601TIP3   OH265217   1.447   3.259   6.187 -0.4165  0.0852  0.3668
14601TIP3    H165218   1.535   3.238   6.218 -0.0806  1.8662  0.6761
14601TIP3    H265219   1.391   3.245   6.263  0.0154  1.6764  1.0200
14602TIP3   OH265220   3.493   1.732   1.264 -0.1993  0.1467 -0.2030
14602TIP3    H165221   3.532   1.738   1.352  2.5938 -1.1173 -1.3044
14602TIP3    H265222   3.556   1.681   1.214 -1.4890  1.3524 -3.1271
14603TIP3   OH265223   2.667   0.220   1.994 -0.4561 -0.0382 -0.4598
14603TIP3    H165224   2.650   0.243   1.902 -2.0855  0.8647  0.0490
14603TIP3    H265225   2.704   0.300   2.032  0.4735 -0.4976 -0.3976
14604TIP3   OH265226   1.853   4.218   6.163 -0.1260 -0.4116  0.0495
14604TIP3    H165227   1.887   4.134   6.193  0.2911  0.2669  1.5184
14604TIP3    H265228   1.924   4.257   6.113  0.5699  0.1377  1.4475
14605TIP3   OH265229   4.252   5.871   2.715 -0.0025  0.4190  0.0552
14605TIP3    H165230   4.329   5.927   2.704 -0.2486  0.6628 -0.4123
14605TIP3    H265231   4.177   5.929   2.701 -0.2519 -0.1001 -0.8184
14606TIP3   OH265232   4.673   3.167   1.637  0.9165 -0.3520 -0.0887
14606TIP3    H165233   4.700   3.080   1.668  0.3203 -0.3971  0.3217
14606TIP3    H265234   4.715   3.228   1.698  2.5990 -0.2784 -1.3144
14607TIP3   OH265235   4.064   2.513  17.022  0.5250  0.3179  0.1341
14607TIP3    H165236   3.996   2.458  16.983  1.7697 -0.6887 -0.6701
14607TIP3    H265237   4.059   2.595  16.974  0.1020  0.1289 -0.1503
14608TIP3   OH265238   2.255   1.347  13.730 -0.0180 -0.1150 -0.3489
14608TIP3    H165239   2.203   1.284  13.680  0.0707  0.3517 -1.0320
14608TIP3    H265240   2.327   1.296  13.767 -0.2013 -0.4989 -0.5270
14609TIP3   OH265241   1.985   1.319   4.428  0.0426  0.3369  0.4653
14609TIP3    H165242   2.056   1.267   4.389 -1.4016 -1.9140  0.7147
14609TIP3    H265243   1.957   1.378   4.358 -0.2171 -1.2663 -0.8241
14610TIP3   OH265244   4.317   0.606   1.623  0.3409  0.0612 -0.2769
14610TIP3    H165245   4.278   0.621   1.709  2.2670 -1.6852  0.9619
14610TIP3    H265246   4.250   0.560   1.573 -0.3293 -0.0549  0.7250
14611TIP3   OH265247   1.102   1.840   1.498 -0.2343 -0.3705  0.0439
14611TIP3    H165248   1.065   1.876   1.579  1.2962  1.7663 -0.1683
14611TIP3    H265249   1.060   1.890   1.428 -0.6710 -1.4055 -0.4518
14612TIP3   OH265250   5.407   1.563   5.399 -0.3350  0.0357 -0.2635
14612TIP3    H165251   5.375   1.474   5.416 -1.4045  0.2943 -0.9167
14612TIP3    H265252   5.355   1.619   5.457  0.2870  0.2554  0.0944
14613TIP3   OH265253   3.525   2.831  17.051 -0.1828 -0.4014 -0.5563
14613TIP3    H165254   3.586   2.758  17.064  0.5233  0.0856 -1.0469
14613TIP3    H265255   3.486   2.846  17.137  0.8069 -0.3596 -0.1027
14614TIP3   OH265256   5.578   0.856   4.923  0.2910 -0.1293  0.0873
14614TIP3    H165257   5.536   0.876   5.007 -0.6551 -0.1488 -0.3774
14614TIP3    H265258   5.588   0.941   4.880  2.1739  0.0530  0.8682
14615TIP3   OH265259   4.690   3.159  12.114  0.0878  0.4914 -0.5429
14615TIP3    H165260   4.648   3.116  12.040 -1.4573 -0.9434  1.1365
14615TIP3    H265261   4.622   3.213  12.154 -0.6086 -2.7269  2.8744
14616TIP3   OH265262   2.154   4.534   4.743  0.1323  0.1885 -0.0678
14616TIP3    H165263   2.224   4.558   4.803  1.5957 -2.5908 -0.5811
14616TIP3    H265264   2.111   4.459   4.784  0.3331 -0.9361 -1.8464
14617TIP3   OH265265   1.485   5.767   2.096 -0.5141  0.0159  0.1088
14617TIP3    H165266   1.436   5.701   2.145 -0.9152  0.9157  0.9569
14617TIP3    H265267   1.418   5.827   2.064 -0.0678  0.6502  0.3462
14618TIP3   OH265268   3.021   6.419  17.072  0.1778  0.2048  0.0352
14618TIP3    H165269   2.999   6.509  17.094  1.0170  0.5986 -0.7074
14618TIP3    H265270   2.998   6.411  16.979 -0.5128 -0.5429  0.2629
14619TIP3   OH265271   0.876   4.085  12.425  0.0515  0.2860  0.0948
14619TIP3    H165272   0.958   4.035  12.431 -0.0788  0.2390  1.4434
14619TIP3    H265273   0.874   4.115  12.334  1.3044 -0.1607 -0.0949
14620TIP3   OH265274   0.864   4.177   5.287  1.4089 -0.3161 -0.4369
14620TIP3    H165275   0.839   4.246   5.349  1.7531 -0.8662  0.3203
14620TIP3    H265276   0.808   4.103   5.308  0.8594 -0.1877 -1.4249
14621TIP3   OH265277   4.447   3.521   4.942 -0.3592  0.0399  0.4997
14621TIP3    H165278   4.423   3.613   4.940 -0.9329 -0.0533  2.2380
14621TIP3    H265279   4.375   3.475   4.899 -1.4117  0.1578  2.0828
14622TIP3   OH265280   4.063   1.346  16.807  0.1204  0.0020 -0.3166
14622TIP3    H165281   4.054   1.345  16.902  1.8792 -0.2521 -0.1372
14622TIP3    H265282   4.125   1.416  16.789 -0.7598  0.5288 -1.3395
14623TIP3   OH265283   3.563   0.266  16.916 -0.3296 -0.2624 -0.0868
14623TIP3    H165284   3.644   0.220  16.896  0.3977 -0.1856  2.4911
14623TIP3    H265285   3.516   0.208  16.977 -1.3952  0.4553 -0.1993
14624TIP3   OH265286   2.372   4.952  14.495 -0.8073 -0.0580  0.4949
14624TIP3    H165287   2.290   4.960  14.446 -0.3385 -0.2628 -0.3252
14624TIP3    H265288   2.344   4.943  14.587 -1.6621  0.9881  0.3533
14625TIP3   OH265289   5.916   4.748  16.237 -0.3980 -0.3978 -0.3683
14625TIP3    H165290   5.957   4.669  16.201  2.2973  0.0440  1.5424
14625TIP3    H265291   5.987   4.791  16.285 -2.1937  2.4458 -0.1676
14626TIP3   OH265292   4.654   5.578  12.581  0.0417 -0.1834 -0.5155
14626TIP3    H165293   4.618   5.609  12.498  0.2995 -0.2315 -0.6469
14626TIP3    H265294   4.606   5.497  12.599 -1.2478  0.7430  0.2680
14627TIP3   OH265295   0.982   3.513  15.324 -0.0433  0.1057 -0.4195
14627TIP3    H165296   1.026   3.567  15.259 -0.1867 -0.4493 -0.9807
14627TIP3    H265297   0.973   3.570  15.400 -1.4356  1.3267 -1.4669
14628TIP3   OH265298   0.497   5.247  17.158  0.0295 -0.0131  0.2775
14628TIP3    H165299   0.588   5.251  17.187  0.5279 -2.1835 -0.8750
14628TIP3    H265300   0.458   5.176  17.209 -0.5356 -0.2468 -0.4551
14629TIP3   OH265301   3.846   4.168   3.264  0.5876 -0.2241 -0.1715
14629TIP3    H165302   3.855   4.098   3.201  0.5435 -1.0599  0.7421
14629TIP3    H265303   3.924   4.161   3.320  1.0446  1.0160 -0.6226
14630TIP3   OH265304   0.752   6.208  11.081 -0.0539  0.6104 -0.0748
14630TIP3    H165305   0.784   6.195  10.991  0.4300  0.3152  0.1365
14630TIP3    H265306   0.664   6.170  11.081  0.6315 -1.0251  0.0463
14631TIP3   OH265307   0.424   1.546   1.914  0.0961  0.0731  0.5531
14631TIP3    H165308   0.455   1.535   1.824 -0.9143  0.5505  0.1429
14631TIP3    H265309   0.430   1.640   1.930  1.1033 -0.1087  1.2950
14632TIP3   OH265310   4.520   3.440   0.949 -0.2315  0.3021  0.3904
14632TIP3    H165311   4.463   3.497   0.898  0.1094 -1.2119 -1.7473
14632TIP3    H265312   4.464   3.405   1.018 -1.3052  0.5734 -0.3398
14633TIP3   OH265313   5.926   3.138   2.213  0.2901  0.4911  0.2170
14633TIP3    H165314   5.834   3.129   2.236 -0.1300  2.7236 -0.4330
14633TIP3    H265315   5.969   3.166   2.294  0.5134 -1.1315  0.6686
14634TIP3   OH265316   2.518   0.245   1.123  0.6213  0.2251 -0.0883
14634TIP3    H165317   2.502   0.261   1.216  0.5238 -0.1844 -0.0332
14634TIP3    H265318   2.443   0.194   1.095 -0.2253  1.8163 -0.8048
14635TIP3   OH265319   0.896   1.281  16.846  0.1624  0.5629 -0.2395
14635TIP3    H165320   0.806   1.312  16.853  0.1234  0.7624 -1.5994
14635TIP3    H265321   0.913   1.241  16.931 -0.5789  2.1609  0.6790
14636TIP3   OH265322   6.689   1.572   6.812 -0.1465  0.0704 -0.9418
14636TIP3    H165323   6.670   1.581   6.906 -1.3084 -2.0419 -0.9411
14636TIP3    H265324   6.611   1.608   6.769 -0.5330 -0.8864 -1.0538
14637TIP3   OH265325   2.294   6.177  14.276 -0.3252  0.4231 -0.6103
14637TIP3    H165326   2.334   6.091  14.276 -0.5718  0.3023  0.6197
14637TIP3    H265327   2.278   6.196  14.183 -1.0254 -1.2034 -0.8447
14638TIP3   OH265328   4.916   0.536  11.674 -0.6474 -0.1576  0.3543
14638TIP3    H165329   4.861   0.578  11.608  1.7197  2.0469 -0.2695
14638TIP3    H265330   4.999   0.520  11.629  1.2344  2.0008  2.9602
14639TIP3   OH265331   3.841   5.626   0.555  0.2311  0.0002  0.1968
14639TIP3    H165332   3.910   5.642   0.619 -1.3432  0.4756  1.8159
14639TIP3    H265333   3.856   5.536   0.525  2.0241  0.3763 -0.1165
14640TIP3   OH265334   3.689   5.481   3.899 -0.3896  0.0740 -0.0013
14640TIP3    H165335   3.659   5.508   3.812 -0.2607 -2.4964 -0.8931
14640TIP3    H265336   3.778   5.448   3.884 -0.1710  0.0862  1.2157
14641TIP3   OH265337   2.346   4.111  12.389  1.0000 -0.9970 -0.2340
14641TIP3    H165338   2.333   4.053  12.314  1.9462 -0.9378 -0.4423
14641TIP3    H265339   2.380   4.192  12.352 -0.0427 -0.3964  0.0903
14642TIP3   OH265340   3.216   1.660   3.721 -0.8029 -0.1902 -0.1092
14642TIP3    H165341   3.164   1.584   3.744 -1.9468  1.0715  1.6069
14642TIP3    H265342   3.305   1.637   3.747 -1.0410 -1.1546 -0.1486
14643TIP3   OH265343   4.440   3.958  14.742  0.2820  0.4244 -0.4047
14643TIP3    H165344   4.454   3.944  14.649  1.2367 -0.7657 -0.1005
14643TIP3    H265345   4.380   3.888  14.768  1.8510 -0.6871  0.3205
14644TIP3   OH265346   5.980   3.587   1.445  0.1472  0.1928 -0.7209
14644TIP3    H165347   5.998   3.675   1.477 -0.3327  0.4317 -1.0970
14644TIP3    H265348   5.889   3.570   1.471  1.0873 -1.2682  1.7622
14645TIP3   OH265349   3.661   1.178   5.302  0.2107 -0.0440 -0.1208
14645TIP3    H165350   3.703   1.124   5.235 -0.5289  0.7519 -1.2618
14645TIP3    H265351   3.713   1.165   5.381  0.8073 -1.3949 -0.7221
14646TIP3   OH265352   0.599   2.574   0.616 -0.0428  0.7085 -0.1078
14646TIP3    H165353   0.510   2.593   0.646  0.2428 -0.8459  1.7851
14646TIP3    H265354   0.607   2.624   0.534 -1.5387  3.4060  1.3051
14647TIP3   OH265355   1.948   1.840  13.923  0.0682  0.0594  0.3766
14647TIP3    H165356   1.863   1.863  13.885  0.7871  0.0885 -1.2344
14647TIP3    H265357   2.005   1.913  13.899  0.6328 -0.1155  1.1881
14648TIP3   OH265358   4.219   5.498   3.918 -0.5856  0.2367 -0.0112
14648TIP3    H165359   4.186   5.426   3.865 -0.5054  0.1588  0.0444
14648TIP3    H265360   4.299   5.526   3.874 -0.5093  0.1599  0.0759
14649TIP3   OH265361   4.872   1.549   1.322 -0.3973  0.0985  0.2527
14649TIP3    H165362   4.955   1.503   1.310 -2.1009 -3.2825  0.7221
14649TIP3    H265363   4.812   1.507   1.260 -2.2853  1.0785  1.3589
14650TIP3   OH265364   5.413   1.792  10.347 -0.3172 -0.0264  0.7054
14650TIP3    H165365   5.333   1.757  10.386 -0.4822 -1.9523 -1.2704
14650TIP3    H265366   5.402   1.779  10.253  3.0320 -1.9943  0.4799
14651TIP3   OH265367   2.812   3.748  14.879  0.1394 -0.4680  0.2650
14651TIP3    H165368   2.850   3.791  14.802 -0.3022 -1.8930 -0.7807
14651TIP3    H265369   2.789   3.819  14.938  1.2026  0.6109 -0.5938
14652TIP3   OH265370   4.184   5.224  12.183  0.0141 -0.2892 -0.1472
14652TIP3    H165371   4.101   5.220  12.137 -1.1551 -0.4775  1.9009
14652TIP3    H265372   4.199   5.134  12.214  0.3709  0.0021  0.5370
14653TIP3   OH265373   5.156   0.201  11.674  0.0001  0.8548  0.4441
14653TIP3    H165374   5.117   0.285  11.651 -0.4156  0.0893 -1.8076
14653TIP3    H265375   5.082   0.144  11.695 -0.0849 -0.1440 -2.2928
14654TIP3   OH265376   1.237   0.682  12.743  0.7584  0.0448 -0.3802
14654TIP3    H165377   1.306   0.617  12.726  0.8013  0.4534 -1.8265
14654TIP3    H265378   1.282   0.755  12.784  1.0715  0.0394 -0.7149
14655TIP3   OH265379   2.241   0.680  12.554  0.2891  0.1035  0.2233
14655TIP3    H165380   2.165   0.734  12.531  0.7046 -0.2808 -2.2241
14655TIP3    H265381   2.312   0.744  12.564 -0.3760  0.4880  2.7753
14656TIP3   OH265382   0.990   2.829  15.863 -0.2067  0.9164  0.2116
14656TIP3    H165383   0.912   2.774  15.874  0.3885  0.6342  3.5614
14656TIP3    H265384   1.054   2.771  15.821 -0.6451  0.0043  0.7732
14657TIP3   OH265385   3.124   4.463   1.941 -0.2238 -0.1065 -0.1896
14657TIP3    H165386   3.030   4.447   1.951 -0.7419  2.4282 -0.5952
14657TIP3    H265387   3.135   4.554   1.969  2.1359 -0.3937 -0.1040
14658TIP3   OH265388   2.104   0.750  11.414  0.4349 -0.2828  0.3565
14658TIP3    H165389   2.015   0.736  11.446  0.0245  1.4637  0.0673
14658TIP3    H265390   2.142   0.814  11.476  0.2631  1.6947 -1.5126
14659TIP3   OH265391   3.541   3.120  14.890  0.7838  1.0740  0.1594
14659TIP3    H165392   3.630   3.151  14.877  1.6720 -0.9799  1.1633
14659TIP3    H265393   3.519   3.145  14.979  0.9884  0.1128  0.4879
14660TIP3   OH265394   1.069   2.431   2.897 -0.2578 -0.2862 -0.5638
14660TIP3    H165395   1.037   2.345   2.868  1.8060 -0.7703 -1.5298
14660TIP3    H265396   0.990   2.479   2.921 -1.2783 -3.6994  3.5851
14661TIP3   OH265397   4.105   2.751   3.593  0.3553 -0.4655 -0.7128
14661TIP3    H165398   4.034   2.815   3.588  1.6515  1.2260  1.3623
14661TIP3    H265399   4.164   2.774   3.521 -0.1844 -0.5964 -1.1998
14662TIP3   OH265400   2.983   3.607   2.462 -0.7033 -0.0997  0.2070
14662TIP3    H165401   2.944   3.521   2.479  0.4008 -0.6145  0.1380
14662TIP3    H265402   2.907   3.665   2.454 -1.5474 -1.4339 -1.8981
14663TIP3   OH265403   2.328   1.502   5.448 -0.7395  0.5848 -0.3392
14663TIP3    H165404   2.377   1.561   5.505  0.6614 -0.0598 -0.8616
14663TIP3    H265405   2.340   1.539   5.360  0.0750 -0.4232 -0.6565
14664TIP3   OH265406   2.079   5.373   4.494 -0.0193  0.3524  0.3547
14664TIP3    H165407   2.032   5.403   4.572 -1.0270 -0.7496  0.1689
14664TIP3    H265408   2.089   5.279   4.507  0.4275  0.2743 -0.5367
14665TIP3   OH265409   5.160   5.654  14.215 -0.4855  0.1675 -0.6736
14665TIP3    H165410   5.181   5.698  14.132 -2.1801  0.2573 -1.0643
14665TIP3    H265411   5.075   5.688  14.240  0.1360  0.3623  1.2858
14666TIP3   OH265412   2.104   4.617  13.675  0.3001 -0.1549  0.5591
14666TIP3    H165413   2.069   4.531  13.651 -0.1544 -0.6181  2.8345
14666TIP3    H265414   2.026   4.673  13.682  0.6759  0.8303 -2.1874
14667TIP3   OH265415   0.664   5.351   3.708 -0.2601 -0.0819  0.1227
14667TIP3    H165416   0.653   5.348   3.613  1.2324  0.4032 -0.0781
14667TIP3    H265417   0.583   5.313   3.743 -1.3936  0.9827 -1.3039
14668TIP3   OH265418   1.849   3.379   2.001 -0.1439  0.2471  0.1069
14668TIP3    H165419   1.798   3.310   2.042  1.0758 -0.3827  0.5940
14668TIP3    H265420   1.821   3.459   2.045 -1.2261  0.0224 -0.1453
14669TIP3   OH265421   0.611   3.535   2.047 -0.3663  0.2001  0.1578
14669TIP3    H165422   0.609   3.464   2.111  1.5958  0.0681  0.1121
14669TIP3    H265423   0.665   3.603   2.088 -0.7311  0.9205 -0.5467
14670TIP3   OH265424   4.022   2.124  12.035  0.2119 -0.2498  0.0640
14670TIP3    H165425   4.095   2.067  12.011 -1.0986 -1.6323 -0.7975
14670TIP3    H265426   3.944   2.072  12.014 -1.0137  1.2994  0.6906
14671TIP3   OH265427   0.896   4.025  16.559  0.1042  0.0762  0.2075
14671TIP3    H165428   0.897   4.004  16.465  1.8851  1.6532 -0.1634
14671TIP3    H265429   0.828   4.091  16.568 -1.1471 -1.2068  0.3052
14672TIP3   OH265430   0.874   6.097  16.216  0.2562  0.0146 -0.3497
14672TIP3    H165431   0.952   6.152  16.208  0.1565  0.3181  0.7071
14672TIP3    H265432   0.851   6.101  16.309 -1.3852  0.4326 -0.7579
14673TIP3   OH265433   6.588   3.836   6.455 -0.0247 -0.2129  0.4512
14673TIP3    H165434   6.493   3.835   6.467 -0.3290 -1.2811 -1.7963
14673TIP3    H265435   6.623   3.794   6.534 -1.5620 -1.6409  0.3969
14674TIP3   OH265436   0.555   4.174  13.178  0.0350  0.0091 -0.4703
14674TIP3    H165437   0.548   4.105  13.112  1.2146  0.9269 -1.5741
14674TIP3    H265438   0.465   4.188  13.207 -0.6892  0.4456 -2.8050
14675TIP3   OH265439   3.331   6.282  11.824 -0.0888 -0.4407  0.3089
14675TIP3    H165440   3.281   6.315  11.899 -0.0367 -2.4124  1.2370
14675TIP3    H265441   3.422   6.303  11.846 -0.1013 -0.7362  0.6429
14676TIP3   OH265442   1.755   6.567   6.661  0.3631 -0.1185  0.6499
14676TIP3    H165443   1.779   6.475   6.672 -1.1492 -0.9239 -2.3148
14676TIP3    H265444   1.814   6.599   6.594 -0.5220  0.4841  0.1492
14677TIP3   OH265445   6.331   2.407   4.229  0.0532 -0.7083  0.5827
14677TIP3    H165446   6.303   2.419   4.138  1.7564  0.0780  0.1329
14677TIP3    H265447   6.425   2.425   4.227  0.3867 -2.1331  2.2303
14678TIP3   OH265448   3.198   5.139   5.267 -0.1205  0.2245 -0.0533
14678TIP3    H165449   3.248   5.087   5.205 -0.7199 -0.8618  0.3742
14678TIP3    H265450   3.208   5.094   5.351 -0.3915  0.9600  0.3879
14679TIP3   OH265451   4.352   2.348   4.984  0.3590 -0.1303  0.0839
14679TIP3    H165452   4.293   2.300   4.927  0.7746  1.2347 -1.5396
14679TIP3    H265453   4.370   2.289   5.057 -2.1097 -0.9774  0.0256
14680TIP3   OH265454   6.390   0.049   6.638  0.3870 -0.4484  0.0728
14680TIP3    H165455   6.372   0.109   6.565 -1.7022  1.1780  1.8711
14680TIP3    H265456   6.467  -0.001   6.609  1.1901  1.9634 -2.1498
14681TIP3   OH265457   0.533   2.221   5.367 -0.1967 -0.1492 -0.7473
14681TIP3    H165458   0.505   2.143   5.319  0.6332  0.0086 -1.5036
14681TIP3    H265459   0.562   2.282   5.299  1.0136  0.0715 -0.0568
14682TIP3   OH265460   5.886   4.626  15.491 -0.2093 -0.0788 -0.4447
14682TIP3    H165461   5.900   4.694  15.557  0.4143  0.0314 -0.6883
14682TIP3    H265462   5.796   4.597  15.505 -0.2962  0.4122  0.0206
14683TIP3   OH265463   6.608   4.968   2.271  0.5866  0.1827 -0.2843
14683TIP3    H165464   6.636   4.952   2.361 -0.5143 -1.8065 -0.2774
14683TIP3    H265465   6.518   4.998   2.279  1.0513  1.7373 -0.6366
14684TIP3   OH265466   1.250   0.896   2.877  0.2057 -0.3169  0.1514
14684TIP3    H165467   1.207   0.889   2.792 -0.4059 -1.1464  0.5219
14684TIP3    H265468   1.225   0.816   2.923  0.9498 -0.1122  0.9206
14685TIP3   OH265469   4.041   3.707  12.202  0.0767 -0.2750 -0.3351
14685TIP3    H165470   4.076   3.796  12.217  0.8816 -0.5721 -0.3905
14685TIP3    H265471   3.962   3.721  12.151 -1.1222  0.5757  1.6676
14686TIP3   OH265472   3.400   4.788   4.480  0.0227  0.2448 -0.0140
14686TIP3    H165473   3.488   4.751   4.476  0.2997  0.8713  0.2665
14686TIP3    H265474   3.411   4.870   4.528 -0.6970  0.3716 -0.0687
14687TIP3   OH265475   1.879   5.259  12.732  0.2298  0.5229  0.1382
14687TIP3    H165476   1.808   5.317  12.702  0.1314 -0.5552 -1.8355
14687TIP3    H265477   1.959   5.303  12.704  0.2088  0.3047 -0.2653
14688TIP3   OH265478   5.731   2.095   1.773 -0.2906 -0.0417 -0.2531
14688TIP3    H165479   5.824   2.105   1.751 -0.2182 -0.3776 -0.0942
14688TIP3    H265480   5.732   2.064   1.864 -0.5584 -0.0804 -0.2656
14689TIP3   OH265481   6.435   3.553   4.012  0.3606  0.0424  1.4658
14689TIP3    H165482   6.358   3.569   3.956  1.3158 -1.2060 -0.2706
14689TIP3    H265483   6.434   3.624   4.075 -1.4762  0.8061  0.6240
14690TIP3   OH265484   3.398   3.113  17.185 -0.0837  0.1503  0.1584
14690TIP3    H165485   3.478   3.159  17.160 -0.2837 -0.0720 -0.9171
14690TIP3    H265486   3.415   3.021  17.164  0.2570 -0.2680  2.1606
14691TIP3   OH265487   2.415   1.779  13.646  0.2477  0.2258 -0.5547
14691TIP3    H165488   2.424   1.861  13.597  1.0177 -0.4369 -1.5368
14691TIP3    H265489   2.494   1.774  13.700  0.2825  0.0483 -0.6219
14692TIP3   OH265490   1.183   4.838   3.387 -0.1972  0.3975 -0.3835
14692TIP3    H165491   1.112   4.782   3.356 -0.4247  0.2795  0.3521
14692TIP3    H265492   1.261   4.783   3.381 -0.3155  0.2195 -0.2962
14693TIP3   OH265493   2.095   0.225  14.494  0.0487 -0.4481 -0.3966
14693TIP3    H165494   2.036   0.194  14.563  2.7769 -0.8449  1.8267
14693TIP3    H265495   2.093   0.321  14.503  2.0802 -0.5741  1.7351
14694TIP3   OH265496   4.139   3.899   2.971 -0.5372  0.0815 -0.2903
14694TIP3    H165497   4.220   3.926   3.015 -1.0209 -0.6470  1.0612
14694TIP3    H265498   4.166   3.883   2.881  1.2263 -2.0181  0.5611
14695TIP3   OH265499   0.790   3.087  15.299  0.1347 -0.1257  0.0848
14695TIP3    H165500   0.802   3.182  15.297  1.1579 -0.2766 -1.4352
14695TIP3    H265501   0.696   3.074  15.286  0.0096  0.6656  0.1920
14696TIP3   OH265502   5.594   3.868   3.167 -0.5067  0.5577  0.2720
14696TIP3    H165503   5.534   3.932   3.204 -0.8064  0.5476 -0.1934
14696TIP3    H265504   5.557   3.783   3.192  0.4607  0.5706  1.7945
14697TIP3   OH265505   5.162   0.493  14.048  0.0862 -0.4013  0.4067
14697TIP3    H165506   5.234   0.467  13.992  0.4335  2.1380 -0.4022
14697TIP3    H265507   5.119   0.411  14.073  1.4355 -1.7185 -1.5200
14698TIP3   OH265508   1.669   5.105  12.535  0.2023 -0.2241 -0.4132
14698TIP3    H165509   1.684   5.199  12.525  1.4953 -0.2010  1.4108
14698TIP3    H265510   1.628   5.096  12.621 -1.0420 -1.2386 -1.0871
14699TIP3   OH265511   3.708   3.128  12.950 -0.1212  0.2279  0.2440
14699TIP3    H165512   3.660   3.046  12.957  2.1807 -1.4528 -2.6697
14699TIP3    H265513   3.646   3.188  12.907 -1.2625 -0.4171  0.9575
14700TIP3   OH265514   1.200   6.392   3.574 -0.3322  0.0706 -0.3905
14700TIP3    H165515   1.161   6.323   3.521 -2.1101 -0.9344  2.1106
14700TIP3    H265516   1.244   6.346   3.645  0.2478  1.4465  0.1657
14701TIP3   OH265517   5.233   1.073  12.563  0.6970 -0.0066  0.3549
14701TIP3    H165518   5.314   1.114  12.532  0.3832  1.5960  1.6172
14701TIP3    H265519   5.176   1.070  12.486  1.7358 -0.6499 -0.4097
14702TIP3   OH265520   6.305   2.006  14.668  0.1385  0.0063  0.4096
14702TIP3    H165521   6.301   1.992  14.762  0.2334 -0.9656  0.2787
14702TIP3    H265522   6.392   1.975  14.643 -0.8269 -2.2081 -0.3641
14703TIP3   OH265523   1.507   0.176   2.619 -0.1181  0.1054 -0.1352
14703TIP3    H165524   1.544   0.094   2.589  0.1473  0.2616 -0.2355
14703TIP3    H265525   1.573   0.242   2.597  1.3381 -0.1133  3.3216
14704TIP3   OH265526   3.693   4.164   4.435  1.0894  0.0988 -0.5499
14704TIP3    H165527   3.748   4.218   4.491  1.3225 -1.4457  0.7548
14704TIP3    H265528   3.605   4.174   4.471  1.4763 -2.0883  1.0746
14705TIP3   OH265529   6.450   2.415   0.849  0.1550  0.0965  0.3659
14705TIP3    H165530   6.368   2.432   0.802 -0.5339 -0.4147  1.3731
14705TIP3    H265531   6.451   2.320   0.861  0.3676  0.2209  1.3220
14706TIP3   OH265532   6.259   5.944  13.394  0.2708  0.4150 -0.3144
14706TIP3    H165533   6.297   5.904  13.472  2.8328 -0.8834 -2.1609
14706TIP3    H265534   6.239   5.871  13.336 -1.2825  1.3864 -1.0457
14707TIP3   OH265535   6.093   0.534   2.914  0.2714 -0.0046 -0.7092
14707TIP3    H165536   6.133   0.584   2.985 -2.4678  1.7812 -0.3481
14707TIP3    H265537   6.114   0.442   2.934  0.7484  0.5770  1.6087
14708TIP3   OH265538   4.089   0.242   0.462 -0.6080  0.0036 -0.2580
14708TIP3    H165539   4.150   0.316   0.457 -1.2826  0.6674  1.0232
14708TIP3    H265540   4.002   0.281   0.454 -0.9804 -0.5934  0.7362
14709TIP3   OH265541   0.364   1.970  11.639  0.5123  0.0458 -0.2976
14709TIP3    H165542   0.272   1.943  11.632  1.3046 -2.5454 -0.9869
14709TIP3    H265543   0.397   1.965  11.550  1.9346 -1.2497  0.2968
14710TIP3   OH265544   0.881   0.801   4.095 -0.0860  0.0088 -1.0622
14710TIP3    H165545   0.821   0.814   4.168  0.6840 -1.5978 -0.1133
14710TIP3    H265546   0.968   0.799   4.135  0.3946 -0.1530 -2.0999
14711TIP3   OH265547   1.213   3.923  11.883 -0.7650  0.2357  0.1031
14711TIP3    H165548   1.248   3.843  11.922 -1.1470 -0.6110 -1.2378
14711TIP3    H265549   1.290   3.970  11.852 -0.6484 -0.5107 -0.7603
14712TIP3   OH265550   5.935   4.175  13.264 -0.2836 -0.4859 -0.0271
14712TIP3    H165551   5.878   4.192  13.190 -1.1606  1.4307  1.0433
14712TIP3    H265552   5.883   4.122  13.324  0.5638 -2.3856 -0.9142
14713TIP3   OH265553   4.971   4.492  15.942  0.9611 -0.1487 -0.2453
14713TIP3    H165554   5.030   4.417  15.944 -0.1803 -1.0536  0.4280
14713TIP3    H265555   4.921   4.481  15.861 -0.7363 -1.3669  0.9091
14714TIP3   OH265556   4.166   6.046  14.859  0.2596  0.0931 -0.7300
14714TIP3    H165557   4.116   6.121  14.827  0.8158  0.2420 -1.2588
14714TIP3    H265558   4.109   5.970  14.843  0.3986  0.2067 -1.7485
14715TIP3   OH265559   0.457   4.776  16.247  0.2567  0.2942  0.1907
14715TIP3    H165560   0.544   4.779  16.208 -0.0504 -1.6786 -0.6781
14715TIP3    H265561   0.469   4.728  16.329 -0.4492 -2.4661 -1.2444
14716TIP3   OH265562   4.243   5.965  15.321  0.1845 -0.1522 -0.2249
14716TIP3    H165563   4.213   5.875  15.337  0.3573  0.2087  2.3699
14716TIP3    H265564   4.293   5.959  15.240  0.3458 -2.4532 -0.0039
14717TIP3   OH265565   4.761   4.567   4.998 -0.1925 -0.1605  0.1009
14717TIP3    H165566   4.696   4.500   5.020 -0.8804  0.5301  0.1952
14717TIP3    H265567   4.845   4.530   5.027 -0.5714 -0.9551  0.1915
14718TIP3   OH265568   1.022   5.121  16.298  0.5498  0.1363  0.5090
14718TIP3    H165569   1.000   5.154  16.211  0.2926  1.7408  1.1663
14718TIP3    H265570   1.013   5.197  16.356  2.9819 -0.3263  1.5844
14719TIP3   OH265571   2.807   2.314  13.188  0.0643 -0.1496  0.0751
14719TIP3    H165572   2.820   2.408  13.205 -0.7014  0.0303 -0.3332
14719TIP3    H265573   2.895   2.276  13.198  0.6308  0.8184 -1.0412
14720TIP3   OH265574   0.625   3.985  12.490  0.4864 -0.5604  0.5351
14720TIP3    H165575   0.577   4.052  12.538 -0.5592 -0.9501  0.0513
14720TIP3    H265576   0.712   4.021  12.478 -0.3075  1.0696 -0.4594
14721TIP3   OH265577   2.343   2.290  14.239 -0.2532  0.5106 -0.1538
14721TIP3    H165578   2.398   2.264  14.165  1.2395  1.7672  0.4716
14721TIP3    H265579   2.269   2.336  14.200 -0.6335 -0.7854 -0.9861
14722TIP3   OH265580   4.074   2.906  13.138 -0.6848 -0.9838  0.3388
14722TIP3    H165581   4.038   2.873  13.056 -2.3889 -0.2495  0.7751
14722TIP3    H265582   4.153   2.954  13.112 -1.5399 -0.2305 -0.9577
14723TIP3   OH265583   1.125   2.887   2.798  0.2900 -0.3856  0.0056
14723TIP3    H165584   1.111   2.974   2.835 -0.1780  0.2771 -1.6948
14723TIP3    H265585   1.042   2.842   2.809  0.3265 -0.3913  0.2660
14724TIP3   OH265586   2.579   2.066  11.641  0.1772  0.0627  0.4427
14724TIP3    H165587   2.646   2.005  11.610  1.5334  1.1517  1.1736
14724TIP3    H265588   2.544   2.024  11.720  1.7030  0.5654  1.4308
14725TIP3   OH265589   4.548   2.013  16.378 -0.1977  0.3334  0.5602
14725TIP3    H165590   4.551   2.020  16.473 -0.9941 -3.1232  0.9274
14725TIP3    H265591   4.455   2.009  16.357 -0.0347  1.3678 -0.4017
14726TIP3   OH265592   2.964   3.397  12.396 -0.3589  0.2863  0.6228
14726TIP3    H165593   2.869   3.403  12.403 -0.3462  1.6661 -0.0956
14726TIP3    H265594   2.980   3.320  12.341 -1.0464 -0.1324  1.0069
14727TIP3   OH265595   4.175   2.417   4.538 -0.4798  0.2895  0.3243
14727TIP3    H165596   4.263   2.393   4.510 -1.4010 -3.1771  0.0794
14727TIP3    H265597   4.122   2.416   4.458 -1.4746 -1.5663  0.9559
14728TIP3   OH265598   3.899   1.999   4.614 -0.5541  0.2495  0.5706
14728TIP3    H165599   3.989   2.006   4.582 -1.5054  0.9378 -2.0405
14728TIP3    H265600   3.899   1.919   4.666  1.4464  0.0120  0.2678
14729TIP3   OH265601   1.814   1.693   5.915  0.2190  0.0938 -0.0994
14729TIP3    H165602   1.820   1.770   5.859  1.9348 -0.3357 -0.5293
14729TIP3    H265603   1.743   1.713   5.976 -0.9966  0.9710 -1.7684
14730TIP3   OH265604   1.256   1.653  15.770  0.1427  0.3199  0.5965
14730TIP3    H165605   1.219   1.585  15.826 -1.4104  0.2912 -0.4202
14730TIP3    H265606   1.299   1.605  15.699 -0.9081  0.3646 -0.0928
14731TIP3   OH265607   4.459   0.284   4.650  0.7625 -0.0114 -0.1500
14731TIP3    H165608   4.448   0.298   4.556  1.5971 -2.3002 -0.6054
14731TIP3    H265609   4.523   0.351   4.677  1.0259  0.2189 -1.3298
14732TIP3   OH265610   5.201   4.350   5.262 -0.3464  0.2111 -0.6946
14732TIP3    H165611   5.254   4.319   5.335  0.9265  1.2225 -1.1619
14732TIP3    H265612   5.126   4.292   5.260  0.0890 -0.4243  0.8197
14733TIP3   OH265613   4.784   5.204   4.705 -0.0378  0.1717  0.4255
14733TIP3    H165614   4.804   5.144   4.633 -1.8922  0.2265 -0.1659
14733TIP3    H265615   4.834   5.283   4.685  0.5672 -0.3281 -0.0556
14734TIP3   OH265616   2.308   3.326   4.334 -0.1358  0.3195  0.6605
14734TIP3    H165617   2.255   3.271   4.277  0.2726  0.2634  0.3293
14734TIP3    H265618   2.287   3.416   4.308 -1.3828  0.3482  1.7277
14735TIP3   OH265619   4.863   1.243   4.083  0.4902 -0.2208  0.1046
14735TIP3    H165620   4.778   1.209   4.053  0.5500  0.1786 -0.5327
14735TIP3    H265621   4.842   1.328   4.121  0.7642  0.4467 -1.1956
14736TIP3   OH265622   5.852   4.246  10.870  0.2993 -0.3097  0.7116
14736TIP3    H165623   5.768   4.200  10.867  0.0423  0.0615  1.7576
14736TIP3    H265624   5.835   4.323  10.925  0.1293  2.3157 -2.8318
14737TIP3   OH265625   4.337   3.953   3.421  0.1305  0.5461  0.1988
14737TIP3    H165626   4.362   3.960   3.329  1.2543  0.4995  0.4893
14737TIP3    H265627   4.345   4.043   3.455 -4.6028  1.4490 -0.7874
14738TIP3   OH265628   0.303   4.696   0.504 -0.1629 -0.1642  0.6990
14738TIP3    H165629   0.231   4.717   0.444  0.1199 -0.3490  0.2937
14738TIP3    H265630   0.299   4.601   0.515 -0.2943 -0.1181  1.0787
14739TIP3   OH265631   0.759   3.068   2.096 -0.1665 -0.6038 -0.3619
14739TIP3    H165632   0.824   3.006   2.129 -0.2291  0.0015  0.9335
14739TIP3    H265633   0.675   3.033   2.126 -0.2770 -0.3645 -0.3897
14740TIP3   OH265634   0.217   3.176   0.817 -0.0240 -0.0423 -0.2951
14740TIP3    H165635   0.252   3.229   0.746  1.8069 -1.2085 -0.3096
14740TIP3    H265636   0.284   3.181   0.885 -0.4804 -1.1649  0.2496
14741TIP3   OH265637   1.910   5.488   3.090 -0.3335 -0.1443  0.4388
14741TIP3    H165638   1.961   5.446   3.159 -0.0310  0.5154  0.6233
14741TIP3    H265639   1.880   5.416   3.035 -0.4358 -0.6605  1.1627
14742TIP3   OH265640   1.203   3.386   0.585  0.5267  0.0591  0.1758
14742TIP3    H165641   1.174   3.315   0.642  0.1508  1.4320  1.7193
14742TIP3    H265642   1.282   3.420   0.627 -0.1741  1.5693  0.3063
14743TIP3   OH265643   6.251   2.083  16.049  0.1041 -0.7850  0.3711
14743TIP3    H165644   6.281   2.174  16.052 -1.0988 -0.3962  0.6919
14743TIP3    H265645   6.259   2.052  16.139  0.6711 -1.0561  0.2299
14744TIP3   OH265646   0.554   0.077   3.840 -0.5911  0.4588  0.3945
14744TIP3    H165647   0.497   0.148   3.867  1.0652  0.8163  3.2486
14744TIP3    H265648   0.629   0.120   3.799 -0.6923  0.2363 -0.0185
14745TIP3   OH265649   5.622   2.011  17.163 -0.4599 -0.1107  0.1535
14745TIP3    H165650   5.664   2.097  17.160  1.8805 -1.1202  2.1336
14745TIP3    H265651   5.623   1.981  17.072 -1.2139  1.8726 -0.5479
14746TIP3   OH265652   1.415   0.754  13.357 -0.2794  0.0143  0.6549
14746TIP3    H165653   1.332   0.717  13.388 -0.1945  0.7887  1.8782
14746TIP3    H265654   1.409   0.847  13.380  0.9431  0.0678  0.8045
14747TIP3   OH265655   5.170   4.819  14.821 -0.2629  0.1427  0.9168
14747TIP3    H165656   5.243   4.880  14.806  0.7303 -1.4834 -1.2960
14747TIP3    H265657   5.198   4.766  14.895 -0.0097  0.7314  1.2465
14748TIP3   OH265658   6.163   0.544   4.548 -0.2713  0.2516 -0.6486
14748TIP3    H165659   6.244   0.495   4.536 -0.1782  0.1012  0.5353
14748TIP3    H265660   6.098   0.478   4.573 -0.0872  0.7304  1.1902
14749TIP3   OH265661   2.382   6.001  13.213 -0.5696 -0.2249 -0.0181
14749TIP3    H165662   2.295   6.009  13.174 -0.3011 -3.3781 -1.4270
14749TIP3    H265663   2.437   5.965  13.142  1.4514 -0.0331  1.3982
14750TIP3   OH265664   5.802   0.026  13.611 -0.0819  0.0128  0.2734
14750TIP3    H165665   5.772  -0.046  13.666 -0.4633  0.4053  0.5712
14750TIP3    H265666   5.733   0.091  13.616 -0.5068 -0.2742 -1.3019
14751TIP3   OH265667   2.697   2.844  15.801 -0.6987  0.2207  0.4553
14751TIP3    H165668   2.781   2.798  15.805  0.3230  1.8641 -1.1865
14751TIP3    H265669   2.649   2.800  15.730 -0.2923  0.7435 -0.1517
14752TIP3   OH265670   1.876   3.999   5.761 -0.2938 -0.2623  0.2487
14752TIP3    H165671   1.801   4.040   5.804 -0.9631  0.2872 -1.3862
14752TIP3    H265672   1.838   3.942   5.695  0.7040 -1.4070  0.6466
14753TIP3   OH265673   3.335   6.390  15.709 -0.6437  0.0939  0.2467
14753TIP3    H165674   3.292   6.469  15.677 -1.7332  0.1993  1.9508
14753TIP3    H265675   3.272   6.350  15.769  0.4530 -1.3255  0.4904
14754TIP3   OH265676   4.311   1.367   1.712  0.1690  1.2689  0.2783
14754TIP3    H165677   4.395   1.407   1.688  0.4442  0.6644  0.2197
14754TIP3    H265678   4.333   1.276   1.734 -0.3833  1.2715  0.8504
14755TIP3   OH265679   0.369   5.268  14.602 -0.1290 -0.1096  0.3813
14755TIP3    H165680   0.319   5.268  14.520  0.0295 -0.8964  0.2790
14755TIP3    H265681   0.377   5.176  14.625  0.4277  0.0703  0.9206
14756TIP3   OH265682   3.300   3.984  12.125 -0.7738  0.0900  0.1049
14756TIP3    H165683   3.345   3.916  12.176 -0.2467  0.1853 -0.2339
14756TIP3    H265684   3.215   3.945  12.104 -0.4559 -0.4861 -0.1312
14757TIP3   OH265685   5.767   2.673   1.225 -0.4300  0.6898 -0.3328
14757TIP3    H165686   5.812   2.620   1.291 -0.7103 -0.1350 -0.8013
14757TIP3    H265687   5.837   2.723   1.184 -0.2174  1.0109  0.4074
14758TIP3   OH265688   1.122   5.518  13.853  0.3949  0.2904 -0.2009
14758TIP3    H165689   1.029   5.541  13.855  0.2759 -0.1014 -1.3387
14758TIP3    H265690   1.130   5.447  13.917  0.2189  1.4076  1.0951
14759TIP3   OH265691   3.029   3.457   2.743 -0.2264  0.6323 -0.3305
14759TIP3    H165692   3.015   3.435   2.835 -0.2392  1.3790 -0.1545
14759TIP3    H265693   2.942   3.449   2.703  0.2338 -2.4471 -0.8852
14760TIP3   OH265694   6.236   3.658  12.988  0.5575  0.5467 -0.2357
14760TIP3    H165695   6.289   3.629  13.062  0.5041  0.3601 -0.2698
14760TIP3    H265696   6.170   3.716  13.026 -0.7711 -1.1817  0.1567
14761TIP3   OH265697   0.828   0.913  12.230 -0.3499  0.0220 -0.6769
14761TIP3    H165698   0.783   0.883  12.151 -0.1390  0.4211 -0.9469
14761TIP3    H265699   0.855   0.833  12.274 -1.8571 -0.2454 -0.2033
14762TIP3   OH265700   1.681   4.060  12.195 -0.4004 -0.2003 -0.4598
14762TIP3    H165701   1.687   4.066  12.290 -1.9955 -0.2567 -0.3427
14762TIP3    H265702   1.588   4.047  12.177 -0.4763  2.2952 -2.1753
14763TIP3   OH265703   4.051   5.675  16.897 -0.0789  0.2867  0.5325
14763TIP3    H165704   3.983   5.613  16.867 -0.6352  0.2817  1.7580
14763TIP3    H265705   4.002   5.741  16.946  0.7399  0.5973  0.9340
14764TIP3   OH265706   3.810   5.259   2.900  0.6853  0.4632  0.4508
14764TIP3    H165707   3.746   5.327   2.921  0.5539  0.2921  0.6036
14764TIP3    H265708   3.771   5.178   2.934  0.3365  0.1332 -0.7197
14765TIP3   OH265709   1.294   6.079  15.509 -0.0093  0.2887 -0.2039
14765TIP3    H165710   1.339   6.134  15.574  0.5744  1.2733 -1.3954
14765TIP3    H265711   1.358   6.012  15.487  0.1180  0.4619 -0.3730
14766TIP3   OH265712   4.914   6.320  12.303 -0.3833  0.0729  0.1652
14766TIP3    H165713   4.971   6.396  12.314  1.2203 -0.9936 -0.5405
14766TIP3    H265714   4.900   6.314  12.208  1.5924 -1.9775 -0.0326
14767TIP3   OH265715   5.986   4.867  11.953  0.0523  0.0913  0.7903
14767TIP3    H165716   5.907   4.916  11.975  1.1774  1.9392  0.8064
14767TIP3    H265717   6.034   4.861  12.036  0.9895  0.9440  0.3087
14768TIP3   OH265718   5.753   5.493  11.880 -0.4882  0.0971 -0.7297
14768TIP3    H165719   5.818   5.459  11.817 -1.0773  0.0844 -1.3416
14768TIP3    H265720   5.770   5.587  11.882 -0.8449  0.1788 -1.3549
14769TIP3   OH265721   1.095   4.707   5.362 -0.2031  0.4372 -0.1366
14769TIP3    H165722   1.036   4.783   5.366 -0.7653  0.0313 -0.5947
14769TIP3    H265723   1.135   4.703   5.448  0.3218  1.6490 -0.3236
14770TIP3   OH265724   0.908   3.948  16.299  0.5787  0.2183 -0.3645
14770TIP3    H165725   0.884   3.980  16.212 -1.7474 -2.0931 -0.6251
14770TIP3    H265726   0.950   3.863  16.283 -0.1595 -0.3794  0.7689
14771TIP3   OH265727   1.444   2.970  10.979 -0.2786  0.6358 -0.5664
14771TIP3    H165728   1.385   3.003  11.046 -0.7770 -0.5715 -0.3985
14771TIP3    H265729   1.434   3.031  10.906 -1.1120  0.9174 -0.2252
14772TIP3   OH265730   5.312   5.341  13.113  0.0946  0.3185  0.0942
14772TIP3    H165731   5.304   5.380  13.200  0.2961  1.9269 -0.5918
14772TIP3    H265732   5.223   5.345  13.077 -0.1910 -1.2527  0.5943
14773TIP3   OH265733   0.316   0.522   3.475 -0.0292  0.3899 -0.6954
14773TIP3    H165734   0.308   0.609   3.514 -0.0562  0.9774 -1.9841
14773TIP3    H265735   0.228   0.486   3.476  0.0723  0.1533  0.3292
14774TIP3   OH265736   0.073   3.907   2.555 -0.2135 -0.4554 -0.6014
14774TIP3    H165737   0.006   3.974   2.542 -1.1602 -1.5540 -1.4529
14774TIP3    H265738   0.025   3.825   2.560  0.8613 -1.0044  1.2711
14775TIP3   OH265739   4.881   5.098  13.967 -0.7262  0.0943 -0.0591
14775TIP3    H165740   4.794   5.079  13.933 -0.9412 -0.6247  0.8745
14775TIP3    H265741   4.877   5.072  14.059  0.2685  0.6966  0.1597
14776TIP3   OH265742   0.396   1.940  11.369  0.1791 -0.9059 -0.1252
14776TIP3    H165743   0.331   1.876  11.342  1.4837 -1.4290 -2.2148
14776TIP3    H265744   0.429   1.976  11.286  0.1420  1.7839  0.9835
14777TIP3   OH265745   0.396   1.927   5.496  0.3555  0.2841 -0.5151
14777TIP3    H165746   0.462   1.994   5.481  0.4779  0.2562 -0.0999
14777TIP3    H265747   0.313   1.968   5.470  0.0809  1.4614  2.1276
14778TIP3   OH265748   0.594   0.867  16.417 -0.1503 -0.3306 -0.7506
14778TIP3    H165749   0.617   0.781  16.453 -1.0484 -0.4050 -0.3307
14778TIP3    H265750   0.563   0.916  16.493  2.9201  1.2851 -0.4972
14779TIP3   OH265751   1.071   5.678   4.294 -0.0045 -0.0744  0.1139
14779TIP3    H165752   1.119   5.696   4.213  0.0974 -1.2036 -0.0784
14779TIP3    H265753   1.116   5.731   4.361  0.0632  0.6634 -0.5168
14780TIP3   OH265754   5.119   1.809   0.388 -0.4056  0.2120 -0.1161
14780TIP3    H165755   5.055   1.854   0.333 -0.8447 -0.8042 -0.4617
14780TIP3    H265756   5.094   1.832   0.477  0.8478  2.5718 -0.3517
14781TIP3   OH265757   6.289   5.431  15.734 -0.1028  0.6955 -0.7152
14781TIP3    H165758   6.382   5.410  15.743 -0.2721 -0.0851 -0.8291
14781TIP3    H265759   6.264   5.469  15.818 -0.8145 -3.2953  0.9531
14782TIP3   OH265760   5.153   6.400  12.975 -0.3215  0.5260 -0.0234
14782TIP3    H165761   5.242   6.436  12.967 -0.0800 -0.1483 -0.4276
14782TIP3    H265762   5.166   6.312  13.010 -0.7737  0.1248 -0.8495
14783TIP3   OH265763   2.066   4.993   5.324 -0.5201  0.4168  0.5636
14783TIP3    H165764   2.120   4.979   5.401  2.5047 -0.5582 -1.6531
14783TIP3    H265765   2.027   4.908   5.305 -0.8981  0.5510  0.7224
14784TIP3   OH265766   0.196   0.282   2.199 -0.4988  0.0822 -0.0159
14784TIP3    H165767   0.193   0.369   2.238 -1.0919  0.2775 -0.4852
14784TIP3    H265768   0.214   0.297   2.107 -0.6788 -0.2879 -0.1143
14785TIP3   OH265769   0.074   3.947   1.343  0.0006  0.2190 -0.3080
14785TIP3    H165770   0.165   3.974   1.356  0.2227  0.5548 -2.3905
14785TIP3    H265771   0.030   3.971   1.424  1.4842  1.3413  0.1834
14786TIP3   OH265772   5.689   5.798  15.829 -0.1311  0.1104 -0.3449
14786TIP3    H165773   5.612   5.855  15.821  0.9573  1.6236 -0.2210
14786TIP3    H265774   5.703   5.790  15.924 -0.1479 -0.1779 -0.3651
14787TIP3   OH265775   4.699   2.938   0.474 -0.5951 -0.2777 -0.2031
14787TIP3    H165776   4.661   2.905   0.392 -1.1655 -0.1486  0.0077
14787TIP3    H265777   4.763   2.871   0.498  1.3554  0.8545 -2.0201
14788TIP3   OH265778   6.105   0.137  11.016 -0.2339  0.2947  0.3885
14788TIP3    H165779   6.048   0.140  10.939 -0.3117  0.6231  0.4604
14788TIP3    H265780   6.118   0.044  11.031 -1.4798  0.1965  0.9146
14789TIP3   OH265781   6.289   3.232  13.100 -0.5312  0.3458  0.6958
14789TIP3    H165782   6.323   3.145  13.078  0.2199 -0.1598  3.6188
14789TIP3    H265783   6.350   3.293  13.059 -0.2166 -0.5200 -0.1389
14790TIP3   OH265784   1.056   0.289   5.977  0.5373 -0.9511  0.0250
14790TIP3    H165785   1.068   0.280   5.882  2.0336 -0.3387  0.1393
14790TIP3    H265786   0.966   0.320   5.987  0.6785 -0.1124 -1.2537
14791TIP3   OH265787   4.775   5.518   0.802 -0.2131  0.0078  0.0092
14791TIP3    H165788   4.836   5.540   0.871  0.5797 -0.0686 -0.6577
14791TIP3    H265789   4.698   5.484   0.848  1.0240 -1.8364  0.7965
14792TIP3   OH265790   2.604   1.145   1.182  0.1472  0.5006 -0.1040
14792TIP3    H165791   2.690   1.116   1.213  0.3003  2.1152  1.0173
14792TIP3    H265792   2.616   1.159   1.088  0.6625 -0.8490 -0.2587
14793TIP3   OH265793   6.562   2.027   4.721 -0.0338 -0.6044 -0.0740
14793TIP3    H165794   6.601   2.112   4.703  1.2971 -0.7213  2.1253
14793TIP3    H265795   6.601   1.968   4.656  1.8651 -0.2792  0.7525
14794TIP3   OH265796   3.869   2.689  13.848 -0.5017  0.0784 -0.2051
14794TIP3    H165797   3.942   2.743  13.819 -0.0740  0.2284  1.1077
14794TIP3    H265798   3.901   2.647  13.928 -1.6428 -0.3315  0.0442
14795TIP3   OH265799   3.233   5.512   1.068  0.3563 -0.2516 -0.0747
14795TIP3    H165800   3.193   5.435   1.106  0.7698 -0.1204  0.6290
14795TIP3    H265801   3.308   5.479   1.018 -1.6900 -0.7170 -3.0094
14796TIP3   OH265802   6.152   5.182   4.500  0.2291  0.3079 -0.0716
14796TIP3    H165803   6.148   5.277   4.484  1.1697  0.5149  0.8956
14796TIP3    H265804   6.064   5.151   4.480  0.0617  1.3054 -0.9236
14797TIP3   OH265805   2.389   6.031  16.911 -0.2454 -0.6710  0.1657
14797TIP3    H165806   2.397   6.020  16.816  2.5331 -1.4920  0.4497
14797TIP3    H265807   2.445   6.106  16.931  0.4880 -1.5366  1.3623
14798TIP3   OH265808   2.840   4.681  14.580  0.0807  0.0019 -0.3035
14798TIP3    H165809   2.768   4.659  14.639 -0.6448  1.8568 -0.4725
14798TIP3    H265810   2.868   4.597  14.544 -0.8619 -0.9171  1.0651
14799TIP3   OH265811   5.931   2.517  11.680 -0.3852 -0.0781 -0.0845
14799TIP3    H165812   5.869   2.584  11.709  0.2143  0.9905 -1.2755
14799TIP3    H265813   5.901   2.493  11.593  0.2334 -0.3687 -0.2186
14800TIP3   OH265814   2.214   0.883  15.905 -0.3224 -0.4425 -0.3131
14800TIP3    H165815   2.251   0.971  15.892 -0.8917 -0.3054 -1.0247
14800TIP3    H265816   2.144   0.877  15.840 -1.0409 -0.9933  0.5093
14801TIP3   OH265817   1.471   6.497   6.107 -0.2490  0.1709 -0.4297
14801TIP3    H165818   1.431   6.505   6.193 -1.4785 -0.1472 -0.9578
14801TIP3    H265819   1.397   6.494   6.046  0.6032  0.4332 -1.4976
14802TIP3   OH265820   5.670   1.260   3.046  0.1904  0.3107 -0.1850
14802TIP3    H165821   5.654   1.173   3.084 -0.8150  0.6026  0.0940
14802TIP3    H265822   5.764   1.263   3.031  0.3758 -0.4346  0.7755
14803TIP3   OH265823   0.511   3.410   2.688  0.2578 -0.2961  0.0024
14803TIP3    H165824   0.481   3.447   2.605 -0.7066 -0.3873  0.3054
14803TIP3    H265825   0.536   3.485   2.741 -2.8460  0.0606  1.0721
14804TIP3   OH265826   4.195   3.494  12.593  0.3241  0.4945  0.3559
14804TIP3    H165827   4.118   3.524  12.641 -1.2500 -3.3687  0.4177
14804TIP3    H265828   4.238   3.433  12.653  1.3845 -0.1961 -1.0876
14805TIP3   OH265829   5.281   3.687   3.611 -0.5752 -0.7732  0.0514
14805TIP3    H165830   5.316   3.749   3.675  1.4072 -0.3388 -1.3887
14805TIP3    H265831   5.194   3.719   3.591  0.5078  1.7151 -0.8390
14806TIP3   OH265832   0.221   6.399   3.584 -0.2672 -0.4357  0.4298
14806TIP3    H165833   0.312   6.414   3.610 -0.2228 -0.7433  0.4609
14806TIP3    H265834   0.181   6.485   3.587  0.5821  0.0762 -1.7941
14807TIP3   OH265835   2.347   4.510   4.951 -0.1430  0.3055  0.2505
14807TIP3    H165836   2.415   4.519   5.018 -0.4149 -2.2351  0.9206
14807TIP3    H265837   2.394   4.513   4.868  0.8443 -1.8403  0.7206
14808TIP3   OH265838   2.045   1.779   5.321 -0.2933  0.1509  0.0160
14808TIP3    H165839   1.982   1.771   5.393 -0.4002 -0.3471 -0.1258
14808TIP3    H265840   2.130   1.760   5.361 -0.1755  1.2295  0.2938
14809TIP3   OH265841   0.946   2.672   3.910 -0.5059  0.2531 -0.4061
14809TIP3    H165842   0.894   2.608   3.960 -0.8959  0.1617 -0.9230
14809TIP3    H265843   1.036   2.639   3.915 -0.2566  1.1914  1.7197
14810TIP3   OH265844   5.432   1.810   2.671  0.5299 -0.0291  0.2342
14810TIP3    H165845   5.484   1.831   2.593  0.1609 -1.3744 -0.3936
14810TIP3    H265846   5.430   1.891   2.722  0.8272  0.8388 -1.1287
14811TIP3   OH265847   2.005   3.365   1.433 -0.1793 -0.0947 -0.5906
14811TIP3    H165848   1.995   3.421   1.509  1.6882  0.2635 -0.5804
14811TIP3    H265849   1.978   3.278   1.463 -0.4128  0.2429  0.1832
14812TIP3   OH265850   3.912   6.161  11.457  0.4082 -0.1619 -0.0327
14812TIP3    H165851   3.838   6.220  11.439  1.0835  0.1175 -2.0810
14812TIP3    H265852   3.873   6.074  11.459 -0.0277 -0.0012 -0.9488
14813TIP3   OH265853   2.716   0.723  12.615  0.4753 -0.1722 -0.2237
14813TIP3    H165854   2.694   0.699  12.525 -1.6020  2.7050 -0.5673
14813TIP3    H265855   2.795   0.778  12.606  0.3093  0.0570 -0.2810
14814TIP3   OH265856   1.330   6.419  12.123 -0.2035  0.2156  0.2403
14814TIP3    H165857   1.302   6.502  12.085 -0.0288 -0.6325 -1.8012
14814TIP3    H265858   1.376   6.445  12.203 -0.0371  2.0965 -0.4205
14815TIP3   OH265859   6.078   0.690  14.261  0.4232 -0.3770  0.2502
14815TIP3    H165860   6.095   0.618  14.321 -2.4289 -1.2901  0.0292
14815TIP3    H265861   6.098   0.654  14.174  1.4880 -0.0616  0.3580
14816TIP3   OH265862   2.198   3.557   4.738 -0.1580 -0.1396 -0.2463
14816TIP3    H165863   2.123   3.602   4.778  0.4385  0.7328 -0.1007
14816TIP3    H265864   2.166   3.526   4.654 -0.2893  1.3971 -0.7597
14817TIP3   OH265865   1.615   2.936  13.577  0.3652 -0.2947 -0.2763
14817TIP3    H165866   1.624   2.921  13.483 -0.7938  1.4686 -0.6928
14817TIP3    H265867   1.697   2.978  13.603 -0.0679  0.9675 -0.8966
14818TIP3   OH265868   3.872   5.203   5.072  0.4761  0.5980 -0.7022
14818TIP3    H165869   3.891   5.175   5.161 -2.4543 -0.1535 -0.2521
14818TIP3    H265870   3.895   5.127   5.018 -3.2784 -1.2426  0.0825
14819TIP3   OH265871   2.519   4.973  15.010  0.2154 -0.2612 -0.4961
14819TIP3    H165872   2.551   5.037  15.073  2.8441 -0.9891 -1.0056
14819TIP3    H265873   2.564   4.892  15.034 -1.1852 -1.2999 -1.3519
14820TIP3   OH265874   6.472   4.273   2.298 -0.9779 -0.1626 -0.3523
14820TIP3    H165875   6.480   4.311   2.210 -2.1247 -2.7914 -1.6344
14820TIP3    H265876   6.385   4.299   2.327 -1.4824 -1.1788 -0.9343
14821TIP3   OH265877   1.470   5.721   5.455  0.7096 -0.1266  0.1077
14821TIP3    H165878   1.488   5.779   5.529  0.8816 -0.7953  0.5889
14821TIP3    H265879   1.541   5.739   5.393  1.0443 -0.1824  0.4720
14822TIP3   OH265880   3.540   4.505  14.135  0.2131 -0.0349 -0.0572
14822TIP3    H165881   3.583   4.421  14.151 -0.6375  0.1545  3.5786
14822TIP3    H265882   3.576   4.534  14.051  3.2852 -2.3070  0.3570
14823TIP3   OH265883   3.423   3.900  16.761 -0.0360  0.2511  0.4533
14823TIP3    H165884   3.367   3.845  16.816  1.4308 -0.4866  1.2140
14823TIP3    H265885   3.503   3.849  16.750  0.9552  1.8220  0.3503
14824TIP3   OH265886   0.534   3.804   4.836 -0.0035  0.3524  0.4068
14824TIP3    H165887   0.601   3.844   4.780 -0.2120  1.3027  0.8222
14824TIP3    H265888   0.529   3.713   4.807 -1.0949  1.1536 -2.0607
14825TIP3   OH265889   5.624   4.765  13.319 -0.0420 -0.3130 -0.3748
14825TIP3    H165890   5.567   4.760  13.242  0.4241  0.2252 -0.7578
14825TIP3    H265891   5.685   4.693  13.308 -0.3385 -0.5916 -0.2121
14826TIP3   OH265892   6.236   6.327  11.493 -0.5658  0.2327 -0.0726
14826TIP3    H165893   6.226   6.395  11.426 -1.8315  0.8696  0.7446
14826TIP3    H265894   6.192   6.251  11.457 -1.7131  0.7329  0.2482
14827TIP3   OH265895   1.348   0.050   2.190  0.1785 -0.1397 -0.2529
14827TIP3    H165896   1.319  -0.037   2.160 -1.6069  0.3082  0.0919
14827TIP3    H265897   1.294   0.111   2.140  1.0534  0.7626 -0.1015
14828TIP3   OH265898   4.019   3.965   6.670  0.0162 -0.0331 -0.4922
14828TIP3    H165899   3.977   3.906   6.607 -2.0560 -0.9404  1.6760
14828TIP3    H265900   3.953   3.980   6.737  2.0886  1.1201  1.3611
14829TIP3   OH265901   1.558   1.340   5.738  0.5628  0.5217  0.3970
14829TIP3    H165902   1.492   1.408   5.727 -1.6512 -1.6408 -0.0407
14829TIP3    H265903   1.528   1.289   5.814  1.3986 -0.8386 -0.1601
14830TIP3   OH265904   0.083   6.414   2.096 -0.0711 -0.1096  0.2829
14830TIP3    H165905   0.026   6.451   2.028 -1.5377 -1.1645  0.9215
14830TIP3    H265906   0.149   6.364   2.048  0.4230  1.2339 -0.4712
14831TIP3   OH265907   4.037   3.030  12.184 -0.3628  0.4908 -0.3322
14831TIP3    H165908   4.119   2.990  12.157  0.4687  0.4881  2.0698
14831TIP3    H265909   4.057   3.072  12.267 -2.5621  1.3135 -0.1805
14832TIP3   OH265910   0.320   1.045   4.602  0.2288 -0.3569  0.0252
14832TIP3    H165911   0.354   1.134   4.609 -0.4662  0.1199 -2.2765
14832TIP3    H265912   0.394   0.989   4.623  0.6349  0.7504  1.6472
14833TIP3   OH265913   3.449   3.406   2.518 -0.1557  0.5230 -0.8140
14833TIP3    H165914   3.435   3.479   2.578 -1.6530 -0.1664 -0.2818
14833TIP3    H265915   3.486   3.446   2.440  3.4772  1.2064  1.1543
14834TIP3   OH265916   6.423   1.052  14.667 -0.3266  0.1259 -0.2212
14834TIP3    H165917   6.514   1.025  14.651 -0.4074 -0.8900  1.0039
14834TIP3    H265918   6.431   1.143  14.698  0.3524 -0.3201  0.9149
14835TIP3   OH265919   5.763   1.416   0.836  0.1785 -0.4097  0.0585
14835TIP3    H165920   5.764   1.409   0.931 -0.8320 -0.0553  0.1006
14835TIP3    H265921   5.700   1.350   0.807  0.5057 -0.5416 -0.3669
14836TIP3   OH265922   6.355   5.190   1.122  0.7723 -0.0645  0.3993
14836TIP3    H165923   6.318   5.110   1.159 -1.5869 -0.2062 -2.0679
14836TIP3    H265924   6.428   5.161   1.067 -0.7222 -0.6890 -1.3142
14837TIP3   OH265925   2.114   4.204   3.936 -0.0358 -0.4237  0.6135
14837TIP3    H165926   2.150   4.175   3.852 -0.6277  0.2143  0.1393
14837TIP3    H265927   2.078   4.291   3.918  0.1276 -0.1420  1.6054
14838TIP3   OH265928   5.759   2.836   3.446 -0.0841  0.3244  0.4913
14838TIP3    H165929   5.801   2.756   3.413 -1.2336  1.4236 -4.0042
14838TIP3    H265930   5.665   2.819   3.435 -0.3574  2.0120  0.1795
14839TIP3   OH265931   5.882   5.594  15.856 -0.1184  0.4015 -0.6422
14839TIP3    H165932   5.842   5.665  15.807  0.1947  1.2859  0.3581
14839TIP3    H265933   5.966   5.630  15.887  0.8267 -0.9646 -1.5629
14840TIP3   OH265934   3.070   6.460  16.250  0.3334 -0.6311  0.4192
14840TIP3    H165935   3.159   6.483  16.224  0.6473 -0.2669  1.7346
14840TIP3    H265936   3.066   6.365  16.239  0.8625 -0.6415  0.2777
14841TIP3   OH265937   4.954   5.236   2.179  0.2960  0.1154 -0.0383
14841TIP3    H165938   4.861   5.255   2.187 -0.2425 -1.5626 -1.8909
14841TIP3    H265939   4.992   5.269   2.260 -1.8483  1.1039  0.6122
14842TIP3   OH265940   3.890   2.451  15.051 -0.6960 -0.2776  0.5074
14842TIP3    H165941   3.970   2.426  15.097 -0.5449 -0.4125  0.1725
14842TIP3    H265942   3.841   2.503  15.115  0.1702  0.7623  0.3401
14843TIP3   OH265943   6.570   5.028  15.887 -0.3820  0.4884 -0.2675
14843TIP3    H165944   6.477   5.005  15.887 -0.0192 -1.0711  0.4019
14843TIP3    H265945   6.602   4.999  15.972  0.9814 -0.1277 -0.9706
14844TIP3   OH265946   4.176   4.197  10.955 -0.1567  0.2618 -0.5705
14844TIP3    H165947   4.222   4.278  10.936  0.8644 -0.4563 -1.2490
14844TIP3    H265948   4.115   4.186  10.881 -1.5250  1.2685  0.3820
14845TIP3   OH265949   0.956   2.863   4.354  0.1802 -0.9035  0.5277
14845TIP3    H165950   0.980   2.864   4.261 -2.4542  0.8876 -0.2052
14845TIP3    H265951   1.007   2.934   4.392  0.6773 -1.1220  0.2753
14846TIP3   OH265952   4.241   5.390   5.660  0.5236 -0.0684 -0.3032
14846TIP3    H165953   4.195   5.306   5.654  0.2997  0.1439 -1.6314
14846TIP3    H265954   4.188   5.450   5.607  1.0592  0.7483  0.0770
14847TIP3   OH265955   1.585   5.242  13.267 -0.0190  0.2581  0.0313
14847TIP3    H165956   1.661   5.297  13.284 -0.4575  0.8156  0.1994
14847TIP3    H265957   1.535   5.290  13.201 -0.0855 -0.2389 -0.2813
14848TIP3   OH265958   1.861   3.261   5.601  0.8060  0.1276  0.6478
14848TIP3    H165959   1.860   3.193   5.669  0.0495  0.5355  1.0502
14848TIP3    H265960   1.853   3.343   5.649  1.7482  0.5148  0.1631
14849TIP3   OH265961   3.700   1.243  16.035  0.0762 -0.4073 -0.0034
14849TIP3    H165962   3.652   1.263  16.116  0.3070  1.1312 -0.2277
14849TIP3    H265963   3.696   1.148  16.028  0.5219 -0.6191  2.1138
14850TIP3   OH265964   1.555   6.693  12.065  0.3761  0.0004 -0.4551
14850TIP3    H165965   1.490   6.760  12.085  0.8770  0.4430 -0.3154
14850TIP3    H265966   1.627   6.740  12.023  0.1378 -0.6528 -1.6171
14851TIP3   OH265967   6.567   2.012   5.844 -0.4075 -0.7018 -0.2437
14851TIP3    H165968   6.647   2.050   5.881 -0.5757 -0.5832  0.0021
14851TIP3    H265969   6.550   1.935   5.898 -0.3569 -0.8278 -0.4103
14852TIP3   OH265970   3.526   2.822  12.696 -0.8246  0.0988 -0.2003
14852TIP3    H165971   3.525   2.728  12.712 -1.0105  0.1245 -0.0501
14852TIP3    H265972   3.583   2.858  12.764  0.0879 -0.0176 -0.9115
14853TIP3   OH265973   4.034   2.928   1.828 -0.0309 -0.5043 -0.8618
14853TIP3    H165974   4.051   2.962   1.916 -0.4873 -0.7618 -0.6707
14853TIP3    H265975   3.939   2.918   1.824 -0.0267 -0.3762 -1.4302
14854TIP3   OH265976   1.845   4.774  15.981  1.0833 -0.1443 -0.2493
14854TIP3    H165977   1.841   4.678  15.975 -0.1110 -0.1091 -0.0195
14854TIP3    H265978   1.887   4.801  15.899 -0.0779 -0.7675 -1.0616
14855TIP3   OH265979   6.741   1.135  13.121  1.3858  0.2475  0.2300
14855TIP3    H165980   6.706   1.050  13.095  3.2820 -0.5592  0.2730
14855TIP3    H265981   6.696   1.197  13.063 -1.5617 -0.5185  1.5951
14856TIP3   OH265982   4.443   3.119   2.904 -0.0491 -0.0552  0.1556
14856TIP3    H165983   4.502   3.116   2.829  2.0849 -0.5448  1.7997
14856TIP3    H265984   4.383   3.191   2.885  1.0490  0.4205 -1.5892
14857TIP3   OH265985   0.318   2.923   0.087  0.2904  0.5434 -0.3275
14857TIP3    H165986   0.391   2.870   0.054  1.3722  2.1107 -0.5102
14857TIP3    H265987   0.332   2.926   0.181  0.3688  0.7029 -0.3441
14858TIP3   OH265988   5.054   6.228   2.108 -0.1869  0.6715 -0.2979
14858TIP3    H165989   4.971   6.187   2.083 -0.9439  1.8590  0.2380
14858TIP3    H265990   5.032   6.319   2.127  1.3378  1.1378 -0.6654
14859TIP3   OH265991   4.078   1.261  15.514  0.3492 -0.5798 -0.1373
14859TIP3    H165992   4.157   1.232  15.560  0.8419  1.1006  0.1116
14859TIP3    H265993   4.054   1.187  15.458  0.0684 -2.4790  2.3734
14860TIP3   OH265994   1.173   1.407   6.434 -0.3301  0.7255  0.2695
14860TIP3    H165995   1.263   1.386   6.410 -0.1991  1.3939  0.1706
14860TIP3    H265996   1.120   1.362   6.369 -0.0320  1.1144 -0.2435
14861TIP3   OH265997   6.306   3.395   0.756 -0.1770 -0.3361  0.1558
14861TIP3    H165998   6.264   3.458   0.815 -1.7463 -1.5220  0.3276
14861TIP3    H265999   6.284   3.309   0.792  0.7056 -1.0265 -0.9052
14862TIP3   OH266000   5.473   0.750   4.698 -0.1442  0.0715  0.2432
14862TIP3    H166001   5.514   0.773   4.782  2.8878  0.0274 -1.1567
14862TIP3    H266002   5.406   0.817   4.684  3.5604  3.8361 -0.2579
14863TIP3   OH266003   4.810   1.914  13.125  0.4648 -0.1202  0.0195
14863TIP3    H166004   4.763   1.970  13.187  0.9489 -1.3747  1.5525
14863TIP3    H266005   4.780   1.825  13.145  1.9922 -0.7222 -0.3005
14864TIP3   OH266006   0.854   4.733   4.006 -0.0125  0.5877 -0.2032
14864TIP3    H166007   0.773   4.736   4.056 -0.1914 -2.1071 -0.2336
14864TIP3    H266008   0.917   4.781   4.059 -0.8800  0.1220  1.2719
14865TIP3   OH266009   3.715   0.629  12.076 -0.8551 -0.4507 -0.1155
14865TIP3    H166010   3.625   0.647  12.104 -0.9254  0.2263 -0.7717
14865TIP3    H266011   3.727   0.681  11.997  0.8684  1.2545  1.2273
14866TIP3   OH266012   5.843   5.021  14.167  0.5572  0.3963 -0.4526
14866TIP3    H166013   5.785   5.040  14.094  0.0122 -0.0255 -0.1365
14866TIP3    H266014   5.787   5.025  14.245  0.8312 -0.5436 -0.1955
14867TIP3   OH266015   3.566   2.221   2.049  0.7342  0.3671 -0.0952
14867TIP3    H166016   3.514   2.147   2.081  0.4057  0.2594 -0.8677
14867TIP3    H266017   3.606   2.189   1.968  0.3611  1.1319 -0.5866
14868TIP3   OH266018   0.438   5.678   0.374  0.0016 -0.1574  0.1309
14868TIP3    H166019   0.479   5.687   0.459  2.2691  0.2281 -0.9593
14868TIP3    H266020   0.398   5.591   0.375  1.7864 -0.9976  0.8720
14869TIP3   OH266021   0.799   1.032   5.164 -0.0685  0.0652 -0.8029
14869TIP3    H166022   0.791   0.938   5.146  1.1990  0.2181 -2.3148
14869TIP3    H266023   0.872   1.039   5.225 -0.4582  0.0298 -0.3335
14870TIP3   OH266024   4.084   3.284   4.745 -0.4883 -0.3875 -0.1740
14870TIP3    H166025   4.038   3.354   4.699 -0.5931 -1.6288 -2.0211
14870TIP3    H266026   4.167   3.323   4.771 -0.7906  0.5970 -0.6516
14871TIP3   OH266027   1.012   1.486   2.855 -0.3823 -0.1665  0.3087
14871TIP3    H166028   1.028   1.404   2.809 -2.4614 -0.2677 -0.2617
14871TIP3    H266029   1.099   1.522   2.869  0.3977 -0.9529 -2.2156
14872TIP3   OH266030   2.701   2.993  12.740  0.1188  0.5409  0.0176
14872TIP3    H166031   2.616   3.005  12.781  0.3871  0.5464  0.5846
14872TIP3    H266032   2.754   2.948  12.807  0.8747  1.4876  0.0721
14873TIP3   OH266033   0.101   6.192  11.988  0.1714  0.0717  0.2598
14873TIP3    H166034   0.012   6.180  12.021  0.5542  1.6208  1.9387
14873TIP3    H266035   0.138   6.104  11.985 -1.4400 -0.5951 -0.5444
14874TIP3   OH266036   0.910   4.218  11.437 -0.2694  0.2133  0.1710
14874TIP3    H166037   1.001   4.247  11.426 -0.9868  2.6828  0.4648
14874TIP3    H266038   0.886   4.184  11.352  0.9799 -0.5863  0.1202
14875TIP3   OH266039   0.296   1.615   4.552 -0.1330 -0.3220  0.3449
14875TIP3    H166040   0.337   1.675   4.614 -0.5907 -1.3607  1.6783
14875TIP3    H266041   0.203   1.635   4.558  0.0583  1.8637 -2.4940
14876TIP3   OH266042   2.327   0.898  13.122 -0.0606  0.1474  0.2567
14876TIP3    H166043   2.321   0.807  13.093  1.1087  0.0128  0.4030
14876TIP3    H266044   2.391   0.938  13.062 -2.1696  1.4392 -1.1917
14877TIP3   OH266045   3.995   5.280   6.329  0.1548  0.5042 -0.4679
14877TIP3    H166046   4.074   5.298   6.379  0.3770 -2.3168  0.2716
14877TIP3    H266047   3.933   5.246   6.394 -0.4601 -0.6674 -1.6464
14878TIP3   OH266048   5.817   4.495  13.271  0.1006 -0.0545  0.2506
14878TIP3    H166049   5.765   4.436  13.216  0.0899  0.4431 -0.2793
14878TIP3    H266050   5.814   4.455  13.358 -1.0352 -0.1127  0.1887
14879TIP3   OH266051   1.349   6.748   4.445 -0.2497 -0.8338 -0.1031
14879TIP3    H166052   1.420   6.690   4.474 -1.1310 -1.3161  1.0969
14879TIP3    H266053   1.270   6.694   4.450 -0.8463 -0.0146 -0.5503
14880TIP3   OH266054   1.191   0.998   6.277 -0.2389 -0.0182 -0.4085
14880TIP3    H166055   1.172   0.986   6.370  0.7346 -2.8920 -0.5324
14880TIP3    H266056   1.106   0.986   6.234 -0.7929  1.8642  0.1366
14881TIP3   OH266057   0.225   2.025  14.161 -0.3381  0.2486  0.2147
14881TIP3    H166058   0.192   1.975  14.236 -2.2860  0.9443 -0.1337
14881TIP3    H266059   0.176   1.990  14.087 -0.6449  1.6556 -0.2492
14882TIP3   OH266060   5.002   4.886   5.910  0.3462  0.5747 -0.1448
14882TIP3    H166061   4.991   4.818   5.976 -1.7870  1.2568  0.2530
14882TIP3    H266062   4.968   4.965   5.951 -0.2743  1.1763 -1.7519
14883TIP3   OH266063   4.264   3.398  11.150  0.0590  0.1191 -0.7584
14883TIP3    H166064   4.318   3.325  11.182 -1.7044 -0.9497 -0.1567
14883TIP3    H266065   4.213   3.360  11.079 -1.3075  0.6143 -0.0538
14884TIP3   OH266066   0.885   0.512   0.072  0.1836  0.0563 -0.4253
14884TIP3    H166067   0.927   0.597   0.086 -1.3057  0.8520 -0.7273
14884TIP3    H266068   0.837   0.521  -0.010 -0.9506 -0.6832  0.1361
14885TIP3   OH266069   4.608   2.841   4.341  0.2088 -0.0928 -0.3050
14885TIP3    H166070   4.576   2.784   4.271 -2.3726  2.2942 -1.1435
14885TIP3    H266071   4.544   2.831   4.411  1.2180 -0.2646  0.6005
14886TIP3   OH266072   0.916   3.585   1.713  0.1519  0.1778  0.6113
14886TIP3    H166073   0.945   3.561   1.801  0.4906  2.0545  1.0525
14886TIP3    H266074   0.841   3.643   1.729 -0.9292 -0.9255 -0.3989
14887TIP3   OH266075   5.759   0.194   0.063 -0.0292 -0.4479  0.2412
14887TIP3    H166076   5.834   0.252   0.066  0.0290 -0.4334 -0.9471
14887TIP3    H266077   5.780   0.123   0.124  1.8192 -1.4399 -1.4581
14888TIP3   OH266078   4.365   3.993  12.670  0.4713 -0.3510 -0.3023
14888TIP3    H166079   4.273   3.978  12.691  0.2742  0.1167 -0.8339
14888TIP3    H266080   4.412   3.925  12.718 -0.1405 -0.5091  0.0716
14889TIP3   OH266081   0.092   6.154   4.519  0.3398 -0.1330  0.1443
14889TIP3    H166082   0.053   6.171   4.604 -0.7405 -1.0462 -0.1595
14889TIP3    H266083   0.179   6.193   4.524 -0.2017  0.9645  1.2067
14890TIP3   OH266084   5.768   3.284   4.580  0.2820 -0.1296 -0.2883
14890TIP3    H166085   5.720   3.258   4.658 -0.5416 -2.6582 -1.5740
14890TIP3    H266086   5.798   3.373   4.598  0.6504 -0.9038  3.1150
14891TIP3   OH266087   5.425   3.984  12.623  0.0619 -0.9428 -0.1532
14891TIP3    H166088   5.444   4.075  12.649  2.4524 -1.4613  0.0451
14891TIP3    H266089   5.364   3.993  12.549 -1.2977  0.7481  1.1217
14892TIP3   OH266090   6.645   1.836   5.252 -0.3853 -0.2221 -0.6661
14892TIP3    H166091   6.720   1.847   5.311  0.9506 -1.3855 -2.0948
14892TIP3    H266092   6.583   1.783   5.301 -0.7090  1.5883  0.9096
14893TIP3   OH266093   1.018   5.444  16.126  0.0674 -0.3229  0.5204
14893TIP3    H166094   0.926   5.417  16.129  0.0613 -0.5384 -1.1880
14893TIP3    H266095   1.025   5.496  16.047  1.2579  0.3544  1.0613
14894TIP3   OH266096   5.903   0.382   0.559  0.4543 -0.2892  0.2501
14894TIP3    H166097   5.961   0.338   0.621  0.2745 -0.1115  0.5448
14894TIP3    H266098   5.948   0.464   0.539  0.4185 -0.2566  0.3012
14895TIP3   OH266099   3.649   2.226  14.380 -0.2375 -0.0666  0.0159
14895TIP3    H166100   3.567   2.186  14.409  0.7408 -0.3100  2.5601
14895TIP3    H266101   3.625   2.315  14.353 -1.3600 -0.1796  0.6251
14896TIP3   OH266102   4.797   6.493  14.813 -0.1255 -0.4518  0.5380
14896TIP3    H166103   4.870   6.526  14.866  0.2180  1.0336 -0.7953
14896TIP3    H266104   4.819   6.520  14.723 -1.9812 -0.5676  0.0271
14897TIP3   OH266105   4.975   2.335  15.166  0.3853 -0.4065 -0.0403
14897TIP3    H166106   5.000   2.247  15.194  1.1489 -0.4193 -0.7559
14897TIP3    H266107   5.016   2.345  15.080  1.7265  1.2976  0.7789
14898TIP3   OH266108   3.067   6.770   2.950  0.0565 -0.1713 -0.3393
14898TIP3    H166109   3.016   6.850   2.935 -2.0126 -1.3621  0.0740
14898TIP3    H266110   3.073   6.730   2.863  0.3263  0.0002 -0.3985
14899TIP3   OH266111   4.079   2.255   5.939 -0.0022 -0.2567 -0.4401
14899TIP3    H166112   4.064   2.184   6.002  0.3522 -0.7610 -0.9123
14899TIP3    H266113   4.144   2.311   5.980 -0.0356 -0.3907 -0.2017
14900TIP3   OH266114   0.216   5.427  15.885 -0.4341  0.1172  0.3692
14900TIP3    H166115   0.142   5.367  15.879  0.0789 -0.4595 -0.4259
14900TIP3    H266116   0.186   5.508  15.844 -1.2268  0.5225  1.7066
14901TIP3   OH266117   4.155   4.516  14.780  0.4392  0.0501  0.2780
14901TIP3    H166118   4.236   4.476  14.749  1.1012  1.8330 -0.3668
14901TIP3    H266119   4.166   4.524  14.875  0.0509 -1.8161  0.4905
14902TIP3   OH266120   0.897   6.299  16.900 -0.4374 -0.0510 -0.1938
14902TIP3    H166121   0.858   6.338  16.978 -0.4241  0.8979 -0.6582
14902TIP3    H266122   0.976   6.255  16.932 -0.5435  0.1544  0.3543
14903TIP3   OH266123   3.133   3.860   1.813 -0.4636  0.1391  0.2759
14903TIP3    H166124   3.041   3.831   1.820 -0.5682  0.6201  0.9387
14903TIP3    H266125   3.171   3.837   1.898 -0.9882  3.4870  1.4864
14904TIP3   OH266126   0.078   4.201  14.757 -0.6373 -0.3965 -0.5496
14904TIP3    H166127   0.027   4.281  14.770  1.4640  0.9604 -0.3965
14904TIP3    H266128   0.161   4.231  14.719  0.4194 -2.4277  0.0471
14905TIP3   OH266129   3.674   0.450  11.839 -0.0420  0.4212 -0.0936
14905TIP3    H166130   3.715   0.403  11.912  1.0856  1.5216  0.0075
14905TIP3    H266131   3.745   0.461  11.776 -0.9697 -0.3879 -1.3025
14906TIP3   OH266132   3.644   1.079  16.686  0.6719  0.5000  0.1250
14906TIP3    H166133   3.624   1.043  16.772  1.7680  0.9073  0.5443
14906TIP3    H266134   3.727   1.124  16.696  0.2465  1.5533 -0.8682
14907TIP3   OH266135   4.200   1.933   3.886 -0.2570  0.0313 -0.3588
14907TIP3    H166136   4.203   1.845   3.923  3.6403  0.2985  0.2181
14907TIP3    H266137   4.220   1.990   3.960  0.0822  1.1811 -1.3217
14908TIP3   OH266138   0.365   3.503   1.734  0.8016 -0.2482 -0.2539
14908TIP3    H166139   0.396   3.531   1.648  0.8152 -0.3002 -0.2660
14908TIP3    H266140   0.283   3.550   1.746  0.9678  0.0167 -0.1499
14909TIP3   OH266141   2.515   6.428  14.021  0.3929 -0.1129 -0.2387
14909TIP3    H166142   2.498   6.476  14.102  1.9448 -0.8038  0.4986
14909TIP3    H266143   2.577   6.483  13.973 -0.2564  0.1254 -0.8203
14910TIP3   OH266144   4.742   6.288   4.913 -0.3181 -0.4041  0.6561
14910TIP3    H166145   4.708   6.207   4.876 -0.6643  0.3062 -0.6259
14910TIP3    H266146   4.763   6.267   5.004  2.2906 -2.6858 -0.4153
14911TIP3   OH266147   6.663   2.886  13.109  0.4696 -0.0718 -0.1040
14911TIP3    H166148   6.729   2.842  13.164  1.0502 -0.8691 -1.4309
14911TIP3    H266149   6.662   2.836  13.028  0.0679  1.4929 -1.0723
14912TIP3   OH266150   4.418   3.118  12.872  0.4375  0.2890 -0.2682
14912TIP3    H166151   4.480   3.157  12.934  0.5748  0.1035 -0.2878
14912TIP3    H266152   4.421   3.024  12.891 -0.2604  0.3331  0.1173
14913TIP3   OH266153   0.377   1.984  16.637  0.0525 -0.1685  0.0048
14913TIP3    H166154   0.310   2.014  16.699 -0.6457  1.4629 -1.5332
14913TIP3    H266155   0.330   1.970  16.555  1.4514  0.2088 -0.8756
14914TIP3   OH266156   1.817   5.761   2.743 -0.2593 -0.0623 -0.7390
14914TIP3    H166157   1.869   5.680   2.747  0.4373  0.4061 -0.0766
14914TIP3    H266158   1.882   5.829   2.725 -0.7781  0.4108 -0.8098
14915TIP3   OH266159   2.444   0.449  11.568 -0.0515 -0.2337 -0.0676
14915TIP3    H166160   2.411   0.404  11.490  0.2481 -0.3259 -0.1399
14915TIP3    H266161   2.366   0.462  11.622 -0.3125  0.1433 -0.5356
14916TIP3   OH266162   3.374   0.612  16.619  0.1701 -0.9670  0.4566
14916TIP3    H166163   3.317   0.538  16.599 -1.0583 -0.3315  1.5011
14916TIP3    H266164   3.388   0.607  16.714 -0.9359  0.8345  0.7342
14917TIP3   OH266165   5.657   6.701  15.869 -0.0055  0.2146  0.0839
14917TIP3    H166166   5.660   6.736  15.780 -0.4514 -0.3304 -0.1502
14917TIP3    H266167   5.597   6.759  15.916 -0.4134  0.0138 -0.1910
14918TIP3   OH266168   3.538   0.937  13.058  0.0898  0.3519  0.0839
14918TIP3    H166169   3.609   0.873  13.048 -0.0390 -0.3064  3.0839
14918TIP3    H266170   3.471   0.906  12.997  1.3758 -0.4243 -0.9890
14919TIP3   OH266171   5.475   6.634  14.842 -0.1106  0.3818 -0.2377
14919TIP3    H166172   5.495   6.601  14.930  2.6100 -0.4156 -1.1223
14919TIP3    H266173   5.557   6.672  14.810 -0.7640 -0.2595 -2.8307
14920TIP3   OH266174   1.677   5.813   1.628 -0.1131 -0.3689  0.1827
14920TIP3    H166175   1.649   5.805   1.720 -2.1888  1.4527 -0.2546
14920TIP3    H266176   1.772   5.806   1.631 -0.0847  0.6294  2.6023
14921TIP3   OH266177   3.460   1.972   1.515  0.0337  0.5345 -0.1461
14921TIP3    H166178   3.378   1.964   1.564  1.4918 -0.6492  2.1869
14921TIP3    H266179   3.491   1.882   1.505  1.6434  1.0501  0.0620
14922TIP3   OH266180   1.397   1.348  14.208 -0.0984  0.4687 -0.4648
14922TIP3    H166181   1.341   1.424  14.226 -0.0702  0.0747  1.3589
14922TIP3    H266182   1.432   1.323  14.293  1.3137 -0.5080 -1.3097
14923TIP3   OH266183   0.497   5.679  15.210  0.8058 -0.6944 -0.1950
14923TIP3    H166184   0.489   5.587  15.184  0.2743 -0.4505 -0.9031
14923TIP3    H266185   0.578   5.681  15.262 -1.6058 -2.4352  3.8783
14924TIP3   OH266186   5.342   1.938  10.820 -0.3462  0.4738  0.1988
14924TIP3    H166187   5.321   1.985  10.901 -0.3486  2.2176 -0.7819
14924TIP3    H266188   5.262   1.889  10.799 -1.1609  1.8322  0.0509
14925TIP3   OH266189   0.286   0.177   1.362 -0.2871 -0.1559  0.3880
14925TIP3    H166190   0.224   0.150   1.431 -1.1116 -0.2726 -0.3915
14925TIP3    H266191   0.273   0.112   1.293 -0.7124  0.9905 -0.6059
14926TIP3   OH266192   0.605   3.004  13.343  0.1093  0.6280 -0.2358
14926TIP3    H166193   0.534   2.941  13.351 -0.8640  1.7807  0.5061
14926TIP3    H266194   0.639   3.014  13.431  1.4240 -0.1709 -0.6508
14927TIP3   OH266195   0.683   3.801  16.957  0.1965  0.4191 -0.7758
14927TIP3    H166196   0.643   3.782  16.872 -1.4105  1.3657 -0.2405
14927TIP3    H266197   0.689   3.716  17.000 -2.2320  0.3906 -0.4451
14928TIP3   OH266198   5.377   2.013   3.473  1.0228  0.1719  0.0854
14928TIP3    H166199   5.295   1.963   3.467  2.3349 -1.9845 -0.3816
14928TIP3    H266200   5.437   1.954   3.519  2.1677  1.9392  0.8785
14929TIP3   OH266201   0.393   0.359  16.453  0.1117  0.3964 -0.1712
14929TIP3    H166202   0.439   0.397  16.379  0.3786 -0.5166 -0.4903
14929TIP3    H266203   0.389   0.428  16.518  0.6549  0.9288 -0.7042
14930TIP3   OH266204   2.982   1.910   1.870  0.7635  0.4884 -0.2197
14930TIP3    H166205   2.979   1.815   1.858 -0.1234  0.6337 -1.2331
14930TIP3    H266206   2.939   1.945   1.792 -0.0926  1.6837  0.7685
14931TIP3   OH266207   3.556   6.511  13.112  0.7239  0.2980 -0.2136
14931TIP3    H166208   3.510   6.592  13.090  0.1096 -0.5895 -2.2806
14931TIP3    H266209   3.519   6.445  13.053 -0.9489 -2.1940  3.4449
14932TIP3   OH266210   6.195   5.015  13.573 -0.2482  0.0030  0.2304
14932TIP3    H166211   6.170   5.061  13.493  0.8843 -0.4994 -0.4297
14932TIP3    H266212   6.246   4.940  13.542  0.2189 -0.1830  1.4247
14933TIP3   OH266213   0.311   1.426   5.305 -0.0570 -0.4722  0.2478
14933TIP3    H166214   0.306   1.513   5.344  0.6881 -0.1181 -0.4354
14933TIP3    H266215   0.376   1.434   5.235 -0.0110 -1.5636  0.1467
14934TIP3   OH266216   2.524   0.357   0.181 -0.3566 -0.1366 -0.1587
14934TIP3    H166217   2.469   0.343   0.259 -0.3495 -1.2145 -0.3380
14934TIP3    H266218   2.529   0.452   0.173  0.2658  0.0067  1.6135
14935TIP3   OH266219   3.450   1.889   4.904  0.0202 -0.2006  0.3876
14935TIP3    H166220   3.409   1.873   4.989  0.1817 -0.9467  0.3298
14935TIP3    H266221   3.401   1.962   4.866 -1.4055 -1.2511  0.1993
14936TIP3   OH266222   3.553   6.556   5.871  0.1656 -0.2646  0.1678
14936TIP3    H166223   3.568   6.569   5.964  1.0265 -0.6236  0.0844
14936TIP3    H266224   3.614   6.616   5.828 -0.9828  0.6769 -0.1610
14937TIP3   OH266225   3.993   3.926   3.630  0.7207  0.1029 -0.3657
14937TIP3    H166226   4.009   4.015   3.660  1.4338 -0.0393 -0.3148
14937TIP3    H266227   3.997   3.872   3.709 -1.3215  0.2290 -0.1686
14938TIP3   OH266228   3.615   2.505  14.979  0.3903  0.2552 -0.5293
14938TIP3    H166229   3.604   2.484  15.072  0.0727  1.7464 -0.2192
14938TIP3    H266230   3.707   2.530  14.972  0.5077 -0.2251 -0.6904
14939TIP3   OH266231   2.139   1.566  16.491  0.7385  0.1698 -0.3987
14939TIP3    H166232   2.179   1.501  16.433  0.4660 -0.9515  0.6505
14939TIP3    H266233   2.096   1.628  16.431 -1.0259 -1.9403 -1.3794
14940TIP3   OH266234   2.598   0.049   5.548 -0.5600  0.0072  0.6174
14940TIP3    H166235   2.558   0.131   5.516 -0.4378  1.1637  3.3084
14940TIP3    H266236   2.690   0.071   5.562  0.1290 -1.4398 -1.3531
14941TIP3   OH266237   3.031   4.877  15.801 -0.3707 -0.3929 -0.4368
14941TIP3    H166238   2.950   4.880  15.851  1.7307  0.4177  3.0371
14941TIP3    H266239   3.039   4.785  15.774 -1.8109 -0.7204  0.2313
14942TIP3   OH266240   4.904   2.710  15.147 -0.2183 -0.2217  0.1872
14942TIP3    H166241   4.965   2.733  15.077  1.0608  0.3922  1.4721
14942TIP3    H266242   4.848   2.642  15.109 -0.7194  1.3526 -1.9922
14943TIP3   OH266243   0.183   4.707   3.959  0.2932 -0.5755 -0.2980
14943TIP3    H166244   0.118   4.745   3.900  0.9869  0.0228 -0.6787
14943TIP3    H266245   0.131   4.664   4.027 -0.5137 -1.4794 -1.4658
14944TIP3   OH266246   1.784   6.014  17.001 -0.3725 -0.2300  0.3195
14944TIP3    H166247   1.861   5.991  17.053  0.7468  1.1410 -0.6935
14944TIP3    H266248   1.808   5.989  16.911 -1.0879  0.2508 -0.0051
14945TIP3   OH266249   0.939   3.423  17.218  0.8440 -0.1935 -0.1822
14945TIP3    H166250   0.948   3.363  17.145  0.2673 -0.4819 -0.0155
14945TIP3    H266251   1.004   3.492  17.201  0.7083 -0.2603 -0.9574
14946TIP3   OH266252   3.616   5.921  14.561  0.2478 -0.1402 -0.2771
14946TIP3    H166253   3.525   5.896  14.573  0.2328 -1.3577 -2.6117
14946TIP3    H266254   3.666   5.844  14.590  0.4266 -0.4352 -1.3438
14947TIP3   OH266255   3.705   0.104  13.309  0.1436  0.1198  0.3138
14947TIP3    H166256   3.667   0.046  13.375 -0.6780  0.6100  0.2770
14947TIP3    H266257   3.728   0.183  13.357 -2.3547  1.2928 -0.3334
14948TIP3   OH266258   4.234   6.534   3.172  0.7210  0.0172  0.2754
14948TIP3    H166259   4.152   6.577   3.195  0.6876 -1.2128  2.5581
14948TIP3    H266260   4.209   6.446   3.145  1.2649 -0.3433  0.9194
14949TIP3   OH266261   2.513   2.862  12.019 -0.5234  0.4237  0.4674
14949TIP3    H166262   2.570   2.871  12.096 -2.3110  1.4290  1.6959
14949TIP3    H266263   2.429   2.832  12.055 -1.8293  2.3370 -0.9235
14950TIP3   OH266264   0.474   3.774  12.282 -0.2315 -0.6493 -0.0017
14950TIP3    H166265   0.559   3.773  12.327  0.3439  0.8288 -1.0015
14950TIP3    H266266   0.455   3.682  12.263 -0.3906 -1.3025  3.0342
14951TIP3   OH266267   0.045   1.997   0.757  0.3474 -0.1768 -0.5979
14951TIP3    H166268   0.062   2.019   0.665 -1.5668 -0.2841 -1.0048
14951TIP3    H266269   0.131   1.998   0.798  1.0271  1.8331 -1.9696
14952TIP3   OH266270   2.235   3.241  14.149  0.7843  0.5432 -0.3103
14952TIP3    H166271   2.270   3.154  14.130 -1.7291 -0.1844 -1.7415
14952TIP3    H266272   2.281   3.268  14.229  2.4328 -1.5843 -0.4824
14953TIP3   OH266273   6.007   4.528  15.824 -0.4864  0.1348 -0.4776
14953TIP3    H166274   5.916   4.534  15.794 -0.8255  0.9839  0.6921
14953TIP3    H266275   6.057   4.576  15.758 -0.9850  0.3654 -0.6914
14954TIP3   OH266276   1.374   0.268  13.814  0.1712 -0.5014 -0.2829
14954TIP3    H166277   1.452   0.279  13.868  0.8423  2.0857 -1.7071
14954TIP3    H266278   1.307   0.320  13.859 -0.1309 -0.8652 -0.3052
14955TIP3   OH266279   2.223   5.097  13.697 -0.6493 -0.3711  0.7451
14955TIP3    H166280   2.278   5.142  13.761 -0.1605 -0.6152  0.4984
14955TIP3    H266281   2.212   5.159  13.626 -1.0604 -0.1586  0.9920
14956TIP3   OH266282   2.642   5.869  12.629  0.6347  0.1375  0.0920
14956TIP3    H166283   2.610   5.958  12.620  0.4977  0.0532 -0.2458
14956TIP3    H266284   2.608   5.839  12.713  1.1794  0.6129  0.4905
14957TIP3   OH266285   1.431   5.156   1.774 -0.0619  0.2255  0.0590
14957TIP3    H166286   1.336   5.164   1.765 -0.2112 -1.5646 -0.2569
14957TIP3    H266287   1.444   5.138   1.868  0.1040  2.1123  0.4010
14958TIP3   OH266288   2.185   5.625   1.581 -0.0603  0.1323 -0.1243
14958TIP3    H166289   2.193   5.576   1.662 -1.3863  0.8456  0.4398
14958TIP3    H266290   2.194   5.559   1.512 -1.7042 -0.8796  0.6244
14959TIP3   OH266291   2.614   3.297   6.178 -0.0414 -0.2089  0.2302
14959TIP3    H166292   2.655   3.375   6.140  0.6996 -0.2772  0.8809
14959TIP3    H266293   2.601   3.239   6.104  1.1478 -0.2287  0.0156
14960TIP3   OH266294   2.868   2.581   4.561  0.4889 -0.0912 -0.1958
14960TIP3    H166295   2.876   2.558   4.468 -0.0345  2.8664 -1.0488
14960TIP3    H266296   2.780   2.616   4.570  0.7272  0.1824  1.2864
14961TIP3   OH266297   6.073   3.061  16.521  0.3319 -0.6107  0.3083
14961TIP3    H166298   6.063   2.977  16.567  0.1109  0.5521  2.4302
14961TIP3    H266299   6.040   3.044  16.433  0.2764 -2.7548  0.7203
14962TIP3   OH266300   4.811   5.826  12.310  0.6198 -0.0457 -0.5143
14962TIP3    H166301   4.810   5.786  12.397 -0.5419  0.0375 -0.4758
14962TIP3    H266302   4.748   5.898  12.317  1.4258  0.7138 -1.0769
14963TIP3   OH266303   4.995   2.296   0.345 -0.3586  0.1565 -0.2376
14963TIP3    H166304   4.988   2.357   0.418 -0.5958  2.5098 -2.1468
14963TIP3    H266305   4.905   2.284   0.315 -0.0507  0.9288 -1.4962
14964TIP3   OH266306   6.121   4.506   6.792 -0.1052  0.0155 -0.2151
14964TIP3    H166307   6.162   4.455   6.861  1.4966  3.1607  1.2423
14964TIP3    H266308   6.027   4.500   6.810  0.1382 -1.2682  0.6868
14965TIP3   OH266309   0.776   2.782  15.256  0.1402  0.1356 -0.2084
14965TIP3    H166310   0.749   2.690  15.258  0.1695  0.1354  0.4972
14965TIP3    H266311   0.708   2.826  15.204 -0.6614 -0.0444  0.6638
14966TIP3   OH266312   0.400   0.177   4.158  0.2489  1.0127 -0.1808
14966TIP3    H166313   0.310   0.199   4.133 -0.0304 -0.7629 -0.7667
14966TIP3    H266314   0.427   0.250   4.214 -1.9319  1.0076  0.9429
14967TIP3   OH266315   3.902   4.824   6.301  0.2079 -0.2498  0.4647
14967TIP3    H166316   3.806   4.825   6.306  0.1131 -0.8877 -0.9015
14967TIP3    H266317   3.924   4.895   6.242  0.5015 -0.9076 -0.2242
14968TIP3   OH266318   3.820   5.223   6.080 -0.5125  0.0911 -0.1280
14968TIP3    H166319   3.901   5.179   6.106  0.2647  1.3604 -0.2968
14968TIP3    H266320   3.843   5.270   6.000 -1.1366  1.2269  0.3296
14969TIP3   OH266321   1.692   4.588  13.645  0.0221 -0.6633  0.5376
14969TIP3    H166322   1.770   4.542  13.613  0.2430 -0.7879  1.2352
14969TIP3    H266323   1.692   4.670  13.596  0.5013 -0.7359  0.4077
14970TIP3   OH266324   1.141   4.891   0.796  0.2367  0.1395  0.0358
14970TIP3    H166325   1.102   4.977   0.778  0.1839  0.2132  0.4917
14970TIP3    H266326   1.217   4.910   0.851 -0.3951 -0.1899  1.0343
14971TIP3   OH266327   5.293   1.822  16.744  0.4823  0.1653  0.5350
14971TIP3    H166328   5.287   1.913  16.774 -0.3201  0.0842  0.6421
14971TIP3    H266329   5.251   1.822  16.658 -1.6377 -0.5438  1.5420
14972TIP3   OH266330   0.765   4.745  11.989 -0.0916  0.1683 -0.0212
14972TIP3    H166331   0.679   4.720  11.955  0.0042 -1.5003  0.9113
14972TIP3    H266332   0.749   4.824  12.041 -1.0468 -0.1431  0.1474
14973TIP3   OH266333   3.605   4.804  14.103 -0.6070 -0.2012 -0.2647
14973TIP3    H166334   3.555   4.854  14.039  1.9888  0.0995 -2.1751
14973TIP3    H266335   3.596   4.713  14.074 -2.8383 -0.5299  1.4176
14974TIP3   OH266336   5.531   2.848   2.515  0.0145  0.8517  0.1982
14974TIP3    H166337   5.448   2.802   2.527 -0.0987  0.9745 -0.1242
14974TIP3    H266338   5.576   2.801   2.446  1.6372 -1.1916  2.5463
14975TIP3   OH266339   0.833   6.375  16.000 -0.5216 -0.1208 -0.0171
14975TIP3    H166340   0.770   6.438  16.034  1.3750  2.4727 -1.1169
14975TIP3    H266341   0.864   6.328  16.078 -0.1342  2.0682  1.2086
14976TIP3   OH266342   3.976   0.691  17.067  0.3322 -0.3318 -0.6498
14976TIP3    H166343   3.899   0.742  17.095  1.2015  0.9275 -0.4920
14976TIP3    H266344   4.008   0.738  16.990  1.0406 -0.7389 -0.6057
14977TIP3   OH266345   0.614   2.852   3.356 -0.1950  0.0522 -0.1702
14977TIP3    H166346   0.582   2.843   3.446 -1.3325 -1.2296 -0.7005
14977TIP3    H266347   0.631   2.946   3.346 -1.4296  0.4041  0.9138
14978TIP3   OH266348   3.256   2.135  10.276  0.1233  0.0481 -0.6917
14978TIP3    H166349   3.331   2.126  10.334 -0.8360  2.3127  0.9655
14978TIP3    H266350   3.180   2.111  10.329 -0.6125  0.5456 -1.4909
14979TIP3   OH266351   3.690   5.723   5.338  0.2593  0.5778 -0.5731
14979TIP3    H166352   3.759   5.712   5.404 -0.4698 -2.7913 -0.2753
14979TIP3    H266353   3.736   5.754   5.260  1.9916 -0.5842 -0.0438
14980TIP3   OH266354   1.970   6.707   3.458 -0.4059  0.0990  0.5727
14980TIP3    H166355   1.931   6.775   3.514  1.6262  1.7739  0.0060
14980TIP3    H266356   1.896   6.651   3.434 -2.1928  2.2633  0.8381
14981TIP3   OH266357   0.967   2.072  16.102  0.1636 -0.3220  0.1617
14981TIP3    H166358   0.945   2.059  16.194 -1.9708 -4.1478 -0.7975
14981TIP3    H266359   1.036   2.009  16.084  0.5927  0.4256 -0.8877
14982TIP3   OH266360   1.378   5.984   0.966  0.2254  0.5159  0.5387
14982TIP3    H166361   1.463   5.941   0.980  0.5402  0.9663  0.0074
14982TIP3    H266362   1.320   5.913   0.937  0.4029  0.1940  0.9710
14983TIP3   OH266363   0.246   4.262   0.808 -0.5206  0.1114 -0.2687
14983TIP3    H166364   0.336   4.251   0.837 -0.8092 -1.5448  0.0456
14983TIP3    H266365   0.244   4.224   0.720 -0.7435  0.8288 -0.5797
14984TIP3   OH266366   2.248   1.650  17.075  0.1375 -0.1728  0.3824
14984TIP3    H166367   2.255   1.666  17.169  0.5279 -1.2182  0.5289
14984TIP3    H266368   2.153   1.648  17.058  0.0478 -1.2541  0.9724
14985TIP3   OH266369   3.849   5.809   5.553  0.3975 -0.6514 -0.3344
14985TIP3    H166370   3.897   5.891   5.566  0.6670 -0.4691 -2.4036
14985TIP3    H266371   3.757   5.835   5.557  0.4796 -0.3224 -0.5022
14986TIP3   OH266372   3.239   6.698  16.840  0.2902 -0.4847 -0.5529
14986TIP3    H166373   3.311   6.759  16.860 -0.3046 -0.4698  1.6449
14986TIP3    H266374   3.176   6.751  16.792  1.8142 -0.5451 -2.6917
14987TIP3   OH266375   6.298   0.772   5.596 -0.7920  1.2839  0.4006
14987TIP3    H166376   6.383   0.816   5.596 -0.5121  0.7428  0.0707
14987TIP3    H266377   6.290   0.736   5.685 -0.5958  1.1662  0.3692
14988TIP3   OH266378   1.095   2.368   1.150  0.7177  0.2841 -0.0970
14988TIP3    H166379   1.052   2.339   1.069 -0.9150 -0.0865  0.8700
14988TIP3    H266380   1.044   2.444   1.178  1.4936  0.6311  0.3880
14989TIP3   OH266381   1.824   5.930  13.293 -0.0457  0.9436  0.8606
14989TIP3    H166382   1.870   5.911  13.211  0.9681  0.0393  1.6186
14989TIP3    H266383   1.870   5.878  13.359 -1.3272  1.0630  1.8778
14990TIP3   OH266384   1.037   1.479  16.496  0.3655  0.2354  0.1493
14990TIP3    H166385   0.947   1.470  16.467 -0.1495 -1.4951  2.2077
14990TIP3    H266386   1.066   1.563  16.459 -1.5325  0.0185 -1.8763
14991TIP3   OH266387   1.916   0.510  11.962  0.0276 -0.0518 -0.0031
14991TIP3    H166388   1.960   0.435  12.001 -0.4606 -0.1367  0.3878
14991TIP3    H266389   1.834   0.474  11.927  0.2108  0.1234 -0.6272
14992TIP3   OH266390   2.699   1.773   3.526  0.1935 -0.5616 -0.4888
14992TIP3    H166391   2.615   1.741   3.561 -0.3506 -0.5951 -1.8060
14992TIP3    H266392   2.748   1.693   3.506 -0.5501 -0.5871 -2.3000
14993TIP3   OH266393   1.189   4.647  17.056  0.1835  0.3314 -0.0781
14993TIP3    H166394   1.181   4.571  16.998  0.5908  0.2122  0.0132
14993TIP3    H266395   1.108   4.649  17.106  0.6443 -0.7193  0.7244
14994TIP3   OH266396   0.119   5.437  16.339 -0.0064 -0.4765  0.2296
14994TIP3    H166397   0.186   5.446  16.272 -2.5726 -0.5821 -2.4705
14994TIP3    H266398   0.058   5.509  16.321 -0.9532 -0.7524  2.2153
14995TIP3   OH266399   0.630   1.271   0.711 -0.1034 -0.3606 -0.1117
14995TIP3    H166400   0.549   1.305   0.747 -0.5621 -1.0149 -0.5274
14995TIP3    H266401   0.675   1.349   0.677 -0.2208  0.0950  0.7586
14996TIP3   OH266402   5.517   4.167  13.219  0.0565  0.3415  0.0940
14996TIP3    H166403   5.422   4.164  13.207  0.1456  0.8432 -0.7157
14996TIP3    H266404   5.549   4.220  13.147  0.8011  1.4878  1.2541
14997TIP3   OH266405   4.263   5.963  16.981  0.1413  0.1359 -0.1006
14997TIP3    H166406   4.231   5.877  16.952  0.6895 -0.1353  0.1010
14997TIP3    H266407   4.252   6.019  16.905  0.0715 -0.1890 -0.3326
14998TIP3   OH266408   5.881   4.501  12.480  0.2029 -0.5957 -0.5583
14998TIP3    H166409   5.870   4.487  12.386 -0.5973 -0.9366 -0.4160
14998TIP3    H266410   5.897   4.595  12.488  0.2250 -0.5581 -1.0371
14999TIP3   OH266411   1.386   0.089   0.897  0.1245 -0.5221 -0.0999
14999TIP3    H166412   1.375  -0.006   0.900 -1.6062 -0.3468 -0.3677
14999TIP3    H266413   1.421   0.107   0.810  0.8820 -0.9583  0.1163
15000TIP3   OH266414   5.157   3.387  12.420 -0.1513 -0.3841  0.2336
15000TIP3    H166415   5.079   3.380  12.476 -0.1652  0.0820  0.2705
15000TIP3    H266416   5.175   3.481  12.415  1.9116 -0.6146  2.3279
15001TIP3   OH266417   6.633   4.257   5.896  0.1365 -0.4518 -0.4301
15001TIP3    H166418   6.702   4.195   5.876  1.1899  0.4319  0.3748
15001TIP3    H266419   6.647   4.279   5.988  1.0011  2.4639 -1.2161
15002TIP3   OH266420   6.203   1.584  11.344 -0.0779  0.3497 -0.6137
15002TIP3    H166421   6.194   1.489  11.351  1.0690  0.4200  3.3361
15002TIP3    H266422   6.122   1.619  11.382 -0.7559  0.9785 -2.5957
15003TIP3   OH266423   4.272   3.585   5.377 -0.4696 -0.0422 -0.3568
15003TIP3    H166424   4.362   3.615   5.388 -1.4059  3.1107 -0.8042
15003TIP3    H266425   4.235   3.644   5.311 -3.0551 -0.9032  0.2611
15004TIP3   OH266426   0.297   1.691   2.364 -0.2133  0.3093  0.4340
15004TIP3    H166427   0.306   1.668   2.456 -1.5664  1.4077  0.8499
15004TIP3    H266428   0.280   1.607   2.321  2.5759 -0.5305  0.8383
15005TIP3   OH266429   0.660   6.229  14.413 -0.1494 -0.5771 -0.2809
15005TIP3    H166430   0.616   6.160  14.463  1.4906 -1.0422  0.5643
15005TIP3    H266431   0.592   6.294  14.396 -0.8559 -0.6195  2.2129
15006TIP3   OH266432   6.567   0.777   4.486 -0.7663 -0.0318  0.1824
15006TIP3    H166433   6.576   0.684   4.463  0.0609  0.1961 -0.4210
15006TIP3    H266434   6.477   0.798   4.463 -0.5504 -0.3343 -0.9499
15007TIP3   OH266435   4.532   1.413  14.495 -0.5200 -0.1564  0.4262
15007TIP3    H166436   4.584   1.395  14.417 -0.7592  0.3098  0.1550
15007TIP3    H266437   4.593   1.456  14.555 -0.6790  0.7450 -0.0412
15008TIP3   OH266438   5.543   3.539   5.679 -0.1256 -0.3918 -0.1880
15008TIP3    H166439   5.568   3.499   5.597 -0.3729  1.3553 -1.1493
15008TIP3    H266440   5.471   3.485   5.712 -0.6461 -0.5593 -1.5889
15009TIP3   OH266441   1.665   5.815  11.313  0.1232 -0.3260 -0.3586
15009TIP3    H166442   1.705   5.805  11.227 -1.7953  0.4170 -1.3504
15009TIP3    H266443   1.612   5.893  11.307 -1.4007 -1.2177  0.9764
15010TIP3   OH266444   5.371   2.880   1.577  0.3716 -0.4973  0.3277
15010TIP3    H166445   5.420   2.799   1.563  1.5324  0.2304  0.0404
15010TIP3    H266446   5.418   2.945   1.524 -1.8048 -0.0846 -1.1458
15011TIP3   OH266447   0.527   2.403   2.597 -0.0916  0.1993 -0.2684
15011TIP3    H166448   0.528   2.384   2.503  0.1041  1.7884 -0.6021
15011TIP3    H266449   0.610   2.368   2.629 -0.8383 -1.7402 -0.3820
15012TIP3   OH266450   2.038   6.355  15.947  0.2571 -0.3463 -0.1174
15012TIP3    H166451   1.983   6.413  16.000  3.3715  2.0712  0.6071
15012TIP3    H266452   1.991   6.346  15.864 -1.2644  1.6174  0.4939
15013TIP3   OH266453   0.607   1.994   4.893 -0.1213  0.2435 -0.2817
15013TIP3    H166454   0.528   2.033   4.930  1.3074  2.5012  0.5368
15013TIP3    H266455   0.678   2.029   4.948  1.5065 -1.1013 -1.4925
15014TIP3   OH266456   4.549   3.026  13.745 -0.8278 -0.3729  0.3430
15014TIP3    H166457   4.462   3.060  13.723 -0.6935 -0.1930  0.0725
15014TIP3    H266458   4.592   3.015  13.660 -0.0085  1.0954  0.5509
15015TIP3   OH266459   5.959   0.691  16.299 -0.5458  0.3341 -0.1582
15015TIP3    H166460   5.985   0.782  16.311  1.6828 -0.3618  0.5140
15015TIP3    H266461   5.910   0.691  16.216 -0.8069  2.1763 -0.0194
15016TIP3   OH266462   2.684   1.626  11.569  0.0855 -0.3151 -0.3979
15016TIP3    H166463   2.644   1.540  11.553  0.3669 -0.7395  1.1413
15016TIP3    H266464   2.671   1.642  11.662 -0.9761  1.8482 -0.8863
15017TIP3   OH266465   5.332   1.430  12.431 -0.4106  0.1737  0.2939
15017TIP3    H166466   5.421   1.428  12.397 -0.5230 -0.5462  0.0309
15017TIP3    H266467   5.281   1.378  12.368 -0.9864  0.4547  0.5219
15018TIP3   OH266468   4.137   6.498  12.659  0.0699 -0.0791 -0.2675
15018TIP3    H166469   4.087   6.516  12.738  2.8374 -2.5165  2.1391
15018TIP3    H266470   4.198   6.571  12.652 -0.7880  0.6117 -0.7268
15019TIP3   OH266471   4.952   4.974   2.104  0.3529 -0.1964  0.2664
15019TIP3    H166472   5.007   4.993   2.028  3.7178  0.4392  2.7538
15019TIP3    H266473   4.928   5.060   2.137 -2.0458 -0.4732 -0.6761
15020TIP3   OH266474   0.347   3.068  15.003 -0.4689  0.0087  0.0153
15020TIP3    H166475   0.292   3.122  15.059 -0.2338  0.3479 -0.0828
15020TIP3    H266476   0.284   3.023  14.945 -0.8703 -1.9178  1.8860
15021TIP3   OH266477   3.837   6.453   1.830  0.0444 -0.7060 -0.2991
15021TIP3    H166478   3.893   6.379   1.807 -0.6005 -1.3219  0.0870
15021TIP3    H266479   3.877   6.528   1.787  0.5296 -1.3341 -0.9468
15022TIP3   OH266480   6.711   5.300   0.084 -0.1607  0.7074 -0.0810
15022TIP3    H166481   6.704   5.331  -0.007  0.9304  1.9001  0.2365
15022TIP3    H266482   6.656   5.222   0.086  1.0774 -0.2677 -2.1828
15023TIP3   OH266483   0.928   0.707   2.578 -0.4731  0.0751 -0.3425
15023TIP3    H166484   0.871   0.653   2.524 -2.4293  1.1139  0.6196
15023TIP3    H266485   0.910   0.679   2.667  0.7393  0.2222 -0.0522
15024TIP3   OH266486   4.915   2.366   4.274  0.2713  0.1063 -0.2929
15024TIP3    H166487   4.985   2.304   4.294 -1.6270 -0.7681  4.1128
15024TIP3    H266488   4.844   2.312   4.238 -0.4049  0.0737  1.0671
15025TIP3   OH266489   2.431   3.660   6.229  0.3434  0.1865 -0.2458
15025TIP3    H166490   2.360   3.697   6.282  0.0253  1.3085 -1.4417
15025TIP3    H266491   2.505   3.652   6.289  0.8445  4.0539 -0.2552
15026TIP3   OH266492   0.746   3.994  15.038 -0.6670 -0.0091  0.0746
15026TIP3    H166493   0.780   3.908  15.063 -2.0684 -0.8296 -0.7819
15026TIP3    H266494   0.660   3.976  15.000  1.0214  1.2058 -4.7293
15027TIP3   OH266495   0.387   0.210   0.249  0.7305 -0.6651  0.1094
15027TIP3    H166496   0.402   0.304   0.254  1.8138 -0.8358  0.1248
15027TIP3    H266497   0.398   0.179   0.339 -1.5462 -0.5373  0.4638
15028TIP3   OH266498   3.959   5.733   1.841  0.2296  0.4093 -0.4015
15028TIP3    H166499   3.932   5.708   1.753  0.5892 -0.0481 -0.3846
15028TIP3    H266500   3.879   5.730   1.892  0.0650  0.4151 -0.6600
15029TIP3   OH266501   6.059   2.632  15.309 -0.0745 -0.0329  0.3937
15029TIP3    H166502   6.008   2.693  15.256 -0.0796 -0.7378 -0.4191
15029TIP3    H266503   6.122   2.595  15.248  0.2227 -0.5102  0.9893
15030TIP3   OH266504   5.096   5.769   2.401 -0.1366 -0.5613  0.0189
15030TIP3    H166505   5.118   5.740   2.489 -0.3699 -1.6785 -0.2786
15030TIP3    H266506   5.153   5.717   2.344  0.3150  0.4482 -0.4770
15031TIP3   OH266507   0.408   6.081  13.059  0.0844 -0.0286 -0.0255
15031TIP3    H166508   0.393   5.987  13.061 -0.1617 -0.1026 -3.2075
15031TIP3    H266509   0.320   6.119  13.067  0.1429 -0.0660  0.8324
15032TIP3   OH266510   3.794   1.725  13.280 -0.6755  0.0278  0.4122
15032TIP3    H166511   3.843   1.675  13.345  0.8783  1.3079  0.2541
15032TIP3    H266512   3.788   1.666  13.204  1.1021  0.0504  0.2404
15033TIP3   OH266513   4.321   6.633   2.408 -0.2848 -0.0293 -0.2650
15033TIP3    H166514   4.250   6.695   2.391  1.7364  2.8363  1.2864
15033TIP3    H266515   4.386   6.651   2.340 -0.1641 -1.2383 -0.4780
15034TIP3   OH266516   2.004   6.403  12.523  0.5864 -0.4648 -0.5425
15034TIP3    H166517   2.052   6.481  12.494  1.0858 -0.4426  0.3561
15034TIP3    H266518   1.989   6.354  12.442  0.0100  0.7063 -1.1565
15035TIP3   OH266519   2.169   0.022  12.027 -0.0258  0.5340  0.1677
15035TIP3    H166520   2.196   0.018  11.936  3.6441  1.4588  1.1604
15035TIP3    H266521   2.207  -0.056  12.067  0.1575  1.2056  1.3380
15036TIP3   OH266522   3.858   0.357   2.266 -0.4810 -0.2258  0.2358
15036TIP3    H166523   3.866   0.439   2.314  0.4461  0.0272 -0.3415
15036TIP3    H266524   3.763   0.343   2.258 -0.6491  1.0351 -0.1072
15037TIP3   OH266525   1.552   2.397   0.728  0.0259 -0.2211 -0.2239
15037TIP3    H166526   1.540   2.306   0.756 -0.9651  0.2237  0.8122
15037TIP3    H266527   1.645   2.415   0.745 -0.0203 -0.7058  0.5359
15038TIP3   OH266528   5.445   5.268   5.102 -0.1969 -0.1103  1.0095
15038TIP3    H166529   5.359   5.242   5.136 -0.2371 -0.4695  0.6383
15038TIP3    H266530   5.477   5.190   5.056 -0.0681  0.3134  0.3813
15039TIP3   OH266531   3.845   0.625  11.341  0.3955  0.6630 -0.5278
15039TIP3    H166532   3.935   0.658  11.337  0.9457 -0.6749  0.5216
15039TIP3    H266533   3.829   0.589  11.254  0.1515  2.6832 -1.3592
15040TIP3   OH266534   5.712   1.735  16.660 -0.0974  0.0151 -0.1019
15040TIP3    H166535   5.637   1.681  16.685 -0.4631  0.0217 -1.1560
15040TIP3    H266536   5.674   1.806  16.607  0.0814  2.6359  3.1301
15041TIP3   OH266537   3.681   1.058   6.201 -0.3133 -0.1093 -0.1237
15041TIP3    H166538   3.586   1.053   6.210 -0.6654  0.6035 -2.9805
15041TIP3    H266539   3.701   1.151   6.208 -0.0538 -0.0620 -1.4138
15042TIP3   OH266540   2.550   0.960  12.367 -0.0936  0.1835  0.9886
15042TIP3    H166541   2.500   1.020  12.313  0.8734  1.5996  1.6442
15042TIP3    H266542   2.634   1.004  12.380  0.0572 -0.6105  2.7737
15043TIP3   OH266543   4.435   3.889  15.497 -0.3337  0.1269 -0.1525
15043TIP3    H166544   4.415   3.865  15.406 -0.2353 -1.1341  0.1396
15043TIP3    H266545   4.351   3.879  15.543 -0.1783 -0.1676  0.0730
15044TIP3   OH266546   6.220   5.397   5.308  0.9049  0.3565 -0.5185
15044TIP3    H166547   6.299   5.380   5.361 -0.3451 -0.7798  1.0441
15044TIP3    H266548   6.204   5.314   5.262 -0.4401 -0.0684  0.6597
15045TIP3   OH266549   5.973   4.828   1.017 -0.6343  0.5413  0.2614
15045TIP3    H166550   6.045   4.861   1.072 -0.2505 -0.8373  0.6199
15045TIP3    H266551   5.894   4.865   1.056 -0.1837  1.4101  0.3638
15046TIP3   OH266552   0.862   6.149  15.835  0.3347  0.6350 -0.8850
15046TIP3    H166553   0.846   6.237  15.870  0.6189 -0.1594  1.2770
15046TIP3    H266554   0.957   6.144  15.824  0.3950  0.2871 -0.1912
15047TIP3   OH266555   2.546   6.109   4.993  0.4036  0.7776 -0.8899
15047TIP3    H166556   2.604   6.164   4.941  0.9581  0.2617 -0.8302
15047TIP3    H266557   2.486   6.070   4.929 -0.4678  2.0261 -0.8363
15048TIP3   OH266558   3.052   5.063   2.940 -0.0314  0.1833  0.3684
15048TIP3    H166559   3.135   5.110   2.949 -0.4036  0.8484  0.3200
15048TIP3    H266560   3.071   4.975   2.973  0.7930  0.2193  0.0021
15049TIP3   OH266561   1.836   2.375  12.471  0.7536 -0.2097 -0.0871
15049TIP3    H166562   1.819   2.468  12.488  1.3595  0.0939 -1.1121
15049TIP3    H266563   1.822   2.365  12.377  0.9658 -1.1027 -0.0263
15050TIP3   OH266564   4.863   4.738   0.235 -0.2110  0.6745  0.3484
15050TIP3    H166565   4.859   4.814   0.292  1.0378  0.6224  0.5291
15050TIP3    H266566   4.809   4.672   0.279 -1.7650  1.6211 -0.1003
15051TIP3   OH266567   0.077   1.986   4.410  0.1656  0.4785 -0.0184
15051TIP3    H166568   0.079   1.936   4.329  1.9824 -0.6361  0.6915
15051TIP3    H266569  -0.001   1.953   4.456  0.3214 -0.3846 -0.3687
15052TIP3   OH266570   3.071   0.961  16.966  0.0035  0.2698 -0.3019
15052TIP3    H166571   3.057   0.963  16.871 -0.8882 -0.9663 -0.2184
15052TIP3    H266572   3.001   1.016  17.001  0.9189  1.5083 -0.4194
15053TIP3   OH266573   3.730   5.711  14.717 -0.5687 -0.5518  0.1533
15053TIP3    H166574   3.664   5.657  14.761 -2.1201 -0.0597 -1.5047
15053TIP3    H266575   3.794   5.649  14.684 -0.8618 -1.1474  0.6907
15054TIP3   OH266576   6.165   5.832  11.417  0.1801 -0.2423 -0.5462
15054TIP3    H166577   6.216   5.869  11.488  0.1845 -1.4894  0.1069
15054TIP3    H266578   6.228   5.820  11.345  0.4008 -0.0098 -0.3897
15055TIP3   OH266579   3.673   0.135  17.191 -0.0041  0.2239 -0.3469
15055TIP3    H166580   3.707   0.053  17.157  0.5928  0.2706  0.1368
15055TIP3    H266581   3.583   0.138  17.159 -0.4030 -1.1665  0.6060
15056TIP3   OH266582   5.180   3.374   4.523  0.5211 -0.0335  0.1319
15056TIP3    H166583   5.236   3.297   4.520 -0.8978 -1.1804  2.0347
15056TIP3    H266584   5.229   3.437   4.577  1.5688  0.3297 -1.2197
15057TIP3   OH266585   6.006   4.799   3.439 -0.1385  0.2462  0.5056
15057TIP3    H166586   5.946   4.796   3.514 -0.1206 -3.1991  0.4562
15057TIP3    H266587   5.950   4.822   3.365 -0.9981 -0.7184  0.8468
15058TIP3   OH266588   4.318   4.508  11.941  0.4433 -0.3320  0.3959
15058TIP3    H166589   4.282   4.518  11.853 -3.0295 -1.6348  1.5613
15058TIP3    H266590   4.368   4.427  11.938  3.0069  1.2291 -1.1193
15059TIP3   OH266591   1.060   1.352  13.379 -0.0350  0.0410 -0.1674
15059TIP3    H166592   1.019   1.295  13.444  0.3039 -2.1918 -1.8545
15059TIP3    H266593   1.151   1.322  13.375 -0.2185 -0.3189 -2.1435
15060TIP3   OH266594   6.116   4.766   3.024 -0.2115 -0.1791 -0.5178
15060TIP3    H166595   6.123   4.793   2.932 -0.7874  1.1627 -0.1881
15060TIP3    H266596   6.193   4.711   3.039 -0.1298 -0.4236 -1.8137
15061TIP3   OH266597   3.950   5.240  16.235 -0.9494 -0.6952  0.2263
15061TIP3    H166598   3.955   5.319  16.290 -0.4112  1.0797 -2.2931
15061TIP3    H266599   3.860   5.210  16.246 -1.2577  0.4381  0.9842
15062TIP3   OH266600   1.486   0.325   5.717  0.2142  0.1519 -0.5745
15062TIP3    H166601   1.519   0.270   5.646 -0.2392  0.2769 -0.8826
15062TIP3    H266602   1.505   0.414   5.689  0.3239  0.1861 -0.3915
15063TIP3   OH266603   3.396   0.345   4.002  0.1696 -0.0557 -0.4556
15063TIP3    H166604   3.338   0.411   4.041  1.0369  1.4312 -1.6086
15063TIP3    H266605   3.438   0.302   4.077 -2.2703 -1.0287  0.3742
15064TIP3   OH266606   0.418   0.316  10.316 -0.3579 -0.6571  0.2117
15064TIP3    H166607   0.371   0.293  10.396  0.8039 -2.7657  0.3179
15064TIP3    H266608   0.349   0.340  10.254 -1.2920  0.5246  1.6703
15065TIP3   OH266609   4.569   3.388   2.831 -0.1919  0.2943 -0.2160
15065TIP3    H166610   4.579   3.365   2.739 -1.5358 -1.3970  0.0520
15065TIP3    H266611   4.625   3.326   2.878  0.7880  1.3933  0.1032
15066TIP3   OH266612   1.009   4.474  16.884 -0.0890 -0.1040 -0.6759
15066TIP3    H166613   1.034   4.385  16.911  3.6094  0.9008 -0.5579
15066TIP3    H266614   0.992   4.466  16.790 -0.4843 -1.0613 -0.5342
15067TIP3   OH266615   2.203   3.270   0.853  0.2246  0.7343 -0.7391
15067TIP3    H166616   2.169   3.222   0.777  0.9653  0.4617 -0.9041
15067TIP3    H266617   2.223   3.202   0.917 -0.2082  0.9500 -0.3739
15068TIP3   OH266618   3.419   4.459  12.389 -0.3218 -0.9036 -0.5409
15068TIP3    H166619   3.338   4.415  12.415 -1.2550  1.6672  1.1137
15068TIP3    H266620   3.425   4.446  12.294 -1.9082 -2.3206 -0.4558
15069TIP3   OH266621   6.338   5.042   3.184 -0.0492 -0.5419 -0.2206
15069TIP3    H166622   6.370   5.030   3.094 -0.0108 -0.7452 -0.1795
15069TIP3    H266623   6.416   5.028   3.239  0.1405  0.5130 -0.2062
15070TIP3   OH266624   1.710   4.210  16.936  0.7373  0.5202  0.1510
15070TIP3    H166625   1.665   4.276  16.885  0.2598 -0.2548 -0.4282
15070TIP3    H266626   1.667   4.127  16.913  2.4338 -0.2261 -0.4138
15071TIP3   OH266627   0.409   1.453  15.732 -0.4950 -0.1501  0.8366
15071TIP3    H166628   0.326   1.458  15.684  0.1262  2.0211 -0.0580
15071TIP3    H266629   0.426   1.359  15.739 -1.2158 -0.5643 -2.1343
15072TIP3   OH266630   0.124   3.030  14.410 -0.3307  0.2636 -0.0029
15072TIP3    H166631   0.157   3.119  14.403 -1.2537  0.6415  0.4224
15072TIP3    H266632   0.185   2.978  14.358  1.0854  0.9122  0.9623
15073TIP3   OH266633   3.504   4.914  12.665  0.3054 -0.2352 -0.2538
15073TIP3    H166634   3.491   4.861  12.586  1.0259 -2.9368  1.4044
15073TIP3    H266635   3.422   4.905  12.714  0.7430 -0.4923  0.4346
15074TIP3   OH266636   0.759   2.395   5.953  0.2009  0.5258  0.3670
15074TIP3    H166637   0.825   2.443   5.904 -0.6833  0.7292 -0.6319
15074TIP3    H266638   0.779   2.303   5.938  0.5601  0.5867  0.4804
15075TIP3   OH266639   5.680   3.986  16.926  0.0818 -0.2052  0.5399
15075TIP3    H166640   5.622   4.054  16.961  0.4823  0.7129 -0.5220
15075TIP3    H266641   5.665   3.989  16.831  3.0512  1.2280  0.0414
15076TIP3   OH266642   2.200   5.357  16.801  0.2397 -0.4750  0.0568
15076TIP3    H166643   2.268   5.291  16.790  1.4753  0.6372  0.8142
15076TIP3    H266644   2.243   5.439  16.775 -1.2840  0.0274 -0.9439
15077TIP3   OH266645   1.647   3.237   1.699 -0.5729  0.2525 -0.2993
15077TIP3    H166646   1.574   3.190   1.659 -0.4799 -0.9706  0.9294
15077TIP3    H266647   1.624   3.330   1.688 -3.7052 -0.0977  2.5121
15078TIP3   OH266648   5.068   4.274  12.313 -0.4968 -0.2214 -0.2003
15078TIP3    H166649   5.001   4.219  12.273  0.2057 -0.7663 -0.6486
15078TIP3    H266650   5.028   4.306  12.394 -0.3741 -2.6727  0.8663
15079TIP3   OH266651   5.937   0.110   2.631 -0.1512 -0.4836  0.2678
15079TIP3    H166652   5.878   0.185   2.643  1.7050  1.3570 -1.6527
15079TIP3    H266653   5.905   0.069   2.550 -0.4882 -1.1552  0.7330
15080TIP3   OH266654   1.052   1.676   0.484  0.2712 -0.2604 -0.3097
15080TIP3    H166655   1.065   1.746   0.419 -0.3863  0.2123  0.0612
15080TIP3    H266656   0.975   1.629   0.454 -0.1593  0.0883  0.2363
15081TIP3   OH266657   1.423   4.839  10.845 -0.4944 -0.5864  0.5336
15081TIP3    H166658   1.335   4.813  10.818 -0.1556  1.0301 -2.2862
15081TIP3    H266659   1.417   4.932  10.864  0.3901 -0.6858  1.3965
15082TIP3   OH266660   4.829   6.007   4.214 -0.0492  0.0243  0.0678
15082TIP3    H166661   4.780   6.063   4.274 -0.0119 -0.3903  0.4867
15082TIP3    H266662   4.793   6.027   4.128 -2.1959 -1.5664  0.5630
15083TIP3   OH266663   2.547   1.443   5.974  0.1340  0.3919  0.0660
15083TIP3    H166664   2.546   1.513   6.040  0.7505 -0.2249  0.7466
15083TIP3    H266665   2.636   1.408   5.979  0.0208 -0.0011 -0.7374
15084TIP3   OH266666   6.037   4.026  10.841 -0.0476 -0.1294 -1.0131
15084TIP3    H166667   5.999   3.952  10.889  1.0249  0.5124  0.9028
15084TIP3    H266668   6.004   4.103  10.886  1.7400  0.4735 -0.7024
15085TIP3   OH266669   1.337   6.044   2.874  0.3547  0.0745 -0.4642
15085TIP3    H166670   1.316   6.060   2.967 -0.2099 -1.1050 -0.3830
15085TIP3    H266671   1.407   6.106   2.855 -0.0642  0.8787  0.5403
15086TIP3   OH266672   3.163   5.216   6.443  0.0705  0.4420  0.2582
15086TIP3    H166673   3.174   5.121   6.438 -1.9000  0.2606 -1.3722
15086TIP3    H266674   3.122   5.232   6.528  1.0621 -0.0923  0.8355
15087TIP3   OH266675   2.841   3.302  13.141  0.1114 -0.3152 -0.3212
15087TIP3    H166676   2.808   3.213  13.150 -2.3501  0.4878 -0.9537
15087TIP3    H266677   2.777   3.356  13.189  0.9905  1.2256 -0.8418
15088TIP3   OH266678   5.386   6.543   5.455 -0.0011  0.1835  0.4180
15088TIP3    H166679   5.356   6.532   5.545 -0.4868 -0.9662  0.1184
15088TIP3    H266680   5.339   6.621   5.424  0.8111  1.0933  1.4139
15089TIP3   OH266681   3.679   4.449   1.713 -0.0318 -0.0200  0.4610
15089TIP3    H166682   3.623   4.527   1.720 -0.3090 -0.1661 -0.0754
15089TIP3    H266683   3.756   4.470   1.766 -1.0783 -0.2602  2.1121
15090TIP3   OH266684   2.579   1.107  16.120 -0.1157 -0.4093 -0.1754
15090TIP3    H166685   2.638   1.167  16.076 -1.0675  0.7876  0.1532
15090TIP3    H266686   2.631   1.072  16.193  0.9113 -1.1202 -1.2307
15091TIP3   OH266687   4.996   1.352  13.201  0.7242 -0.4215 -0.3899
15091TIP3    H166688   5.072   1.293  13.202  0.1616 -1.2283 -2.4243
15091TIP3    H266689   5.033   1.438  13.179  1.1518 -0.6347 -0.5131
15092TIP3   OH266690   2.144   3.716  16.793  0.6961  0.2061  0.0586
15092TIP3    H166691   2.227   3.670  16.790  0.0669 -0.8616 -1.6442
15092TIP3    H266692   2.082   3.652  16.827  0.1018  0.2427 -0.9396
15093TIP3   OH266693   3.953   0.583  11.646 -0.2995 -0.7994  0.5386
15093TIP3    H166694   3.872   0.596  11.597  0.9047  0.9256 -1.0471
15093TIP3    H266695   3.981   0.494  11.623 -1.2187 -1.0469  0.3536
15094TIP3   OH266696   0.094   4.837  14.858  0.1374 -0.0289 -0.3917
15094TIP3    H166697   0.118   4.747  14.880 -0.3754  0.1508  0.9516
15094TIP3    H266698   0.112   4.887  14.937 -0.6170  0.8550 -0.7608
15095TIP3   OH266699   1.790   0.660  14.553 -0.1269  0.7945  0.3924
15095TIP3    H166700   1.877   0.641  14.515 -0.2942 -1.5987  1.1510
15095TIP3    H266701   1.733   0.670  14.477  0.4171  0.4072 -0.0721
15096TIP3   OH266702   0.551   5.780   0.112 -0.4271  0.7346  0.1396
15096TIP3    H166703   0.548   5.757   0.205  0.8604 -1.3983 -0.3158
15096TIP3    H266704   0.613   5.852   0.108  0.2359  0.2165  0.8317
15097TIP3   OH266705   1.449   6.295   0.591 -0.1448  0.2073 -0.5055
15097TIP3    H166706   1.484   6.383   0.593 -0.3636  0.2765  0.7599
15097TIP3    H266707   1.409   6.286   0.504  1.0546  0.8773 -1.1208
15098TIP3   OH266708   0.269   1.326   1.011  0.8296  0.3114 -0.5957
15098TIP3    H166709   0.243   1.325   0.919  0.8347  0.7556 -0.6017
15098TIP3    H266710   0.189   1.351   1.058  0.7551 -0.1746 -0.4516
15099TIP3   OH266711   6.581   0.742  14.761 -0.4357  0.2593 -0.3594
15099TIP3    H166712   6.493   0.705  14.753 -0.6603  0.5169  0.7325
15099TIP3    H266713   6.606   0.722  14.852  0.8104 -0.2065 -0.8021
15100TIP3   OH266714   4.171   0.599  13.791 -0.3656 -0.2697 -0.0268
15100TIP3    H166715   4.221   0.634  13.864  0.2209  1.1521 -1.0827
15100TIP3    H266716   4.220   0.521  13.764  1.2361  1.0095 -0.9362
15101TIP3   OH266717   3.379   6.320  14.175  0.3748  0.4090  0.5455
15101TIP3    H166718   3.368   6.332  14.081  1.3205  0.1503  0.3903
15101TIP3    H266719   3.453   6.376  14.197  1.3772 -0.9762  0.7864
15102TIP3   OH266720   5.118   0.608   5.666 -0.0228  0.2840  0.6433
15102TIP3    H166721   5.052   0.546   5.695 -0.6416  0.5543 -0.1859
15102TIP3    H266722   5.167   0.630   5.746 -0.4610 -0.4684  1.1227
15103TIP3   OH266723   1.011   5.730  15.599 -0.2439 -0.0536  0.3063
15103TIP3    H166724   0.970   5.808  15.561 -2.4482 -1.3004  0.0561
15103TIP3    H266725   1.082   5.708  15.538  0.4130  1.7598  0.4061
15104TIP3   OH266726   4.393   5.738  14.933 -0.0135 -0.4293  1.1238
15104TIP3    H166727   4.327   5.781  14.988  0.0692 -0.2484  1.0830
15104TIP3    H266728   4.345   5.710  14.856  0.8781  4.2928 -1.3476
15105TIP3   OH266729   6.228   4.931   0.494  0.1873  0.4063 -0.6233
15105TIP3    H166730   6.305   4.981   0.521  0.1366 -0.0676  0.4452
15105TIP3    H266731   6.164   4.948   0.563 -0.3760  0.1301 -1.0765
15106TIP3   OH266732   1.937   3.249   1.753  0.2178  0.1313 -0.0878
15106TIP3    H166733   1.868   3.228   1.691 -0.3863 -2.4335  1.3703
15106TIP3    H266734   1.892   3.284   1.829  0.8743  2.2967 -0.6672
15107TIP3   OH266735   5.186   4.901  14.055 -0.0153  0.2876 -0.0052
15107TIP3    H166736   5.106   4.853  14.078  1.1221 -1.1185  1.0350
15107TIP3    H266737   5.208   4.870  13.967  0.1731 -0.3807  0.2760
15108TIP3   OH266738   1.446   6.222  11.986 -0.1928 -0.2456 -0.0087
15108TIP3    H166739   1.485   6.282  11.923  0.3894  0.4992  1.0365
15108TIP3    H266740   1.407   6.279  12.052  1.0986 -1.0017  1.4449
15109TIP3   OH266741   0.036   2.337  11.881 -0.2140  0.4101  0.0835
15109TIP3    H166742   0.108   2.364  11.825 -0.7837  1.2029 -0.2802
15109TIP3    H266743  -0.033   2.310  11.821 -0.4200  0.1744  0.4203
15110TIP3   OH266744   1.650   0.638   2.358  0.2521 -0.0929  0.0018
15110TIP3    H166745   1.576   0.670   2.306  1.7893 -0.4736 -2.5462
15110TIP3    H266746   1.700   0.717   2.379  0.3471 -0.0850 -0.2553
15111TIP3   OH266747   2.079   0.113   5.237  0.1000  1.0880 -0.2502
15111TIP3    H166748   2.014   0.183   5.228 -0.2072  1.0030  1.1932
15111TIP3    H266749   2.161   0.155   5.212 -0.1714  1.8255  0.0488
15112TIP3   OH266750   6.090   1.304   4.233 -0.0185  0.1435 -0.1982
15112TIP3    H166751   6.182   1.309   4.207  0.4065 -1.5541  0.9069
15112TIP3    H266752   6.077   1.383   4.286  0.2193  1.4686 -2.0615
15113TIP3   OH266753   0.693   1.540   0.642 -0.3251 -0.3343  0.1687
15113TIP3    H166754   0.671   1.633   0.646 -1.7436 -0.6643  0.4327
15113TIP3    H266755   0.740   1.530   0.559 -1.6666  0.3260 -0.6969
15114TIP3   OH266756   2.144   1.771   5.044 -0.5212  0.4345 -0.0960
15114TIP3    H166757   2.178   1.682   5.042 -2.0085 -0.1372 -1.2777
15114TIP3    H266758   2.093   1.776   5.124  2.3170  1.3308  1.7483
15115TIP3   OH266759   5.950   2.710  15.004 -0.2983 -0.5432 -0.6277
15115TIP3    H166760   5.957   2.688  14.911  0.9772 -1.5989 -0.3098
15115TIP3    H266761   6.006   2.787  15.015 -0.4814 -0.3939 -0.7461
15116TIP3   OH266762   3.326   3.660  13.564 -0.3700  0.1708  0.5440
15116TIP3    H166763   3.263   3.665  13.492 -1.4727 -2.3804  1.2823
15116TIP3    H266764   3.275   3.632  13.639  1.1382  0.8554  1.8610
15117TIP3   OH266765   6.092   3.030  13.363 -0.7414 -0.0498  0.1551
15117TIP3    H166766   6.081   2.944  13.321  0.0204 -1.4043  2.5714
15117TIP3    H266767   6.147   3.012  13.439  0.9462  2.9439 -0.2974
15118TIP3   OH266768   2.219   2.964  11.510 -0.7063 -0.2924  0.4347
15118TIP3    H166769   2.191   3.053  11.529 -0.1265  0.1124 -0.5701
15118TIP3    H266770   2.202   2.953  11.417  0.1783 -0.8837  0.3405
15119TIP3   OH266771   0.183   1.243  10.623  0.4902  0.0581  0.1041
15119TIP3    H166772   0.243   1.299  10.574  0.5067  0.2821  0.3741
15119TIP3    H266773   0.118   1.304  10.659 -0.6591 -0.3368 -1.2689
15120TIP3   OH266774   4.009   4.999   6.091  0.1677  0.4143  0.2253
15120TIP3    H166775   4.053   5.084   6.096  1.1235 -0.1156  1.2756
15120TIP3    H266776   4.077   4.939   6.058 -0.7244  0.2048 -1.2689
15121TIP3   OH266777   1.535   4.891  16.148 -0.1670 -0.0505  0.4205
15121TIP3    H166778   1.576   4.828  16.206  1.3173 -0.0441 -0.6023
15121TIP3    H266779   1.574   4.975  16.171 -0.7720  0.2156  0.5037
15122TIP3   OH266780   0.239   4.421  13.674  0.2479 -0.0115  0.1841
15122TIP3    H166781   0.158   4.375  13.651  1.1163 -1.1060 -0.7666
15122TIP3    H266782   0.212   4.486  13.739 -1.9173  1.7491 -2.3785
15123TIP3   OH266783   3.356   4.424   2.973 -0.4391  0.6061  0.1964
15123TIP3    H166784   3.264   4.437   2.994 -0.6029 -1.0145  0.5476
15123TIP3    H266785   3.401   4.427   3.057  0.0298  2.7456 -0.0946
15124TIP3   OH266786   4.172   5.263   3.795  0.2687 -0.4520 -0.1494
15124TIP3    H166787   4.172   5.172   3.822  0.8886 -0.9630 -1.7648
15124TIP3    H266788   4.117   5.265   3.716 -2.0451  1.0882  1.4491
15125TIP3   OH266789   0.728   5.676   1.368 -0.2811  0.0093 -0.2305
15125TIP3    H166790   0.692   5.763   1.356 -0.6541 -0.3035 -1.4761
15125TIP3    H266791   0.756   5.649   1.280 -1.1447 -1.5429 -0.0498
15126TIP3   OH266792   1.176   6.232   4.574 -0.3420  0.1540 -0.1293
15126TIP3    H166793   1.165   6.185   4.491  0.1461 -2.1074  1.0569
15126TIP3    H266794   1.151   6.168   4.641 -1.7641  2.2884  1.4269
15127TIP3   OH266795   6.780   0.923   2.548  0.2742 -0.3711  0.5437
15127TIP3    H166796   6.711   0.971   2.592 -0.9047 -0.6997 -0.8904
15127TIP3    H266797   6.781   0.837   2.590  1.5575  0.4555  2.2749
15128TIP3   OH266798   5.371   0.387   2.757  0.2339 -0.3282  0.5743
15128TIP3    H166799   5.438   0.455   2.767 -0.3051  0.1087  1.2871
15128TIP3    H266800   5.290   0.428   2.788 -0.8320 -0.0944 -2.3632
15129TIP3   OH266801   0.950   2.754   0.088  0.2848 -0.2505  0.4069
15129TIP3    H166802   0.904   2.739   0.171 -0.4137 -2.1882 -0.3149
15129TIP3    H266803   1.029   2.801   0.113  0.0161 -0.6867  2.1540
15130TIP3   OH266804   0.595   4.036  11.274 -0.5422 -0.3440  0.2432
15130TIP3    H166805   0.674   4.087  11.257 -0.0869 -0.9888  0.3699
15130TIP3    H266806   0.622   3.945  11.256 -0.9902 -0.6644  1.1516
15131TIP3   OH266807   0.137   6.065   0.381 -0.6337  0.2344 -0.6254
15131TIP3    H166808   0.144   6.102   0.470 -1.3480 -2.1081  0.4379
15131TIP3    H266809   0.151   6.140   0.323 -1.6297  2.1050  1.4605
15132TIP3   OH266810   3.016   3.745   5.435 -0.2787  0.2985 -0.2692
15132TIP3    H166811   3.073   3.671   5.456 -0.0742  0.2725 -0.9282
15132TIP3    H266812   3.018   3.799   5.515 -0.3724 -0.3625  0.1860
15133TIP3   OH266813   6.622   6.600   2.078 -0.0966  0.1991 -0.0504
15133TIP3    H166814   6.617   6.539   2.152 -0.2736 -0.3649 -0.5270
15133TIP3    H266815   6.531   6.621   2.057 -0.0332  0.8840  0.3136
15134TIP3   OH266816   5.830   2.228  16.419  0.6487 -0.4607  0.2080
15134TIP3    H166817   5.906   2.179  16.386  0.3519 -0.7037 -0.1129
15134TIP3    H266818   5.849   2.319  16.396  2.1341 -0.1087  2.5377
15135TIP3   OH266819   3.095   6.695   3.553  0.0611 -0.0536 -0.1694
15135TIP3    H166820   3.050   6.779   3.549  2.9148  1.4676 -1.8075
15135TIP3    H266821   3.101   6.676   3.646  0.1835  2.0148  0.2680
15136TIP3   OH266822   0.501   0.457   0.301 -0.3648  0.0290 -0.1555
15136TIP3    H166823   0.492   0.501   0.217 -0.7629 -1.9192 -1.1644
15136TIP3    H266824   0.469   0.521   0.365  1.5671  2.1845 -1.2636
15137TIP3   OH266825   2.588   2.988   3.598 -0.0725  0.3238 -0.0386
15137TIP3    H166826   2.627   2.983   3.511  1.7833  3.4650  0.5360
15137TIP3    H266827   2.503   3.030   3.584 -0.2264 -0.1258 -0.4551
15138TIP3   OH266828   0.401   1.854  13.206 -0.5995 -0.4852 -0.5878
15138TIP3    H166829   0.352   1.893  13.279  1.5558  1.1982  0.0055
15138TIP3    H266830   0.336   1.846  13.135 -1.8411  1.2474  0.3268
15139TIP3   OH266831   3.282   3.737   4.064  0.1814  0.0010  0.3621
15139TIP3    H166832   3.240   3.659   4.100  0.8831 -0.1757  0.7939
15139TIP3    H266833   3.364   3.745   4.112  0.3466  0.7182 -0.0323
15140TIP3   OH266834   1.290   1.598  14.278 -0.1364  0.4650 -0.6526
15140TIP3    H166835   1.216   1.658  14.285  1.8463  3.0215 -0.5166
15140TIP3    H266836   1.336   1.607  14.362  1.0156 -0.1328 -1.2105
15141TIP3   OH266837   1.188   4.172   3.458  0.2786 -0.6771 -0.1484
15141TIP3    H166838   1.131   4.225   3.402 -0.8362  0.8269  2.3398
15141TIP3    H266839   1.162   4.082   3.440 -1.7856 -0.0879 -0.2444
15142TIP3   OH266840   0.610   0.764  11.623  0.7652 -0.1450 -0.3464
15142TIP3    H166841   0.694   0.803  11.650  1.0587 -1.0038 -0.0210
15142TIP3    H266842   0.584   0.815  11.546  0.1784  1.9736  1.2174
15143TIP3   OH266843   6.418   5.149  16.396  0.1966 -0.4640 -0.3332
15143TIP3    H166844   6.343   5.144  16.337  0.4445 -0.5896 -0.6424
15143TIP3    H266845   6.465   5.227  16.368  0.4861 -0.6987 -0.5137
15144TIP3   OH266846   0.983   6.099  16.471 -0.0883  0.1517 -0.2400
15144TIP3    H166847   1.053   6.033  16.469  0.7956  0.9987  1.8207
15144TIP3    H266848   0.920   6.065  16.534 -2.0284 -1.0195 -2.6976
15145TIP3   OH266849   4.921   4.044  16.871  0.3052  0.3455 -0.4207
15145TIP3    H166850   4.970   4.123  16.851 -0.5874  0.4170 -2.4651
15145TIP3    H266851   4.977   3.973  16.839 -0.1324  0.3309 -1.1773
15146TIP3   OH266852   1.320   2.701   1.128 -0.4019 -0.5282  0.0757
15146TIP3    H166853   1.362   2.787   1.129  1.6401 -1.4881 -0.1947
15146TIP3    H266854   1.328   2.670   1.218  0.3107 -1.0945 -0.1767
15147TIP3   OH266855   0.866   3.201  11.073  0.5599  0.3325  0.0959
15147TIP3    H166856   0.899   3.128  11.021  0.1730  0.0463  0.2561
15147TIP3    H266857   0.834   3.162  11.154 -0.4877  0.5600 -0.1925
15148TIP3   OH266858   5.633   6.389  11.732  0.5428  0.7415  0.4739
15148TIP3    H166859   5.627   6.421  11.822 -1.2123  0.9117  0.3175
15148TIP3    H266860   5.613   6.296  11.738 -2.2681  1.2535 -0.0261
15149TIP3   OH266861   1.031   4.513   5.067 -0.2033  0.6277 -0.7934
15149TIP3    H166862   1.116   4.505   5.025 -0.0926  0.3933 -0.5307
15149TIP3    H266863   1.040   4.464   5.149 -0.7353  0.1929 -0.9876
15150TIP3   OH266864   1.267   1.076   1.992  0.4596  0.1776 -0.4369
15150TIP3    H166865   1.242   0.991   2.028 -2.0959  0.3034 -1.7718
15150TIP3    H266866   1.280   1.060   1.899  0.0256  1.2121 -0.6839
15151TIP3   OH266867   4.671   3.109  16.996  0.1650 -0.4184 -0.3587
15151TIP3    H166868   4.603   3.092  16.931  0.4712  0.1357 -0.8319
15151TIP3    H266869   4.698   3.023  17.027 -1.7265 -0.6225  0.8675
15152TIP3   OH266870   0.037   0.712   3.595 -0.5337  0.4188  0.0982
15152TIP3    H166871   0.129   0.739   3.595 -0.7983  1.3452  0.1985
15152TIP3    H266872   0.035   0.632   3.648  0.2412  0.2924 -0.0579
15153TIP3   OH266873   3.900   4.956   4.271  0.1383  0.4615 -0.2379
15153TIP3    H166874   3.809   4.986   4.274  0.1081  0.3232  0.3018
15153TIP3    H266875   3.900   4.874   4.320 -0.0088 -1.0484 -2.7052
15154TIP3   OH266876   4.981   3.199   3.711 -0.1529 -0.0820 -0.3947
15154TIP3    H166877   5.041   3.141   3.665 -0.2255  0.3633 -1.0678
15154TIP3    H266878   5.034   3.243   3.777 -0.0003 -0.5805 -0.1919
15155TIP3   OH266879   4.077   3.412  11.759 -0.5358  0.0963 -1.3119
15155TIP3    H166880   4.097   3.383  11.848  1.3451  1.2719 -1.3270
15155TIP3    H266881   3.981   3.407  11.753 -0.5356 -1.9875  0.0734
15156TIP3   OH266882   4.630   2.208  15.145  0.6146  0.0568 -0.3387
15156TIP3    H166883   4.650   2.246  15.060  1.2511 -1.6747 -0.9747
15156TIP3    H266884   4.714   2.173  15.176  0.0075 -1.0220  0.1281
15157TIP3   OH266885   1.122   2.165  13.343 -0.7912  0.6789  0.5635
15157TIP3    H166886   1.150   2.092  13.288 -0.5711 -0.7151  2.4649
15157TIP3    H266887   1.192   2.230  13.334  0.3939 -0.5033  1.0011
15158TIP3   OH266888   5.090   2.634   0.029 -0.3856  0.1729 -0.2084
15158TIP3    H166889   5.158   2.585  -0.016  0.6720  1.6425 -0.2634
15158TIP3    H266890   5.127   2.653   0.115  0.1412  2.7697 -0.9636
15159TIP3   OH266891   1.324   5.117  14.947  0.3398  0.4530  0.3649
15159TIP3    H166892   1.392   5.050  14.957  0.6233  0.6458 -0.2027
15159TIP3    H266893   1.354   5.190  15.001  1.4408  1.1779 -1.1840
15160TIP3   OH266894   1.471   2.361   3.999  0.2635  0.0804  0.2326
15160TIP3    H166895   1.559   2.390   4.022  1.0224 -0.8879 -1.4176
15160TIP3    H266896   1.463   2.274   4.038  1.0110 -0.9383 -1.8421
15161TIP3   OH266897   6.339   1.175  11.324  0.5791  0.2878 -0.7276
15161TIP3    H166898   6.413   1.167  11.263  0.2694  1.6256 -1.2967
15161TIP3    H266899   6.283   1.242  11.285  1.2690  2.4930  1.9247
15162TIP3   OH266900   4.073   3.016   5.487 -0.1709  0.3416 -0.4492
15162TIP3    H166901   3.989   2.974   5.504 -0.2624  0.3554 -0.8478
15162TIP3    H266902   4.049   3.103   5.454  0.0426  1.6828  2.8244
15163TIP3   OH266903   0.336   4.072   1.399  0.3595 -0.2844 -0.2767
15163TIP3    H166904   0.351   4.140   1.465  0.8767  0.6657 -1.3514
15163TIP3    H266905   0.313   4.120   1.319  1.1822 -1.3430 -1.1803
15164TIP3   OH266906   5.960   1.132   0.086  0.1654  0.1835 -0.2498
15164TIP3    H166907   6.007   1.171   0.012  1.4060 -1.4406 -0.3404
15164TIP3    H266908   6.027   1.086   0.136 -0.9068  0.0469  1.1049
15165TIP3   OH266909   2.924   5.058   4.034 -0.2544 -0.2343  0.5598
15165TIP3    H166910   2.989   5.051   3.964 -0.5209 -1.4152  0.4253
15165TIP3    H266911   2.929   4.975   4.081 -0.9980  0.0411  1.1457
15166TIP3   OH266912   3.725   4.785  15.585  0.4632 -0.1096 -1.1599
15166TIP3    H166913   3.759   4.787  15.675 -2.4938  0.6150 -0.0004
15166TIP3    H266914   3.718   4.877  15.560 -0.2438 -0.2596 -1.5236
15167TIP3   OH266915   3.527   4.474  15.255 -0.0542  0.7787  0.0198
15167TIP3    H166916   3.611   4.471  15.300 -0.0684 -1.0940 -0.0427
15167TIP3    H266917   3.462   4.479  15.326 -0.0026 -0.4697  0.1596
15168TIP3   OH266918   4.892   6.562  15.815  0.2889 -0.7950  0.4059
15168TIP3    H166919   4.890   6.467  15.829  0.6852 -0.8419  0.1404
15168TIP3    H266920   4.971   6.591  15.861 -0.3828 -0.4499  1.3628
15169TIP3   OH266921   4.129   4.170  15.579 -0.5357  0.3403 -0.2748
15169TIP3    H166922   4.076   4.207  15.509  0.6729 -0.3684 -1.6005
15169TIP3    H266923   4.191   4.239  15.602 -1.1677  0.6998  0.3406
15170TIP3   OH266924   2.278   3.045   5.924  0.3761 -0.4374 -0.2302
15170TIP3    H166925   2.189   3.065   5.893  0.4743 -0.6715 -0.6589
15170TIP3    H266926   2.334   3.060   5.848  0.8106  0.5222  0.2656
15171TIP3   OH266927   1.379   4.613  12.157 -0.0929  0.2002 -0.3348
15171TIP3    H166928   1.308   4.632  12.096 -0.5319  1.1551  0.4620
15171TIP3    H266929   1.391   4.695  12.205 -0.2236 -0.7524  1.3356
15172TIP3   OH266930   3.212   0.978  14.935 -0.0799  0.0922 -0.6530
15172TIP3    H166931   3.269   1.002  15.007 -0.4269 -0.7714 -0.0784
15172TIP3    H266932   3.249   1.021  14.858  1.2342 -0.3142 -0.2539
15173TIP3   OH266933   2.338   3.229   5.735  0.0654 -0.1666  0.4417
15173TIP3    H166934   2.390   3.305   5.707 -0.2341  0.7145  2.2202
15173TIP3    H266935   2.254   3.241   5.690 -0.3690  1.1757  1.5633
15174TIP3   OH266936   1.788   0.010   6.250  0.7102  0.1022 -0.4622
15174TIP3    H166937   1.718  -0.034   6.298  1.8542 -0.1310  1.0398
15174TIP3    H266938   1.814  -0.053   6.182  2.3709 -1.6647  1.6955
15175TIP3   OH266939   1.331   0.966  14.133 -0.4129  0.1343  0.2375
15175TIP3    H166940   1.255   0.992  14.186  0.0421 -0.5618  1.2385
15175TIP3    H266941   1.304   0.986  14.043 -1.9856 -0.5686  0.5220
15176TIP3   OH266942   4.820   0.388  15.295  0.1542  0.0742  0.2369
15176TIP3    H166943   4.763   0.431  15.231  1.1743 -1.7860 -2.0085
15176TIP3    H266944   4.776   0.305  15.314  0.1346  0.3758  1.5666
15177TIP3   OH266945   2.032   0.452  12.453 -0.0336  0.3627 -0.1470
15177TIP3    H166946   2.068   0.485  12.371  1.1539 -0.5969 -0.0332
15177TIP3    H266947   1.981   0.375  12.429  0.5950 -0.1177  0.0518
15178TIP3   OH266948   2.513   3.607   2.462  0.3403  0.4059 -0.5009
15178TIP3    H166949   2.557   3.552   2.526  0.2074 -0.0925 -0.8298
15178TIP3    H266950   2.454   3.661   2.514  0.5361  0.2987 -0.1636
15179TIP3   OH266951   0.273   4.636   4.676 -0.2565 -0.1604  0.0357
15179TIP3    H166952   0.242   4.718   4.712 -0.7369 -0.3468  0.0486
15179TIP3    H266953   0.227   4.627   4.592 -1.2978 -1.1130  0.6906
15180TIP3   OH266954   4.992   4.992   0.270 -0.3247  0.2745 -0.1292
15180TIP3    H166955   5.024   4.943   0.194 -0.0541  0.9540 -0.4591
15180TIP3    H266956   4.960   5.075   0.234  0.8219  1.0664  0.6107
15181TIP3   OH266957   4.222   1.536  14.944 -0.0346  1.0415 -0.2235
15181TIP3    H166958   4.316   1.548  14.956  0.4230 -1.1426 -1.4362
15181TIP3    H266959   4.199   1.463  15.001 -1.1919  2.0799  0.6936
15182TIP3   OH266960   5.881   3.879  11.000 -0.0139 -0.3563  0.0990
15182TIP3    H166961   5.817   3.829  10.949  0.7772 -1.8300  0.5022
15182TIP3    H266962   5.829   3.922  11.068 -0.6374 -1.3161  0.2561
15183TIP3   OH266963   5.097   5.214  15.898  0.0320  0.4297  0.0358
15183TIP3    H166964   5.165   5.166  15.945  0.5266  0.7514 -0.3416
15183TIP3    H266965   5.104   5.184  15.808  1.8541  2.8290 -0.6784
15184TIP3   OH266966   4.874   4.899   4.587  0.3800 -0.0564  1.4600
15184TIP3    H166967   4.804   4.893   4.653 -1.5112  0.9069 -0.4102
15184TIP3    H266968   4.848   4.837   4.519  1.2039  0.5375  0.6010
15185TIP3   OH266969   5.914   0.512  14.051 -0.1935  0.5043 -0.7634
15185TIP3    H166970   5.868   0.543  13.973  0.1695  0.4371 -1.0072
15185TIP3    H266971   6.006   0.535  14.035 -0.3089  1.7612  0.2656
15186TIP3   OH266972   2.674   5.008  12.497 -0.3123 -0.0875  0.2396
15186TIP3    H166973   2.588   5.046  12.515  0.0697  0.2053  1.4562
15186TIP3    H266974   2.666   4.916  12.522 -0.0926  0.0810  0.9411
15187TIP3   OH266975   6.425   4.248  11.761  0.7381  0.1193 -0.4026
15187TIP3    H166976   6.438   4.302  11.683  1.8064  0.5490  0.0687
15187TIP3    H266977   6.441   4.308  11.834 -2.0586  0.2015  0.1938
15188TIP3   OH266978   0.747   4.275   1.196  0.1487  0.0857  0.1751
15188TIP3    H166979   0.809   4.347   1.197 -0.1647  0.4650 -3.2075
15188TIP3    H266980   0.799   4.198   1.219  1.1656  0.8746  0.5473
15189TIP3   OH266981   0.910   0.911   1.993  0.0779 -0.1804 -0.0106
15189TIP3    H166982   0.868   0.981   1.944  0.9830  1.7392  1.8701
15189TIP3    H266983   0.839   0.854   2.020 -0.8462  0.8748 -0.2024
15190TIP3   OH266984   2.158   6.119  15.013  0.1661  0.7441  0.4856
15190TIP3    H166985   2.221   6.187  15.034 -0.1007  1.6441 -1.5107
15190TIP3    H266986   2.203   6.037  15.031  0.9731  1.4208  1.5815
15191TIP3   OH266987   1.382   2.008  12.442 -0.8305 -0.5229 -0.3822
15191TIP3    H166988   1.351   2.097  12.428 -1.4680 -0.7073 -0.1741
15191TIP3    H266989   1.328   1.975  12.514  0.1454 -0.7077  0.2716
15192TIP3   OH266990   1.773   0.177  16.161 -1.0070 -0.1030 -0.0180
15192TIP3    H166991   1.832   0.110  16.126 -0.4962 -0.2199  1.0127
15192TIP3    H266992   1.817   0.260  16.143 -1.0050 -0.1290 -0.1319
15193TIP3   OH266993   6.397   1.178   3.488  0.3876  0.5993 -0.3688
15193TIP3    H166994   6.358   1.154   3.404  0.9816  2.5047 -1.2027
15193TIP3    H266995   6.477   1.124   3.493  0.4150  0.5746 -1.0759
15194TIP3   OH266996   2.769   4.800  13.813  0.1095  0.7985  0.2111
15194TIP3    H166997   2.707   4.854  13.862  0.2116  0.4566  0.7077
15194TIP3    H266998   2.832   4.863  13.778 -0.1510  1.0753  0.2361
15195TIP3   OH266999   2.688   6.021  12.312  0.0795 -0.3089  0.1738
15195TIP3    H167000   2.620   6.042  12.376  0.9328 -0.3280  1.1150
15195TIP3    H267001   2.640   5.992  12.234 -0.9971  0.6304  0.4733
15196TIP3   OH267002   3.476   2.806  16.768  0.1578 -0.0594  0.2672
15196TIP3    H167003   3.489   2.832  16.859 -0.5448 -1.4834  0.7928
15196TIP3    H267004   3.523   2.872  16.717  2.7026 -0.6448  1.7766
15197TIP3   OH267005   2.393   1.206   4.046  0.2342  0.1542  0.4601
15197TIP3    H167006   2.338   1.272   4.004  0.4295 -0.3279 -0.5498
15197TIP3    H267007   2.480   1.245   4.047  0.2565  0.1065  0.3048
15198TIP3   OH267008   5.000   0.423   5.473 -0.0147 -0.8032 -0.6011
15198TIP3    H167009   5.017   0.475   5.551  1.0723  0.0328 -1.3769
15198TIP3    H267010   4.905   0.412   5.472 -0.1020 -0.2063  0.4484
15199TIP3   OH267011   3.123   2.775   5.821 -0.0614 -0.2963  0.7390
15199TIP3    H167012   3.072   2.704   5.780 -1.1837 -0.0594  1.7108
15199TIP3    H267013   3.189   2.797   5.755 -0.2533 -1.6415  0.0621
15200TIP3   OH267014   0.212   3.256   2.223 -0.1551  0.4218  0.3493
15200TIP3    H167015   0.250   3.314   2.157  1.6555  0.1515  1.1170
15200TIP3    H267016   0.191   3.175   2.177 -0.8102  0.9557 -0.3021
15201TIP3   OH267017   4.907   6.249   4.547 -0.5196  0.1326  0.2862
15201TIP3    H167018   4.984   6.196   4.525 -0.2659  0.5378  0.1876
15201TIP3    H267019   4.888   6.296   4.466 -0.6652  0.2909  0.4138
15202TIP3   OH267020   1.510   2.692   3.418 -0.0522  0.1491  0.5161
15202TIP3    H167021   1.477   2.773   3.379  0.5205  0.8540  1.4529
15202TIP3    H267022   1.440   2.628   3.406 -0.0900  0.4848 -1.1824
15203TIP3   OH267023   4.397   1.192   2.585 -0.2150  0.4827  0.1441
15203TIP3    H167024   4.374   1.252   2.514 -0.2705 -0.6429 -0.8281
15203TIP3    H267025   4.342   1.115   2.569  0.6653 -0.2663  0.6979
15204TIP3   OH267026   3.538   0.334   2.588  0.2421 -0.0206  0.7944
15204TIP3    H167027   3.493   0.387   2.653 -1.0199 -0.4175  0.2451
15204TIP3    H267028   3.477   0.328   2.515  1.4598  0.0245 -0.2366
15205TIP3   OH267029   4.471   5.195   5.937 -0.4937  0.2491  0.2057
15205TIP3    H167030   4.525   5.271   5.916  1.8268 -1.7370 -1.2919
15205TIP3    H267031   4.416   5.182   5.860  0.3970 -0.6366 -0.2946
15206TIP3   OH267032   6.027   2.813  10.584  0.3131 -0.1804  0.1137
15206TIP3    H167033   6.108   2.835  10.538 -0.1066  0.4784 -0.3321
15206TIP3    H267034   6.023   2.718  10.582  1.2178 -0.2254  0.3910
15207TIP3   OH267035   2.707   5.530  16.481 -0.1213 -0.4405  0.0522
15207TIP3    H167036   2.678   5.446  16.518  1.1175 -0.3115  1.3590
15207TIP3    H267037   2.628   5.567  16.441 -0.8618 -1.8548  0.1708
15208TIP3   OH267038   1.176   1.748  11.134 -0.2201  0.3708  0.0230
15208TIP3    H167039   1.199   1.712  11.049  1.3609 -0.1739  0.6509
15208TIP3    H267040   1.089   1.786  11.122 -1.1104 -1.9336 -1.1840
15209TIP3   OH267041   6.067   3.019   5.405  0.3252 -0.3941  0.4686
15209TIP3    H167042   6.004   3.033   5.475  0.9145 -0.2713  0.9772
15209TIP3    H267043   6.146   3.064   5.434  1.2335 -2.0878  0.6759
15210TIP3   OH267044   1.096   5.808   2.523 -0.0915 -0.2213 -0.3896
15210TIP3    H167045   1.163   5.794   2.590  0.5605 -0.3967 -1.0672
15210TIP3    H267046   1.086   5.903   2.519  1.1509 -0.1198 -1.2802
15211TIP3   OH267047   6.520   5.287   0.705  0.4721  0.4311 -0.1857
15211TIP3    H167048   6.573   5.338   0.765 -0.2029  0.7889  0.1164
15211TIP3    H267049   6.432   5.326   0.711  0.4174  0.5481 -1.4855
15212TIP3   OH267050   1.944   4.654   1.894  0.0721 -0.3256  0.2164
15212TIP3    H167051   2.017   4.592   1.894  0.6699  0.3652 -0.2380
15212TIP3    H267052   1.949   4.696   1.808 -0.2281  0.4557  0.5784
15213TIP3   OH267053   0.824   5.807   0.886  0.1125 -0.2772  0.2964
15213TIP3    H167054   0.917   5.801   0.866 -0.1882  1.4034 -1.7884
15213TIP3    H267055   0.821   5.832   0.978  1.7360 -0.3005  0.3749
15214TIP3   OH267056   4.609   4.178  11.456  0.2441 -0.1753  0.4158
15214TIP3    H167057   4.664   4.257  11.461 -1.0613  0.6754  2.1490
15214TIP3    H267058   4.659   4.111  11.503  1.2305 -0.3133 -0.8084
15215TIP3   OH267059   5.509   5.801   1.409  0.0656 -0.2011 -0.5878
15215TIP3    H167060   5.458   5.720   1.415 -1.0590  0.6096  1.1047
15215TIP3    H267061   5.585   5.777   1.356 -0.4759 -2.2383 -0.4968
15216TIP3   OH267062   2.337   3.906   5.737  0.0244 -0.6340  0.7120
15216TIP3    H167063   2.312   3.978   5.679  0.2906 -0.3462  0.9461
15216TIP3    H267064   2.255   3.863   5.759  0.0597 -1.5960 -0.9866
15217TIP3   OH267065   3.916   1.733   1.449 -0.4580 -0.8264  0.6283
15217TIP3    H167066   3.945   1.644   1.470  0.3272 -0.2288  2.1635
15217TIP3    H267067   3.942   1.786   1.525 -1.1311  0.6736 -0.1507
15218TIP3   OH267068   1.760   6.210  15.856 -0.1737 -0.0891  0.1368
15218TIP3    H167069   1.767   6.137  15.795 -1.3675  0.1074 -0.2349
15218TIP3    H267070   1.789   6.286  15.805  1.0627 -0.2878  0.5225
15219TIP3   OH267071   4.231   5.499  16.182  0.4024  0.3901 -0.1477
15219TIP3    H167072   4.249   5.406  16.169  0.5041  0.2843  0.7636
15219TIP3    H267073   4.176   5.503  16.260  1.3419  1.1896  0.4815
15220TIP3   OH267074   6.633   1.440  11.366  0.0845 -0.1718  0.0357
15220TIP3    H167075   6.558   1.404  11.317 -0.1480 -2.4614  2.0005
15220TIP3    H267076   6.614   1.418  11.457  2.2701  0.8650  0.7477
15221TIP3   OH267077   6.437   2.924   6.074  0.3458  0.5090  0.1173
15221TIP3    H167078   6.513   2.905   6.020  0.5444 -0.8252  0.8487
15221TIP3    H267079   6.384   2.984   6.021  1.7088  1.1514 -0.5487
15222TIP3   OH267080   6.259   4.282   5.574 -0.2822  0.7012 -0.3200
15222TIP3    H167081   6.193   4.330   5.525  0.6275  0.8859 -1.3764
15222TIP3    H267082   6.309   4.349   5.621  0.7991  0.8045 -1.5658
15223TIP3   OH267083   4.582   2.786  15.610  0.1572 -0.3164  0.2783
15223TIP3    H167084   4.507   2.831  15.569  1.1289  0.0579 -1.1301
15223TIP3    H267085   4.543   2.710  15.653 -1.0124 -0.2941 -0.7109
15224TIP3   OH267086   0.468   5.801  13.906  0.1704  0.4713  0.3447
15224TIP3    H167087   0.512   5.875  13.946 -0.3513  1.8133 -1.5017
15224TIP3    H267088   0.378   5.806  13.939  0.2543  0.3774  0.5887
15225TIP3   OH267089   4.641   3.910   3.749  0.6306 -0.5126  0.1315
15225TIP3    H167090   4.652   3.882   3.840 -0.6177  1.4948  0.9269
15225TIP3    H267091   4.691   3.992   3.743  0.3608 -0.4221 -0.8861
15226TIP3   OH267092   3.765   3.945   2.235 -0.2930 -0.2970 -0.3917
15226TIP3    H167093   3.758   3.887   2.160 -0.0023  1.3918 -1.7602
15226TIP3    H267094   3.841   3.913   2.283 -0.8560 -1.7786 -0.4529
15227TIP3   OH267095   1.177   1.875   0.987  0.3390 -0.0583  0.1652
15227TIP3    H167096   1.131   1.828   1.056 -0.5257 -0.6533 -0.7915
15227TIP3    H267097   1.207   1.806   0.927  0.0917  0.5268 -0.6368
15228TIP3   OH267098   1.716   2.316   3.343 -0.8263 -0.3534  0.1431
15228TIP3    H167099   1.634   2.325   3.294  0.9772  1.2088 -2.6997
15228TIP3    H267100   1.747   2.227   3.323 -1.7089 -0.8931  1.1064
15229TIP3   OH267101   0.073   2.703   0.755  0.0628  0.4615 -0.2576
15229TIP3    H167102   0.124   2.632   0.718 -0.9293 -0.6767  0.5154
15229TIP3    H267103   0.113   2.720   0.840  0.1636  0.6758 -0.3478
15230TIP3   OH267104   1.787   6.072   5.775  0.1036 -0.7386  1.3522
15230TIP3    H167105   1.846   6.008   5.815  0.8071 -0.6169  0.5026
15230TIP3    H267106   1.842   6.148   5.756 -0.2808 -0.6892  0.3966
15231TIP3   OH267107   0.702   3.631  14.468  0.0793 -0.2687 -0.4503
15231TIP3    H167108   0.671   3.562  14.525 -0.0181  1.9379  2.2637
15231TIP3    H267109   0.674   3.604  14.380 -1.9976 -2.4902  0.8378
15232TIP3   OH267110   1.730   5.425   3.963  0.0492 -0.4337  0.0943
15232TIP3    H167111   1.725   5.442   4.057 -0.2886 -0.1256  0.0193
15232TIP3    H267112   1.717   5.510   3.922  0.0447 -0.5925 -0.2341
15233TIP3   OH267113   2.360   6.053  14.512  0.2398  0.1606 -0.7831
15233TIP3    H167114   2.448   6.086  14.497  0.0701  1.2553  0.5495
15233TIP3    H267115   2.306   6.097  14.447  0.4168  0.6614 -0.5904
15234TIP3   OH267116   4.164   2.251  14.178  0.3077 -0.1642  0.1891
15234TIP3    H167117   4.251   2.213  14.160 -0.3277 -1.2080 -0.8094
15234TIP3    H267118   4.174   2.294  14.262  1.4810 -1.3225  0.6756
15235TIP3   OH267119   3.226   2.473  10.993  0.2913 -0.1427  0.8839
15235TIP3    H167120   3.222   2.533  10.918  1.0136  1.0539  1.7906
15235TIP3    H267121   3.298   2.505  11.046  0.6005 -1.7513  1.4687
15236TIP3   OH267122   5.379   1.282  12.021  0.4711 -0.1204  0.7825
15236TIP3    H167123   5.334   1.284  11.936  1.5044  1.6524  0.2397
15236TIP3    H267124   5.468   1.255  11.999  0.5499 -0.3699  1.4151
15237TIP3   OH267125   0.915   0.806   0.744 -0.1395 -0.0137 -0.9652
15237TIP3    H167126   0.972   0.818   0.668  1.6128 -2.5661 -0.0999
15237TIP3    H267127   0.844   0.751   0.713 -0.6134  0.7701 -1.2936
15238TIP3   OH267128   5.053   4.350   4.758 -0.3333  0.7516  0.2102
15238TIP3    H167129   5.013   4.300   4.686  1.2592  0.0391 -0.2067
15238TIP3    H267130   5.015   4.312   4.837  1.6687 -1.9544 -0.0511
15239TIP3   OH267131   3.539   6.739   4.378  0.1292 -0.7752 -0.1900
15239TIP3    H167132   3.551   6.665   4.438  0.5611  0.5028  1.3319
15239TIP3    H267133   3.465   6.714   4.323  0.1438 -2.2523  0.4457
15240TIP3   OH267134   6.654   4.800  10.790 -0.3165 -0.1077  0.0590
15240TIP3    H167135   6.742   4.828  10.763 -0.9103  1.7457  0.0353
15240TIP3    H267136   6.640   4.718  10.742  0.9997  0.0788 -0.6788
15241TIP3   OH267137   0.301   2.654   4.901 -0.1586 -0.2668 -1.0914
15241TIP3    H167138   0.395   2.661   4.886  0.0286  0.3303  0.2644
15241TIP3    H267139   0.270   2.744   4.904 -0.0047 -0.2818  2.9372
15242TIP3   OH267140   5.229   2.352   2.173 -0.6140 -0.3563  0.6500
15242TIP3    H167141   5.188   2.398   2.099 -0.3710  0.6462  1.1201
15242TIP3    H267142   5.286   2.287   2.132  0.0234  0.6382 -0.0620
15243TIP3   OH267143   6.358   2.520   3.570  1.1340  0.4238 -0.5014
15243TIP3    H167144   6.428   2.518   3.635 -0.0338 -1.7341  0.7542
15243TIP3    H267145   6.287   2.568   3.614  1.0963  0.8167 -0.9904
15244TIP3   OH267146   2.558   0.632  14.108  0.5419  0.1303  0.0912
15244TIP3    H167147   2.636   0.627  14.053  1.3391  0.6887  1.1474
15244TIP3    H267148   2.592   0.632  14.198 -0.8856 -3.5491  0.6939
15245TIP3   OH267149   5.662   0.655   0.099  0.3780 -0.2061 -0.5542
15245TIP3    H167150   5.635   0.564   0.112 -1.6840  0.5216  0.4255
15245TIP3    H267151   5.729   0.670   0.165 -1.9692  0.0706  1.8603
15246TIP3   OH267152   5.091   4.817   5.476 -0.2125  0.1626 -0.1036
15246TIP3    H167153   5.175   4.803   5.518 -0.9051 -1.0582  0.8933
15246TIP3    H267154   5.056   4.897   5.517  0.4915  0.7369 -0.6029
15247TIP3   OH267155   5.287   0.270  13.423 -0.1693  0.3842  0.0496
15247TIP3    H167156   5.293   0.337  13.355 -1.6675  0.4579 -0.0419
15247TIP3    H267157   5.204   0.289  13.468 -0.7618 -1.5641 -0.1610
15248TIP3   OH267158   0.565   1.284  12.922  0.2612 -0.5154 -0.0419
15248TIP3    H167159   0.537   1.246  12.838  1.4625 -1.0690 -0.1994
15248TIP3    H267160   0.488   1.277  12.978 -1.0940  1.3587 -1.5817
15249TIP3   OH267161   5.489   1.653  15.079 -0.1877 -0.1654 -0.2508
15249TIP3    H167162   5.520   1.705  15.005  0.1008 -2.2222 -1.6271
15249TIP3    H267163   5.556   1.586  15.091 -0.5577 -0.2466  1.4637
15250TIP3   OH267164   6.475   4.641   2.585 -0.3313  0.2670  0.2579
15250TIP3    H167165   6.403   4.603   2.535 -0.4605 -0.4459  0.9838
15250TIP3    H267166   6.432   4.700   2.648 -0.3462 -0.7926  1.2535
15251TIP3   OH267167   1.995   4.070  15.612  0.1770 -0.1887 -0.3518
15251TIP3    H167168   2.020   4.156  15.580 -0.0268 -0.1218 -0.3271
15251TIP3    H267169   1.904   4.079  15.639  0.5072 -0.0982  0.7612
15252TIP3   OH267170   4.601   5.118   1.488  0.1742  0.9404  0.5067
15252TIP3    H167171   4.538   5.054   1.521  0.3493  0.5588  0.1108
15252TIP3    H267172   4.652   5.144   1.565  1.6076 -1.1080  0.2936
15253TIP3   OH267173   0.816   3.087  17.168  0.0334 -0.0168  0.0974
15253TIP3    H167174   0.900   3.128  17.147  0.9951 -1.1360  1.6919
15253TIP3    H267175   0.755   3.161  17.176  1.2540  0.9331  0.7389
15254TIP3   OH267176   2.659   4.540   0.815 -0.3660 -0.4204  0.6262
15254TIP3    H167177   2.703   4.460   0.844 -0.5334 -0.0050  2.0854
15254TIP3    H267178   2.648   4.529   0.721  1.7991 -1.0600  0.4141
15255TIP3   OH267179   2.469   2.850   5.834  0.3342  0.4248  0.4931
15255TIP3    H167180   2.541   2.788   5.826 -0.6483 -0.6574 -0.0084
15255TIP3    H267181   2.393   2.804   5.800 -1.2084  0.5509  3.5943
15256TIP3   OH267182   5.966   6.119   0.309  0.2408  0.3230  0.7010
15256TIP3    H167183   5.994   6.211   0.303 -0.4796  0.3908 -2.6156
15256TIP3    H267184   5.881   6.122   0.352 -0.7218  1.4234 -1.2529
15257TIP3   OH267185   4.244   5.488  15.248  0.3935 -0.0274 -0.4086
15257TIP3    H167186   4.193   5.536  15.182 -0.8128  0.2961  0.7380
15257TIP3    H267187   4.310   5.550  15.277  2.5910 -0.9965 -3.1375
15258TIP3   OH267188   4.130   1.828   5.505 -0.2843  0.0555 -0.0559
15258TIP3    H167189   4.143   1.922   5.511 -0.8813  0.0796  1.1582
15258TIP3    H267190   4.035   1.816   5.516 -0.3857 -0.5947 -1.5361
15259TIP3   OH267191   0.777   2.287   2.617  0.1371 -0.3616  0.0754
15259TIP3    H167192   0.778   2.256   2.526 -0.7188 -1.8159  0.5287
15259TIP3    H267193   0.869   2.303   2.638  0.3702 -0.2986 -0.9568
15260TIP3   OH267194   3.426   6.645   3.683 -0.2996 -0.5981 -0.1081
15260TIP3    H167195   3.364   6.676   3.748 -0.0497 -0.3283  0.0036
15260TIP3    H267196   3.404   6.693   3.603 -0.6124 -0.9361 -0.2256
15261TIP3   OH267197   6.028   6.256  16.054  0.0589  0.1624  0.3210
15261TIP3    H167198   6.110   6.208  16.067 -0.3211 -0.3018  1.0206
15261TIP3    H267199   6.020   6.311  16.132 -1.8116 -2.0223  1.7519
15262TIP3   OH267200   0.245   5.258   5.715 -0.1270  0.4267 -0.4419
15262TIP3    H167201   0.232   5.321   5.786  2.9743 -0.0985  0.6428
15262TIP3    H267202   0.218   5.174   5.752  0.0235  0.3957 -0.4037
15263TIP3   OH267203   6.292   3.243   5.145 -0.1865 -0.1311 -0.1415
15263TIP3    H167204   6.342   3.169   5.178  0.7286 -0.0597 -1.3376
15263TIP3    H267205   6.268   3.293   5.223  1.9021  0.0142  0.4336
15264TIP3   OH267206   5.699   3.089  15.346 -0.4242  0.7296 -0.1203
15264TIP3    H167207   5.752   3.168  15.349  0.5949  0.0187  1.1998
15264TIP3    H267208   5.750   3.027  15.294 -1.1344  0.8793 -0.9965
15265TIP3   OH267209   6.256   0.696  11.022 -0.0002  0.2359  0.0264
15265TIP3    H167210   6.328   0.746  11.060  0.4476  0.4533 -1.0894
15265TIP3    H267211   6.277   0.605  11.041 -0.8288  0.4392  2.0841
15266TIP3   OH267212   6.038   5.302   2.920  0.3713 -0.4444 -0.6451
15266TIP3    H167213   6.058   5.375   2.862 -0.1765  0.6220  0.4795
15266TIP3    H267214   6.093   5.317   2.997 -2.4125  0.8523  1.1804
15267TIP3   OH267215   6.051   4.288   0.091  0.5546  0.0567  0.0171
15267TIP3    H167216   6.114   4.239   0.144  1.3067  1.8865  0.8598
15267TIP3    H267217   6.095   4.372   0.074  0.1105 -0.2676 -3.0326
15268TIP3   OH267218   0.434   3.084   3.295  0.8181 -0.8803 -0.5149
15268TIP3    H167219   0.400   3.043   3.216  1.5970 -1.0164 -0.7855
15268TIP3    H267220   0.395   3.172   3.295  0.6036 -0.9725 -0.9047
15269TIP3   OH267221   1.029   4.843   2.929  0.2485 -0.0801 -0.4565
15269TIP3    H167222   1.014   4.763   2.978 -0.8373 -0.3086 -1.1435
15269TIP3    H267223   0.961   4.903   2.959 -0.4485 -0.2316 -1.6752
15270TIP3   OH267224   1.468   4.044  16.406 -0.1993  0.4725  0.3518
15270TIP3    H167225   1.485   3.954  16.433  0.4829  0.1905 -0.9790
15270TIP3    H267226   1.376   4.043  16.377  0.1297 -0.0680 -0.7090
15271TIP3   OH267227   1.136   5.426   3.850  0.6380  0.0783 -0.3961
15271TIP3    H167228   1.070   5.359   3.833 -0.8661  1.2849  0.5183
15271TIP3    H267229   1.215   5.393   3.808 -0.1799 -2.0563 -0.3355
15272TIP3   OH267230   5.061   5.517  13.822 -0.0895  0.3008  0.5090
15272TIP3    H167231   5.097   5.440  13.779  0.1992  0.1475  1.0161
15272TIP3    H267232   4.985   5.541  13.770 -0.9601 -1.1086  1.1064
15273TIP3   OH267233   1.245   6.662  12.002 -0.3624  0.4865  0.0599
15273TIP3    H167234   1.219   6.750  12.028  0.6353  0.6897  0.3847
15273TIP3    H267235   1.316   6.675  11.939 -0.3197 -0.0726 -0.0148
15274TIP3   OH267236   6.769   3.494   3.503 -0.0462 -0.2307 -0.7219
15274TIP3    H167237   6.806   3.417   3.547 -1.8243 -1.4512 -1.3002
15274TIP3    H267238   6.756   3.557   3.574 -0.2975 -1.1587  0.0835
15275TIP3   OH267239   5.458   3.922   3.810 -0.0272 -0.0369 -0.1864
15275TIP3    H167240   5.379   3.976   3.813  0.4439  0.6145  1.1074
15275TIP3    H267241   5.460   3.878   3.895  0.4285 -0.8909 -0.6300
15276TIP3   OH267242   3.957   5.144  14.795  0.2573  0.0054 -0.3996
15276TIP3    H167243   3.929   5.140  14.703  0.7379  2.0046 -0.6591
15276TIP3    H267244   3.956   5.053  14.824  1.2947 -0.8178 -2.7554
15277TIP3   OH267245   2.948   3.078  11.218  0.4109 -0.4928 -0.0700
15277TIP3    H167246   2.900   3.070  11.135  1.5565 -0.6459 -0.7313
15277TIP3    H267247   2.883   3.111  11.280 -0.9574 -2.2396 -0.5450
15278TIP3   OH267248   6.558   1.223  14.384  0.1516 -0.2733 -0.7738
15278TIP3    H167249   6.602   1.298  14.346  3.7760 -2.1115 -0.4000
15278TIP3    H267250   6.572   1.232  14.478 -1.9906  0.1069 -0.4574
15279TIP3   OH267251   0.621   5.795  16.674 -0.0101  0.0258  0.2874
15279TIP3    H167252   0.550   5.798  16.738 -0.3619 -2.4693  0.0819
15279TIP3    H267253   0.700   5.811  16.725 -0.3721 -1.1138  1.2449
15280TIP3   OH267254   0.893   3.139  13.996  0.1273 -0.0131 -0.0792
15280TIP3    H167255   0.936   3.148  13.911 -0.9318  2.1320 -0.4163
15280TIP3    H267256   0.884   3.228  14.028 -1.0987 -0.6727  1.4756
15281TIP3   OH267257   1.091   2.983   6.400 -0.4005  0.2465  0.4061
15281TIP3    H167258   1.110   2.992   6.494  1.6479  1.9480 -0.1323
15281TIP3    H267259   1.060   3.070   6.375 -1.9945 -0.5042 -0.2939
15282TIP3   OH267260   4.103   1.118  16.331 -1.3418  0.0197 -0.6941
15282TIP3    H167261   4.020   1.163  16.348 -1.5836 -0.9063  0.6641
15282TIP3    H267262   4.153   1.130  16.411 -0.6452 -0.4802 -1.0558
15283TIP3   OH267263   1.297   4.410  14.894  0.2783 -0.3501 -0.5084
15283TIP3    H167264   1.219   4.368  14.932  1.6913 -2.5779  0.0008
15283TIP3    H267265   1.355   4.425  14.969 -0.5233  3.3596 -0.5480
15284TIP3   OH267266   3.156   0.312   5.901  0.0712  0.0949  0.8048
15284TIP3    H167267   3.160   0.295   5.995 -0.7996  0.8778  0.9906
15284TIP3    H267268   3.089   0.252   5.868 -0.1715  0.3636  0.8087
15285TIP3   OH267269   4.201   6.476  14.439 -0.0375  0.7354 -0.2880
15285TIP3    H167270   4.241   6.532  14.373 -0.6915  1.0675 -0.4120
15285TIP3    H267271   4.232   6.387  14.418  0.5494  0.9719 -0.4291
15286TIP3   OH267272   2.243   4.712  13.219 -0.3757  0.0517  0.2957
15286TIP3    H167273   2.207   4.628  13.248 -1.3231  0.6663  0.9254
15286TIP3    H267274   2.322   4.723  13.271 -0.8665  0.0867  1.0476
15287TIP3   OH267275   2.757   3.126   4.373  0.0470  0.1511 -0.0909
15287TIP3    H167276   2.826   3.192   4.366  0.3486  0.0486  1.5216
15287TIP3    H267277   2.678   3.175   4.394  0.0003  0.1186 -0.1924
15288TIP3   OH267278   2.707   3.718   3.933 -0.1421  0.1880  0.0931
15288TIP3    H167279   2.694   3.643   3.874 -1.8428 -0.4677  1.2384
15288TIP3    H267280   2.710   3.794   3.875  1.7592 -0.7558 -1.1047
15289TIP3   OH267281   3.528   3.112  14.443  0.3919  0.5054 -0.3471
15289TIP3    H167282   3.537   3.028  14.489 -1.0008  1.4655  1.7492
15289TIP3    H267283   3.530   3.178  14.513 -3.0706  1.9397 -1.4771
15290TIP3   OH267284   5.065   5.731  13.963  0.3451 -0.4354 -0.5038
15290TIP3    H167285   4.977   5.743  13.999  0.9694  0.0659  0.8679
15290TIP3    H267286   5.057   5.655  13.905 -0.9946 -0.3672 -0.4207
15291TIP3   OH267287   4.930   3.031   0.869 -0.2484 -0.3074 -0.2956
15291TIP3    H167288   4.936   3.096   0.940 -2.3059 -1.4361  0.9738
15291TIP3    H267289   5.020   3.004   0.854  0.4837  1.7594  0.1924
15292TIP3   OH267290   5.291   4.364  12.449 -0.0699 -0.0940 -0.2387
15292TIP3    H167291   5.299   4.449  12.405  1.6415 -1.3017 -2.3631
15292TIP3    H267292   5.210   4.327  12.414  0.5400 -0.4336 -1.3118
15293TIP3   OH267293   0.176   3.967   2.852 -0.0653  0.0701 -0.0106
15293TIP3    H167294   0.187   4.062   2.849 -2.4667  0.3488 -1.3198
15293TIP3    H267295   0.153   3.943   2.762  0.4455 -1.7356  0.3254
15294TIP3   OH267296   2.049   4.260  10.381 -0.2409 -0.1917 -0.1453
15294TIP3    H167297   1.959   4.229  10.369  0.4677 -1.6528 -1.9234
15294TIP3    H267298   2.040   4.340  10.434 -2.7046  0.5294 -1.5750
15295TIP3   OH267299   4.731   1.894  14.195 -0.5731 -0.2541  0.1905
15295TIP3    H167300   4.710   1.927  14.107  0.9420 -2.2765 -0.9892
15295TIP3    H267301   4.813   1.938  14.218 -1.2544  0.6831  0.8238
15296TIP3   OH267302   0.754   0.802   0.432 -0.2455 -0.3985  0.1070
15296TIP3    H167303   0.738   0.855   0.355 -2.5831  0.1794  0.9503
15296TIP3    H267304   0.805   0.859   0.490 -1.9376  0.6116  0.6226
15297TIP3   OH267305   5.715   3.990  13.342  0.3908 -0.5029  0.2150
15297TIP3    H167306   5.663   4.064  13.309 -1.0917  0.3016  4.0482
15297TIP3    H267307   5.665   3.913  13.315 -0.1817  0.0491 -0.3544
15298TIP3   OH267308   2.158   2.141   0.080  0.4654 -0.0563  0.4397
15298TIP3    H167309   2.093   2.085   0.037 -1.4773  1.9220  0.7593
15298TIP3    H267310   2.227   2.080   0.106  0.4588 -1.7174 -3.0423
15299TIP3   OH267311   1.101   5.656  15.079  0.7467  0.4558 -0.2365
15299TIP3    H167312   1.108   5.643  14.985 -0.5500 -2.6308  0.0396
15299TIP3    H267313   1.156   5.588  15.118  0.8079  1.3158  1.2453
15300TIP3   OH267314   5.064   5.077  11.733  0.3807  0.0325 -0.8477
15300TIP3    H167315   5.025   5.059  11.647 -3.0569 -0.3160  0.7130
15300TIP3    H267316   5.069   5.173  11.737  3.5796  0.0235 -2.6473
15301TIP3   OH267317   5.700   4.996  12.979  0.0149  0.1528 -0.2764
15301TIP3    H167318   5.661   4.921  12.934 -0.7077  1.8014 -2.5131
15301TIP3    H267319   5.635   5.066  12.970  0.6891  1.0898  1.7231
15302TIP3   OH267320   6.205   6.102  15.785 -0.8065  0.1496 -0.1329
15302TIP3    H167321   6.268   6.077  15.718  1.5219 -4.7652  3.5595
15302TIP3    H267322   6.129   6.045  15.770  0.6725 -2.7200  2.5972
15303TIP3   OH267323   2.544   5.669   0.036  0.0064  0.2948  0.4359
15303TIP3    H167324   2.504   5.751   0.006  1.6772  1.0295  0.1900
15303TIP3    H267325   2.614   5.697   0.094  0.1818 -0.9903  0.8404
15304TIP3   OH267326   4.363   1.787   4.522 -0.3914  0.2497  0.4682
15304TIP3    H167327   4.420   1.851   4.481  0.2829 -0.1896  0.7023
15304TIP3    H267328   4.330   1.831   4.601 -0.7765  0.6798  0.0705
15305TIP3   OH267329   2.147   4.348  10.904  0.1525  1.0386 -0.3943
15305TIP3    H167330   2.212   4.370  10.837  0.6797  1.3633  0.2152
15305TIP3    H267331   2.063   4.360  10.861  0.4855 -2.4630 -2.1975
15306TIP3   OH267332   5.247   1.186  13.086  0.5387  0.4517 -0.1517
15306TIP3    H167333   5.314   1.118  13.091  0.8705  0.6547 -1.5796
15306TIP3    H267334   5.195   1.163  13.009 -0.6019  0.7002  0.5263
15307TIP3   OH267335   0.764   3.915  15.707 -0.3514 -0.0668  0.1306
15307TIP3    H167336   0.756   3.929  15.801  0.0926 -0.6357  0.2562
15307TIP3    H267337   0.809   3.831  15.699 -0.4800 -0.0695 -0.5905
15308TIP3   OH267338   6.530   2.050   1.034  0.1458  0.0123  0.1461
15308TIP3    H167339   6.570   2.124   0.988  0.0966 -0.3552 -0.4936
15308TIP3    H267340   6.605   2.001   1.069  0.4274 -1.7963 -2.7594
15309TIP3   OH267341   0.083   4.356   1.394 -0.2791 -0.2020  1.0748
15309TIP3    H167342   0.152   4.347   1.328 -0.4188 -0.1132  0.9175
15309TIP3    H267343   0.017   4.292   1.369 -1.9847  2.2690 -0.9220
15310TIP3   OH267344   5.226   6.527  12.092  0.4533  0.6531  0.3245
15310TIP3    H167345   5.256   6.562  12.176  1.0604  1.7395 -0.3292
15310TIP3    H267346   5.297   6.548  12.031 -0.0104 -0.0713 -0.4738
15311TIP3   OH267347   6.301   0.153   2.322  0.0968  0.6283  0.5496
15311TIP3    H167348   6.312   0.242   2.354  0.6127  0.0485  2.0229
15311TIP3    H267349   6.390   0.118   2.317  0.0286  0.6961 -1.5317
15312TIP3   OH267350   0.192   4.531  16.810  0.3749  0.4455 -0.4250
15312TIP3    H167351   0.189   4.543  16.715  2.1552  1.5544 -0.3543
15312TIP3    H267352   0.138   4.603  16.844  0.4927  0.5969 -0.5576
15313TIP3   OH267353   1.137   3.955   5.474  0.1333  0.1313  0.5391
15313TIP3    H167354   1.122   4.047   5.496  0.8922  0.1092  1.1325
15313TIP3    H267355   1.053   3.925   5.439 -0.0689  1.0922  0.1922
15314TIP3   OH267356   6.713   0.648  14.528  0.0526  0.0629  0.3517
15314TIP3    H167357   6.768   0.722  14.552  1.1628 -1.1308  1.5511
15314TIP3    H267358   6.673   0.620  14.610 -0.5433 -0.5202 -0.1297
15315TIP3   OH267359   2.534   1.037   0.650  0.0254  0.2403 -0.0583
15315TIP3    H167360   2.574   1.065   0.731  2.1072 -0.7611 -0.7096
15315TIP3    H267361   2.596   1.063   0.582 -1.1829  0.1073 -1.2347
15316TIP3   OH267362   5.403   1.284  15.666  0.3022 -0.1454  0.7083
15316TIP3    H167363   5.323   1.324  15.632 -0.1227 -0.3219  1.4783
15316TIP3    H267364   5.373   1.205  15.711  1.1513 -1.4591 -0.9780
15317TIP3   OH267365   3.863   2.180  14.206 -0.1361  0.0418 -0.0486
15317TIP3    H167366   3.870   2.275  14.213  0.0029  0.0053  0.3810
15317TIP3    H267367   3.790   2.157  14.264 -0.4490 -0.0696 -0.4906
15318TIP3   OH267368   3.125   0.246  11.458  0.1830  0.3018 -0.3031
15318TIP3    H167369   3.150   0.170  11.405  1.2644 -0.2259  0.9550
15318TIP3    H267370   3.208   0.287  11.481 -0.4109  2.0842 -1.2553
15319TIP3   OH267371   4.527   2.825  14.661  0.2710  0.1162  0.5047
15319TIP3    H167372   4.449   2.863  14.621 -1.0785 -1.5303  1.5186
15319TIP3    H267373   4.600   2.861  14.611 -1.1483  1.4765 -0.6197
15320TIP3   OH267374   2.537   3.407   1.691 -0.8350  0.1865  0.2615
15320TIP3    H167375   2.551   3.488   1.644  0.2536  0.3661  0.8657
15320TIP3    H267376   2.519   3.434   1.781  2.8647 -0.3037  1.2228
15321TIP3   OH267377   5.198   2.030  11.051 -0.1081 -0.1946  0.0743
15321TIP3    H167378   5.189   1.936  11.068  0.0130 -0.1433  0.4231
15321TIP3    H267379   5.126   2.070  11.101 -0.4004 -0.1341 -0.3868
15322TIP3   OH267380   3.782   6.739  14.619  0.8424 -0.6346  0.3927
15322TIP3    H167381   3.798   6.717  14.711  0.5533  0.7215  0.7670
15322TIP3    H267382   3.759   6.655  14.578 -0.6549 -0.9587  1.8883
15323TIP3   OH267383   6.519   4.114   0.591  0.3372  0.4171 -0.3273
15323TIP3    H167384   6.451   4.166   0.635 -1.6512 -0.3387 -2.4226
15323TIP3    H267385   6.486   4.024   0.596  2.7278 -0.4227  1.3909
15324TIP3   OH267386   5.200   0.087   3.408  0.0019  0.3804  0.0502
15324TIP3    H167387   5.246   0.120   3.486  0.4559 -2.4204  1.0115
15324TIP3    H267388   5.267   0.083   3.340  0.4485 -0.5943  0.5400
15325TIP3   OH267389   6.712   5.065  11.524 -0.3476 -0.3555 -0.2545
15325TIP3    H167390   6.631   5.047  11.571  0.4423  0.0949  1.3166
15325TIP3    H267391   6.716   4.997  11.456 -0.6504 -2.1194  1.4355
15326TIP3   OH267392   5.608   4.331   2.376 -0.2242 -0.3132 -0.8109
15326TIP3    H167393   5.638   4.296   2.292  2.3162  2.0371 -0.9674
15326TIP3    H267394   5.666   4.290   2.441  1.1642  1.6653 -0.7591
15327TIP3   OH267395   5.714   3.132  14.327  0.2787 -0.0545 -0.1459
15327TIP3    H167396   5.719   3.227  14.333  0.1943  0.0484 -1.6156
15327TIP3    H267397   5.756   3.101  14.408 -1.6019  1.2382  1.3860
15328TIP3   OH267398   6.385   0.814  13.436  0.0988  0.2401  0.3798
15328TIP3    H167399   6.295   0.784  13.436  0.2988 -0.3928 -1.5179
15328TIP3    H267400   6.379   0.910  13.432 -0.4708  0.2019  0.3515
15329TIP3   OH267401   6.737   6.612   4.669 -0.3019 -0.2422 -0.3797
15329TIP3    H167402   6.809   6.549   4.675  0.7445  0.5105 -4.2475
15329TIP3    H267403   6.658   6.557   4.666  0.2646 -1.1553  0.9073
15330TIP3   OH267404   4.105   5.759  16.553  0.1151 -0.0025  0.3023
15330TIP3    H167405   4.037   5.766  16.620 -0.6352 -0.6077 -0.3830
15330TIP3    H267406   4.086   5.830  16.492  0.2600 -0.0114  0.2473
15331TIP3   OH267407   4.773   0.309   3.358  0.1985  0.1976 -0.5327
15331TIP3    H167408   4.699   0.349   3.311 -0.2027 -0.5834 -0.5775
15331TIP3    H267409   4.802   0.377   3.419 -0.7212  0.4257 -0.3383
15332TIP3   OH267410   0.828   1.735  10.307 -0.3640 -0.0591  0.3779
15332TIP3    H167411   0.874   1.651  10.310  0.5058  0.4139  0.4685
15332TIP3    H267412   0.807   1.754  10.399 -0.8842 -0.3538  0.3192
15333TIP3   OH267413   1.414   4.370   4.707  0.5947  0.5375  0.3985
15333TIP3    H167414   1.417   4.317   4.626  3.1680  1.2195 -0.0048
15333TIP3    H267415   1.440   4.458   4.679  0.5545  1.0056  1.8057
15334TIP3   OH267416   4.543   6.307   1.741 -0.6020 -0.1784 -0.0716
15334TIP3    H167417   4.572   6.393   1.711 -0.3648  1.0242  3.3272
15334TIP3    H267418   4.448   6.315   1.746 -0.6996 -0.6107 -1.1134
15335TIP3   OH267419   2.921   5.584   7.097  0.0105  0.1996  0.2578
15335TIP3    H167420   2.927   5.497   7.135 -0.0583 -0.1530 -0.5219
15335TIP3    H267421   2.955   5.574   7.008 -2.1583  0.4412 -0.6415
15336TIP3   OH267422   6.276   5.535  12.321  0.4620 -0.4472  0.5774
15336TIP3    H167423   6.283   5.453  12.370 -0.3139 -0.3223  0.8860
15336TIP3    H267424   6.249   5.507  12.233 -1.0235 -0.4132  1.0248
15337TIP3   OH267425   5.749   5.966   4.039 -1.0130 -0.3313 -0.1916
15337TIP3    H167426   5.769   6.047   4.086 -1.8087 -0.1662 -0.1156
15337TIP3    H267427   5.830   5.944   3.993 -0.9315  0.7876 -0.6189
15338TIP3   OH267428   5.647   3.462  13.251  0.6747  0.2020 -0.2345
15338TIP3    H167429   5.641   3.430  13.161  0.2466  1.4600 -0.6701
15338TIP3    H267430   5.558   3.491  13.272  0.1558 -2.4869  1.5450
15339TIP3   OH267431   1.732   3.070   0.594 -0.0701  0.2303 -0.0891
15339TIP3    H167432   1.800   3.012   0.560 -1.8132 -0.7703 -2.0140
15339TIP3    H267433   1.698   3.024   0.671  0.9405  0.4154  0.4836
15340TIP3   OH267434   2.723   6.351   0.320  0.5471  0.1175 -0.3890
15340TIP3    H167435   2.770   6.338   0.237 -0.4848 -1.2235 -0.7911
15340TIP3    H267436   2.726   6.445   0.335  3.4415  0.0560 -0.3466
15341TIP3   OH267437   4.921   2.467  16.072  0.2668 -0.5144  0.0666
15341TIP3    H167438   4.835   2.482  16.032 -0.9151 -1.3770  2.2482
15341TIP3    H267439   4.973   2.425  16.003 -1.5493 -1.4053 -0.7684
15342TIP3   OH267440   5.815   3.457  16.658  0.2431 -0.3145  0.3812
15342TIP3    H167441   5.757   3.483  16.587 -1.7277  0.3578  2.1974
15342TIP3    H267442   5.903   3.479  16.626 -0.8338  2.7303 -0.6862
15343TIP3   OH267443   3.790   3.254  10.638 -0.0889 -0.4065  0.5383
15343TIP3    H167444   3.745   3.242  10.555  0.8340  0.4795 -0.1181
15343TIP3    H267445   3.825   3.168  10.660 -1.1336 -0.8411  0.4821
15344TIP3   OH267446   0.547   3.196  13.022  0.2749  0.1954  0.2941
15344TIP3    H167447   0.472   3.201  12.963 -0.0231 -0.8650  0.5753
15344TIP3    H267448   0.508   3.195  13.110  0.4336 -3.1274  0.3938
15345TIP3   OH267449   0.776   2.807  16.167 -0.7973 -0.3947  0.2354
15345TIP3    H167450   0.724   2.798  16.087 -0.3434 -2.0915  0.1191
15345TIP3    H267451   0.714   2.797  16.238 -0.6062 -2.8695  0.1006
15346TIP3   OH267452   3.185   1.643   5.312 -0.2356  0.0474 -0.1659
15346TIP3    H167453   3.230   1.571   5.267  0.4792 -0.3922  1.2089
15346TIP3    H267454   3.256   1.699   5.343 -0.7633  0.9005 -0.4697
15347TIP3   OH267455   4.572   2.229   1.934  0.0401  0.0842  0.3234
15347TIP3    H167456   4.626   2.302   1.964 -0.0991  0.4385 -0.2740
15347TIP3    H267457   4.485   2.267   1.921  0.4286  0.2638 -1.8867
15348TIP3   OH267458   2.954   6.305   6.423 -0.5955 -0.0903  0.6191
15348TIP3    H167459   2.938   6.376   6.361  0.7499 -0.6018 -0.3336
15348TIP3    H267460   2.873   6.253   6.422 -0.0956 -0.8758 -1.7747
15349TIP3   OH267461   0.857   5.946  11.613  0.5670 -0.5411  0.0586
15349TIP3    H167462   0.861   5.904  11.698 -0.3658 -2.0804 -0.6424
15349TIP3    H267463   0.930   6.008  11.613 -0.1533  0.3254  2.4153
15350TIP3   OH267464   5.570   1.129  15.510  0.7686 -0.2639 -0.2171
15350TIP3    H167465   5.528   1.195  15.565  1.7088  1.5181 -1.5656
15350TIP3    H267466   5.604   1.178  15.435  0.3626 -2.4852 -1.9270
15351TIP3   OH267467   6.421   2.414  11.102 -0.2628  0.1370 -0.7481
15351TIP3    H167468   6.468   2.496  11.118 -1.2403  0.8415 -1.4690
15351TIP3    H267469   6.329   2.439  11.097 -0.6085 -1.0598 -0.6051
15352TIP3   OH267470   5.822   1.690   5.971  0.2976 -0.3687  0.7488
15352TIP3    H167471   5.759   1.758   5.997 -0.7920 -1.0838  0.0295
15352TIP3    H267472   5.795   1.613   6.021 -0.5352 -1.1850 -0.9245
15353TIP3   OH267473   1.410   6.469   3.386  0.0747 -0.1469  0.5342
15353TIP3    H167474   1.340   6.413   3.418  1.1028 -1.2658  0.8338
15353TIP3    H267475   1.471   6.410   3.343  1.7065  0.5926  1.7939
15354TIP3   OH267476   2.856   5.302  15.485 -0.0612  0.4421 -0.5610
15354TIP3    H167477   2.892   5.225  15.440  2.7828  2.0137 -1.0978
15354TIP3    H267478   2.819   5.356  15.415  0.0393  0.6590 -0.4465
15355TIP3   OH267479   6.138   2.753   4.566 -0.2634  0.3514  0.5575
15355TIP3    H167480   6.143   2.822   4.499 -0.9717  0.6117  0.7627
15355TIP3    H267481   6.149   2.672   4.518 -3.0878  0.3910 -0.2384
15356TIP3   OH267482   6.194   0.222  16.186 -0.3917  0.3059 -0.2314
15356TIP3    H167483   6.117   0.278  16.181  0.6845  1.8057 -0.2930
15356TIP3    H267484   6.170   0.144  16.136 -1.0292  1.7862 -2.3318
15357TIP3   OH267485   1.509   4.966  16.584 -0.1656 -0.3464  0.6828
15357TIP3    H167486   1.598   4.991  16.559  0.2311 -3.2350 -1.0087
15357TIP3    H267487   1.453   5.027  16.537  0.8224 -0.8718 -1.1983
15358TIP3   OH267488   3.141   4.238  13.542 -0.1047  0.4052 -0.0758
15358TIP3    H167489   3.140   4.299  13.616  0.3754 -0.0770  0.3321
15358TIP3    H267490   3.053   4.198  13.543  0.3440 -0.5755  1.0615
15359TIP3   OH267491   0.147   4.784   5.670  0.1679 -0.1507 -0.3171
15359TIP3    H167492   0.210   4.715   5.695  0.7662 -0.1481 -1.8171
15359TIP3    H267493   0.083   4.739   5.616 -0.4795  0.1039  0.2267
15360TIP3   OH267494   2.363   5.793   1.396 -0.5048  0.3173 -0.4616
15360TIP3    H167495   2.427   5.733   1.357 -0.6840  0.6872 -1.3305
15360TIP3    H267496   2.289   5.737   1.418 -0.9867  0.3344 -1.9875
15361TIP3   OH267497   5.313   5.187   0.398  0.3215 -0.9541 -0.3348
15361TIP3    H167498   5.371   5.237   0.455 -1.3335  0.1878  0.3879
15361TIP3    H267499   5.334   5.219   0.310  0.5337 -0.2885 -0.0498
15362TIP3   OH267500   2.904   3.096  14.373  0.7747  0.6113 -0.5074
15362TIP3    H167501   2.890   3.109  14.466  2.0345 -0.5158 -0.1270
15362TIP3    H267502   2.981   3.149  14.352  1.9302 -0.9568 -0.3669
15363TIP3   OH267503   4.771   5.779  16.764  0.0400  0.7120 -0.0995
15363TIP3    H167504   4.822   5.858  16.785 -1.2501  1.4139  0.4880
15363TIP3    H267505   4.768   5.778  16.668  1.5927  0.3620 -0.1645
15364TIP3   OH267506   0.633   5.517   3.913 -0.0886 -0.3263  0.5871
15364TIP3    H167507   0.645   5.438   3.861  3.1449 -0.7411  1.8662
15364TIP3    H267508   0.607   5.486   3.999 -1.7234  0.1885  0.3049
15365TIP3   OH267509   2.774   4.754  15.354 -0.4025  0.0994 -0.4630
15365TIP3    H167510   2.800   4.709  15.434  1.0091  1.3910 -0.1581
15365TIP3    H267511   2.856   4.767  15.306 -1.0670  0.4559 -1.5183
15366TIP3   OH267512   6.716   4.455  14.809 -0.4953 -0.0441  0.3623
15366TIP3    H167513   6.672   4.512  14.746 -0.9513 -2.4665 -1.6036
15366TIP3    H267514   6.645   4.401  14.845  0.0019  0.2120  1.7388
15367TIP3   OH267515   0.280   4.546  11.227 -0.2523 -0.4735 -0.0571
15367TIP3    H167516   0.375   4.539  11.215 -0.0376  0.3742  1.1069
15367TIP3    H267517   0.245   4.544  11.138  0.9349  0.4504 -0.5593
15368TIP3   OH267518   6.409   5.471  16.468  0.2066  0.0063 -0.0713
15368TIP3    H167519   6.485   5.432  16.425  0.7979  0.4904  0.5369
15368TIP3    H267520   6.399   5.557  16.427 -1.0843 -0.7445 -1.4034
15369TIP3   OH267521   0.272   2.894  16.032  0.0982 -0.3591 -0.8974
15369TIP3    H167522   0.320   2.917  15.952  0.2066  1.3843 -0.3383
15369TIP3    H267523   0.327   2.828  16.074  1.5072  0.8490 -0.7890
15370TIP3   OH267524   0.244   0.257  12.475  0.0359 -0.1437  0.2194
15370TIP3    H167525   0.219   0.242  12.384  2.5237 -1.2286 -0.3474
15370TIP3    H267526   0.238   0.171  12.517 -3.8366  0.8579  1.8549
15371TIP3   OH267527   3.284   5.275  14.422 -0.3868  0.1418  0.3334
15371TIP3    H167528   3.273   5.301  14.331  2.4045 -0.8075 -0.3246
15371TIP3    H267529   3.256   5.184  14.425  0.9861 -0.3038  0.0566
15372TIP3   OH267530   0.252   6.508   5.417 -0.2476  0.2351  0.2139
15372TIP3    H167531   0.236   6.602   5.425 -0.0077  0.5895 -2.8584
15372TIP3    H267532   0.170   6.472   5.386  0.4549 -0.1597 -1.2201
15373TIP3   OH267533   5.556   5.618  16.914 -0.0797  0.2064  0.3491
15373TIP3    H167534   5.618   5.548  16.934 -1.0009  0.0856  2.9810
15373TIP3    H267535   5.540   5.660  16.998 -2.3101  1.3045 -0.5940
15374TIP3   OH267536   3.934   2.872   5.060  0.0610  0.2525 -0.3943
15374TIP3    H167537   3.915   2.962   5.032  0.9987  0.4693 -0.3762
15374TIP3    H267538   3.945   2.879   5.155 -1.1662 -0.1224 -0.2241
15375TIP3   OH267539   3.329   1.347   0.789  0.3409 -0.1909  0.0184
15375TIP3    H167540   3.394   1.418   0.788 -2.1071  2.1491 -2.7471
15375TIP3    H267541   3.370   1.278   0.737  1.1730  0.7482 -0.6053
15376TIP3   OH267542   4.280   0.505   4.066 -0.4002 -0.1538 -0.3894
15376TIP3    H167543   4.258   0.569   3.999 -0.2024 -0.2577 -0.5538
15376TIP3    H267544   4.218   0.522   4.137  0.8106  1.4174  0.3281
15377TIP3   OH267545   4.457   5.206  11.818  0.4992  0.0655 -0.3835
15377TIP3    H167546   4.495   5.166  11.740  1.9168 -0.8950  0.7852
15377TIP3    H267547   4.532   5.236  11.869 -0.3736 -0.2824  1.1349
15378TIP3   OH267548   6.342   6.425   4.820 -0.3413 -0.1886 -0.1958
15378TIP3    H167549   6.406   6.459   4.882 -1.7767  2.0031  0.1437
15378TIP3    H267550   6.269   6.395   4.875 -0.7934 -0.0413 -0.7121
15379TIP3   OH267551   4.744   4.638   6.218 -0.0063 -0.2265 -0.6715
15379TIP3    H167552   4.665   4.630   6.271  0.2879  0.0861 -0.1722
15379TIP3    H267553   4.779   4.724   6.241 -0.1390  0.1244 -1.7517
15380TIP3   OH267554   4.451   6.622  15.244 -0.3281  0.4935 -0.2936
15380TIP3    H167555   4.532   6.654  15.285 -0.1149 -0.0587 -0.2756
15380TIP3    H267556   4.382   6.677  15.280 -0.4630 -1.3906  2.5323
15381TIP3   OH267557   6.346   0.292  13.821  0.0159 -0.2129  0.3654
15381TIP3    H167558   6.385   0.304  13.734  0.4369 -0.4557  0.5212
15381TIP3    H267559   6.323   0.381  13.848 -0.2731 -0.1526 -0.0650
15382TIP3   OH267560   2.952   4.919   2.733 -0.3712  0.6009 -0.0235
15382TIP3    H167561   2.985   4.974   2.804  1.8046  1.3109 -1.5345
15382TIP3    H267562   2.943   4.979   2.659  2.0292 -1.0260 -1.6957
15383TIP3   OH267563   5.607   1.621  15.866 -0.5559 -0.6085  0.8549
15383TIP3    H167564   5.678   1.565  15.897 -0.5827  0.4173  2.8727
15383TIP3    H267565   5.627   1.707  15.902 -1.4811  0.2740 -0.6943
15384TIP3   OH267566   5.626   3.760  15.203  0.4423 -0.1538  0.0579
15384TIP3    H167567   5.583   3.760  15.117 -1.7030  0.9883  1.0919
15384TIP3    H267568   5.580   3.692  15.252  1.5906 -0.7285  0.3617
15385TIP3   OH267569   0.975   3.969  13.256  0.0904 -0.3251  0.8466
15385TIP3    H167570   1.053   3.996  13.305  0.2994 -0.0838  0.3876
15385TIP3    H267571   0.974   4.027  13.179  0.4059 -1.4651 -0.0330
15386TIP3   OH267572   3.805   6.637   4.600  0.3325  0.2574  0.3530
15386TIP3    H167573   3.891   6.633   4.558  0.4569  0.3828  0.5926
15386TIP3    H267574   3.770   6.723   4.576  0.4595  0.3828  0.6109
15387TIP3   OH267575   1.533   1.657  15.236  0.4313 -0.3505 -0.3765
15387TIP3    H167576   1.569   1.745  15.222  0.0917 -0.3559 -1.3265
15387TIP3    H267577   1.489   1.636  15.153 -0.7186 -0.8353  0.3481
15388TIP3   OH267578   1.874   3.000   5.301  0.6017  0.2747 -0.0500
15388TIP3    H167579   1.922   2.928   5.260  0.3931 -0.1926  0.5173
15388TIP3    H267580   1.914   3.010   5.387  1.5302  1.7526 -0.6486
15389TIP3   OH267581   0.496   2.451  14.011  0.6764  0.1880  0.3912
15389TIP3    H167582   0.558   2.394  14.057 -0.7039  0.0484  2.1266
15389TIP3    H267583   0.414   2.402  14.012  0.2737  0.8158 -0.9926
15390TIP3   OH267584   4.548   4.351  17.182 -0.1697  0.3111  0.1298
15390TIP3    H167585   4.554   4.304  17.265  1.1923  1.2723  0.5947
15390TIP3    H267586   4.460   4.390  17.183 -0.2782  0.0555  0.9798
15391TIP3   OH267587   1.590   0.777   5.279 -0.0940 -0.0979 -0.1513
15391TIP3    H167588   1.618   0.692   5.312  0.0677 -0.4967 -1.2907
15391TIP3    H267589   1.520   0.804   5.338 -2.8720 -2.8167 -2.0621
15392TIP3   OH267590   2.539   4.238  11.274 -0.5252 -0.2025 -0.6873
15392TIP3    H167591   2.588   4.185  11.211  0.3323  0.4796 -0.5888
15392TIP3    H267592   2.596   4.244  11.351 -1.4058 -0.7019  0.0226
15393TIP3   OH267593   5.528   0.213   3.249 -0.7305  0.4027 -0.3373
15393TIP3    H167594   5.571   0.266   3.182  2.4185 -0.2215  1.1141
15393TIP3    H267595   5.495   0.276   3.313  1.7116  0.7282  0.6356
15394TIP3   OH267596   6.704   3.784   1.919  0.3223  0.0891 -0.1421
15394TIP3    H167597   6.649   3.750   1.990 -0.0352 -1.5772 -1.1823
15394TIP3    H267598   6.769   3.838   1.963  0.6902 -1.6792  1.5567
15395TIP3   OH267599   2.610   0.150   3.365  0.4638  0.9510 -1.1900
15395TIP3    H167600   2.530   0.194   3.336 -0.4019 -0.3631 -0.8624
15395TIP3    H267601   2.636   0.197   3.444 -1.2883 -0.0223  0.0009
15396TIP3   OH267602   4.158   0.377  14.530  0.2672 -0.3360  0.2298
15396TIP3    H167603   4.103   0.306  14.564 -2.5681  1.0839 -1.1892
15396TIP3    H267604   4.247   0.353  14.554 -0.9652 -2.8065  2.4932
15397TIP3   OH267605   5.955   5.762  14.534 -0.6819 -0.1215 -0.3561
15397TIP3    H167606   5.984   5.791  14.447 -0.8410 -0.9791 -0.7013
15397TIP3    H267607   5.899   5.687  14.516 -0.3505 -0.5802  0.5252
15398TIP3   OH267608   2.141   3.573   0.485 -0.2415 -0.2631 -0.0576
15398TIP3    H167609   2.081   3.639   0.519 -0.7610 -1.8052  2.1559
15398TIP3    H267610   2.199   3.552   0.558 -2.2263 -4.6419  0.4412
15399TIP3   OH267611   5.739   0.939  10.658 -0.0408  0.5006 -0.7910
15399TIP3    H167612   5.717   0.918  10.567 -0.6418  0.1475 -0.5679
15399TIP3    H267613   5.794   0.866  10.687 -3.7309 -1.8733  0.5956
15400TIP3   OH267614   2.630   6.381  15.093 -0.1211  0.2095  0.3131
15400TIP3    H167615   2.569   6.331  15.039  0.5840  0.5966 -0.8606
15400TIP3    H267616   2.707   6.325  15.101  1.0825  1.4900 -1.8720
15401TIP3   OH267617   2.611   6.558  17.045 -0.0774 -0.1732  0.5123
15401TIP3    H167618   2.637   6.576  16.955  0.8836 -0.2140  0.7683
15401TIP3    H267619   2.557   6.479  17.040 -0.0277 -0.1708 -0.0264
15402TIP3   OH267620   3.837   1.020  15.551  0.2468  0.5321  0.6090
15402TIP3    H167621   3.746   0.993  15.540 -0.1460  1.8474  0.4903
15402TIP3    H267622   3.848   1.031  15.645  0.5670 -0.5871  0.6988
15403TIP3   OH267623   3.574   4.257  11.379  0.6920 -0.1788 -0.2899
15403TIP3    H167624   3.487   4.259  11.338  0.8504  1.1951 -0.5902
15403TIP3    H267625   3.601   4.166  11.374  0.0824 -0.2818 -1.9569
15404TIP3   OH267626   0.170   0.502  12.003 -0.3965 -0.1560 -0.5062
15404TIP3    H167627   0.194   0.444  11.931  0.9659  1.7475 -1.6573
15404TIP3    H267628   0.253   0.540  12.032 -0.7686 -1.8228  2.9408
15405TIP3   OH267629   6.055   3.414   4.829 -0.3659  0.3269 -0.3274
15405TIP3    H167630   6.031   3.330   4.869 -1.3641  0.8254  0.1460
15405TIP3    H267631   6.074   3.471   4.903  1.8845  0.0853 -0.6834
15406TIP3   OH267632   6.550   5.684  15.028  1.4174 -0.1844  0.6366
15406TIP3    H167633   6.630   5.663  14.980 -0.7135 -0.4353 -3.0557
15406TIP3    H267634   6.538   5.778  15.016  1.6318  0.0207  1.9672
15407TIP3   OH267635   2.415   4.328   0.142 -0.1752  0.1913  0.2172
15407TIP3    H167636   2.471   4.271   0.194 -0.1993 -1.2852 -1.3428
15407TIP3    H267637   2.344   4.271   0.111 -1.2234  1.4886  0.1817
15408TIP3   OH267638   4.349   5.269  15.114 -0.3955 -0.2411 -0.4876
15408TIP3    H167639   4.417   5.317  15.066 -0.8996  0.4849 -0.4734
15408TIP3    H267640   4.325   5.327  15.186  1.1865 -1.7998  1.3489
15409TIP3   OH267641   0.770   3.674  15.134  0.8151  0.9968 -0.2083
15409TIP3    H167642   0.861   3.651  15.151  0.0683 -2.7289 -0.7645
15409TIP3    H267643   0.729   3.679  15.220  1.0894  0.5890 -0.0555
15410TIP3   OH267644   6.171   5.169  15.900 -0.1315 -0.5273 -0.1646
15410TIP3    H167645   6.237   5.238  15.902  1.4918 -2.0963  1.3601
15410TIP3    H267646   6.100   5.202  15.955  0.1558  0.3756 -0.3265
15411TIP3   OH267647   1.597   5.470   3.632 -0.6320  0.0404  0.7253
15411TIP3    H167648   1.682   5.426   3.641 -0.4666  0.5850  1.8960
15411TIP3    H267649   1.598   5.538   3.699 -1.6970  0.5426  0.2432
15412TIP3   OH267650   4.352   2.893  10.892 -0.3217  0.3145  0.1802
15412TIP3    H167651   4.261   2.913  10.913 -0.0410 -0.3429  2.1057
15412TIP3    H267652   4.359   2.798  10.903  0.4183  0.2641 -0.6898
15413TIP3   OH267653   5.208   5.935   0.058 -0.0033 -0.1462 -0.3845
15413TIP3    H167654   5.254   5.851   0.060 -0.3309 -0.3631 -1.5180
15413TIP3    H267655   5.159   5.933  -0.024 -0.5002  0.8975 -0.1153
15414TIP3   OH267656   5.257   6.610   4.789 -0.4330  0.5021  1.0182
15414TIP3    H167657   5.257   6.515   4.804 -0.4687  0.5252  1.1658
15414TIP3    H267658   5.244   6.620   4.695 -2.6007  0.4143  1.2839
15415TIP3   OH267659   0.407   0.508   4.904  0.0762 -0.2166 -0.2172
15415TIP3    H167660   0.406   0.435   4.842  0.9911 -0.9005  0.5423
15415TIP3    H267661   0.376   0.470   4.986 -1.4713  0.7661 -0.3341
15416TIP3   OH267662   6.121   2.065   3.134 -0.0569  0.6118  0.2942
15416TIP3    H167663   6.131   2.030   3.045  0.1329 -0.5311  0.7483
15416TIP3    H267664   6.026   2.070   3.147 -0.0855  0.6817  0.0604
15417TIP3   OH267665   5.660   5.368  10.644  0.6355  0.1130  0.2019
15417TIP3    H167666   5.679   5.307  10.715 -0.1724  0.4235  0.6991
15417TIP3    H267667   5.599   5.321  10.588 -1.2022  0.9679  1.3971
15418TIP3   OH267668   2.264   0.585   0.845 -0.2026 -0.1449 -0.0928
15418TIP3    H167669   2.187   0.583   0.788  1.5388 -1.7556 -2.4679
15418TIP3    H267670   2.283   0.679   0.856 -1.4403  0.2182 -0.9622
15419TIP3   OH267671   0.372   1.933   2.191  0.4026 -0.3853  0.1771
15419TIP3    H167672   0.331   1.853   2.224  0.0064 -0.7359 -1.1371
15419TIP3    H267673   0.300   1.993   2.175  0.5015 -0.5387 -0.8940
15420TIP3   OH267674   0.562   1.497   5.123  0.1785 -0.1761 -0.3433
15420TIP3    H167675   0.507   1.545   5.061 -0.6903 -0.9776 -0.2064
15420TIP3    H267676   0.645   1.485   5.078  0.0254  0.4777 -0.8057
15421TIP3   OH267677   0.211   1.390  16.217 -0.0656  0.2390 -0.4461
15421TIP3    H167678   0.165   1.385  16.134 -0.1909  0.8580 -0.4149
15421TIP3    H267679   0.210   1.301  16.251 -1.3538  0.2832 -0.3764
15422TIP3   OH267680   1.918   4.995   6.421  0.0819 -0.0425 -0.0986
15422TIP3    H167681   1.990   5.016   6.363  0.1929 -0.5633 -0.1438
15422TIP3    H267682   1.890   5.080   6.456  0.6013  0.1732 -0.2104
15423TIP3   OH267683   3.587   5.025   4.947  0.3086  0.0894 -0.2593
15423TIP3    H167684   3.612   5.012   5.039  1.6283  2.6623 -0.1965
15423TIP3    H267685   3.492   5.025   4.948  0.2745 -2.3083  0.7132
15424TIP3   OH267686   2.713   5.177   5.921 -0.4032 -0.1081 -0.7333
15424TIP3    H167687   2.744   5.099   5.968 -0.3692  0.3078 -0.0623
15424TIP3    H267688   2.644   5.212   5.976  0.1857  0.8466 -0.5889
15425TIP3   OH267689   0.764   3.052   2.416 -0.0060 -0.1457 -0.1031
15425TIP3    H167690   0.698   3.116   2.443 -0.3110 -1.1138  1.5259
15425TIP3    H267691   0.714   2.972   2.400  0.7748 -0.8955  1.1761
15426TIP3   OH267692   2.664   4.078  12.269  0.2518 -0.3389  0.2011
15426TIP3    H167693   2.651   3.992  12.309  2.5075 -0.5466  0.5638
15426TIP3    H267694   2.749   4.071  12.226 -0.4762  1.0676 -1.5314
15427TIP3   OH267695   1.111   6.643  16.232 -0.7529  0.3012  0.1320
15427TIP3    H167696   1.065   6.596  16.163 -0.5444  0.3692 -0.0544
15427TIP3    H267697   1.151   6.718  16.188 -0.6715  0.3783  0.3349
15428TIP3   OH267698   1.253   2.744   2.376  0.4775  1.0354 -0.2091
15428TIP3    H167699   1.162   2.730   2.402  0.7620  2.2061  1.5211
15428TIP3    H267700   1.291   2.656   2.375 -0.5391  0.5908 -0.4431
15429TIP3   OH267701   3.505   4.612  12.734 -0.2113 -0.8729  0.4314
15429TIP3    H167702   3.437   4.634  12.671  2.0068  2.1333 -1.0433
15429TIP3    H267703   3.577   4.578  12.681  0.8149 -0.4731  1.5409
15430TIP3   OH267704   3.488   2.558   0.087 -0.3737 -0.2564  0.6067
15430TIP3    H167705   3.557   2.564   0.021 -1.5768 -1.8774 -0.8673
15430TIP3    H267706   3.522   2.497   0.152  0.4394  0.6156  1.0025
15431TIP3   OH267707   0.924   5.314  11.483  0.6788 -0.5573  0.1621
15431TIP3    H167708   0.877   5.372  11.543  1.8044 -0.5334  1.0349
15431TIP3    H267709   0.855   5.272  11.431 -0.2131  0.5286  0.4648
15432TIP3   OH267710   1.272   2.793  15.004 -0.0062  0.2757 -0.0675
15432TIP3    H167711   1.271   2.884  15.032  1.6973  0.8401 -1.7471
15432TIP3    H267712   1.254   2.797  14.910  3.0544 -0.8500 -0.7485
15433TIP3   OH267713   6.439   5.115   0.326  0.0282  0.1297  0.1214
15433TIP3    H167714   6.346   5.138   0.324 -0.1739 -0.7049 -0.1425
15433TIP3    H267715   6.457   5.102   0.419 -0.0302  0.6519  0.2070
15434TIP3   OH267716   1.728   4.176   2.640  0.3490  0.2807 -0.2452
15434TIP3    H167717   1.786   4.149   2.568 -0.9401 -1.0542 -0.8080
15434TIP3    H267718   1.651   4.119   2.631  0.9886 -1.2978  3.3546
15435TIP3   OH267719   3.872   4.522  16.595 -0.2325 -0.0851  0.3495
15435TIP3    H167720   3.921   4.525  16.513  1.5862 -0.7019  1.3982
15435TIP3    H267721   3.926   4.469  16.654 -0.6012  1.8742  2.5218
15436TIP3   OH267722   6.273   4.787  12.681 -0.2062 -0.0362  0.4186
15436TIP3    H167723   6.237   4.770  12.769  0.6889 -1.7508  0.4705
15436TIP3    H267724   6.363   4.813  12.697 -0.0499 -0.3341 -0.0011
15437TIP3   OH267725   4.061   3.550   1.527 -0.0931  0.5877 -0.1909
15437TIP3    H167726   4.035   3.617   1.464  1.5432  0.4682 -1.0245
15437TIP3    H267727   4.122   3.595   1.585  0.3872  0.0311 -0.2652
15438TIP3   OH267728   2.587   0.679  14.740 -0.1672  0.2773  0.4401
15438TIP3    H167729   2.677   0.675  14.709  0.1245  0.3200  1.2622
15438TIP3    H267730   2.544   0.742  14.682 -0.6937 -2.6070 -2.4184
15439TIP3   OH267731   3.283   4.194   1.435  0.4114  0.4126 -0.4788
15439TIP3    H167732   3.283   4.106   1.397  3.4064 -0.0163  0.4182
15439TIP3    H267733   3.246   4.182   1.523 -1.1620  0.4378 -1.1225
15440TIP3   OH267734   5.301   4.662   2.412  0.1727  0.3332  0.0197
15440TIP3    H167735   5.315   4.623   2.499  0.5416  1.6395  0.5558
15440TIP3    H267736   5.221   4.713   2.421  0.8071  1.3532 -0.1032
15441TIP3   OH267737   5.176   0.137   0.742  0.1490 -0.6538 -0.4966
15441TIP3    H167738   5.244   0.072   0.730 -0.1348 -0.7438 -1.7410
15441TIP3    H267739   5.207   0.214   0.693 -0.6116 -0.6850 -1.0453
15442TIP3   OH267740   1.649   3.117  11.182 -0.1404 -0.5783 -0.9947
15442TIP3    H167741   1.595   3.083  11.110 -2.2070  0.4479  0.0430
15442TIP3    H267742   1.624   3.209  11.189  0.0489 -0.6712  1.0614
15443TIP3   OH267743   1.511   6.649  14.244  0.1507  0.2804 -0.2348
15443TIP3    H167744   1.601   6.619  14.255  0.2168  0.6948  0.3869
15443TIP3    H267745   1.501   6.719  14.308 -0.0558  1.4675 -1.5314
15444TIP3   OH267746   5.868   1.098  14.259  0.1939 -0.7012 -0.0447
15444TIP3    H167747   5.839   1.067  14.173 -1.4541 -0.8816  0.5623
15444TIP3    H267748   5.876   1.018  14.311  0.5919 -0.5325  0.1561
15445TIP3   OH267749   3.004   5.056   1.753 -0.1921 -0.7332 -1.1195
15445TIP3    H167750   3.005   4.978   1.809  1.1628  0.3186  0.3702
15445TIP3    H267751   2.941   5.115   1.795  0.4368 -0.1562 -0.9652
15446TIP3   OH267752   0.750   5.641   5.679 -0.2956 -0.1608 -0.3320
15446TIP3    H167753   0.737   5.563   5.733  0.4973 -1.0207 -1.3411
15446TIP3    H267754   0.791   5.705   5.738 -0.4502 -0.7007  0.3659
15447TIP3   OH267755   5.894   5.864   1.737  0.1672  0.9023  0.1902
15447TIP3    H167756   5.969   5.882   1.792  0.7679 -0.3279 -0.1993
15447TIP3    H267757   5.840   5.943   1.743  1.2740  1.6284  0.8030
15448TIP3   OH267758   3.809   1.755   2.755 -0.1953 -0.1763  0.6047
15448TIP3    H167759   3.859   1.777   2.833  0.7150  1.2954 -0.3792
15448TIP3    H267760   3.874   1.726   2.691 -0.6296  1.0787 -0.4441
15449TIP3   OH267761   4.081   3.853   4.316  0.0662  0.2641 -0.1219
15449TIP3    H167762   4.108   3.919   4.252 -1.9130  1.1594 -0.0581
15449TIP3    H267763   4.089   3.770   4.268  1.9658  0.5762 -0.3949
15450TIP3   OH267764   0.667   6.604  16.364 -0.7024 -0.0541 -0.3177
15450TIP3    H167765   0.748   6.556  16.381  1.1334  2.8078 -0.6271
15450TIP3    H267766   0.642   6.640  16.450 -0.4743  0.7882 -0.5964
15451TIP3   OH267767   2.197   2.957  11.951  0.2591 -0.2383  0.2030
15451TIP3    H167768   2.153   2.872  11.946  1.0355 -0.6636  0.3491
15451TIP3    H267769   2.211   2.971  12.045 -1.1052  0.7139  0.2683
15452TIP3   OH267770   2.723   5.709   3.915  0.3910 -0.1907  0.0157
15452TIP3    H167771   2.678   5.787   3.948 -1.0559 -1.1279  0.3131
15452TIP3    H267772   2.674   5.684   3.837  1.5229 -0.1820 -0.7156
15453TIP3   OH267773   6.030   1.837  12.376  0.3888 -1.0483  0.3328
15453TIP3    H167774   5.981   1.759  12.404 -1.7412 -0.4215 -1.5011
15453TIP3    H267775   6.017   1.840  12.281 -0.1267  1.9195  0.4506
15454TIP3   OH267776   4.074   5.584   0.724 -0.1545  0.4969  0.1916
15454TIP3    H167777   4.073   5.597   0.819  3.8041 -0.5989  0.4500
15454TIP3    H267778   4.062   5.489   0.713  1.2824  0.3732 -0.3212
15455TIP3   OH267779   4.814   4.327   1.161  0.0772 -0.4695 -0.0181
15455TIP3    H167780   4.814   4.232   1.172  1.0892 -0.3186  1.4952
15455TIP3    H267781   4.903   4.353   1.185  0.3296  0.6841 -2.1392
15456TIP3   OH267782   1.866   0.243  11.447 -0.0385  0.4303 -0.0041
15456TIP3    H167783   1.947   0.282  11.479  0.3446 -0.4927  0.1687
15456TIP3    H267784   1.848   0.289  11.365  1.4075 -0.3142 -0.7429
15457TIP3   OH267785   0.456   1.296  12.284 -0.3337  0.1504 -0.1034
15457TIP3    H167786   0.508   1.337  12.215  0.0888 -0.7935 -0.3533
15457TIP3    H267787   0.508   1.221  12.312 -0.6822  0.3087  0.9805
15458TIP3   OH267788   0.510   1.177   5.457  0.3666 -0.2337  0.1790
15458TIP3    H167789   0.419   1.151   5.474  0.3676  0.3837  1.1617
15458TIP3    H267790   0.520   1.166   5.363 -0.6088 -0.6976  0.1181
15459TIP3   OH267791   1.052   6.055   2.768  0.1855 -0.2003  0.0170
15459TIP3    H167792   1.091   6.103   2.695  1.3807 -0.1851  0.6589
15459TIP3    H267793   1.125   6.037   2.827 -0.8697  0.2753  1.4786
15460TIP3   OH267794   3.232   2.935  15.328 -0.2674 -0.1913 -0.2103
15460TIP3    H167795   3.258   2.866  15.268 -0.2340  0.4149 -0.8913
15460TIP3    H267796   3.314   2.977  15.354 -0.3398 -0.0148 -0.2680
15461TIP3   OH267797   1.902   3.434   0.570 -0.2652  0.0310  0.6679
15461TIP3    H167798   1.860   3.437   0.484 -0.0451 -0.8481  0.5324
15461TIP3    H267799   1.988   3.475   0.556 -0.0251 -0.5754  0.3530
15462TIP3   OH267800   0.521   4.602  17.190  0.2165  0.1650 -0.0161
15462TIP3    H167801   0.505   4.577  17.099  2.1333  2.1901 -0.9818
15462TIP3    H267802   0.598   4.553  17.215  1.1703  1.4589 -0.3485
15463TIP3   OH267803   0.698   3.342  13.766  0.5674 -0.0528 -0.1455
15463TIP3    H167804   0.786   3.369  13.792  1.0447 -0.8397 -0.9057
15463TIP3    H267805   0.647   3.345  13.847  0.8464  2.1639 -0.0357
15464TIP3   OH267806   6.501   6.026   5.632 -0.4354 -0.1755 -0.4484
15464TIP3    H167807   6.562   5.976   5.577  0.2437  0.0134  0.1276
15464TIP3    H267808   6.542   6.111   5.642  1.3638 -1.3895  3.5028
15465TIP3   OH267809   2.780   2.098   3.012 -0.3599 -0.3208  0.4624
15465TIP3    H167810   2.824   2.082   3.095 -0.7093 -1.1355  0.4977
15465TIP3    H267811   2.739   2.184   3.023 -0.4205 -0.4329  1.1401
15466TIP3   OH267812   4.112   2.029  11.330  0.5789 -0.2287 -0.5089
15466TIP3    H167813   4.061   1.951  11.351  1.4983 -0.8633 -0.5626
15466TIP3    H267814   4.089   2.050  11.240 -0.7185  0.3964 -0.0392
15467TIP3   OH267815   5.395   4.805  15.147 -0.1955 -0.4199  0.5374
15467TIP3    H167816   5.394   4.867  15.220 -1.3518 -0.7246  0.8108
15467TIP3    H267817   5.406   4.859  15.069 -3.0239  0.3736  0.6039
15468TIP3   OH267818   5.031   4.619  13.837  0.5806  0.1973  0.5430
15468TIP3    H167819   5.117   4.660  13.824  0.4852 -0.1746 -1.3306
15468TIP3    H267820   5.018   4.623  13.932  2.0935  1.4117  0.7362
15469TIP3   OH267821   5.918   1.964  14.264 -0.2741 -0.4986 -0.0839
15469TIP3    H167822   5.891   1.965  14.355  0.7407 -1.4138  0.2384
15469TIP3    H267823   5.952   2.052  14.248 -0.7823 -0.2323  0.3179
15470TIP3   OH267824   6.380   2.183  13.820 -0.5237  0.1832  0.0491
15470TIP3    H167825   6.360   2.109  13.763 -0.4542 -0.8414  1.3509
15470TIP3    H267826   6.457   2.155  13.870 -0.7621  0.9587  0.8619
15471TIP3   OH267827   2.163   4.075   6.652  0.3826  0.1004  0.5499
15471TIP3    H167828   2.149   4.002   6.592  0.7710  0.3941  0.0906
15471TIP3    H267829   2.122   4.048   6.734 -1.8341  0.4916 -0.4127
15472TIP3   OH267830   0.823   2.619  13.163  0.1806  0.0519 -0.0086
15472TIP3    H167831   0.908   2.625  13.206  0.5031  3.0122 -0.9493
15472TIP3    H267832   0.815   2.527  13.138  2.2798 -0.6325  1.7170
15473TIP3   OH267833   1.232   3.508  14.833 -0.0262  0.2760  0.2626
15473TIP3    H167834   1.290   3.451  14.883 -1.7392 -1.0940  0.6899
15473TIP3    H267835   1.144   3.483  14.859 -0.8416  2.3484 -0.3854
15474TIP3   OH267836   2.000   5.371   3.951 -0.1124  0.8777 -0.0875
15474TIP3    H167837   2.025   5.377   4.043 -1.3793 -1.4360  0.4430
15474TIP3    H267838   1.905   5.384   3.951  0.0940  2.4967 -1.2591
15475TIP3   OH267839   1.161   5.121  13.751  0.4815  0.1425 -0.3365
15475TIP3    H167840   1.106   5.117  13.673 -0.3709 -0.0016  0.2672
15475TIP3    H267841   1.212   5.202  13.741  1.1336 -0.4108 -1.5365
15476TIP3   OH267842   6.782   4.177   0.630  0.2734  0.7342  0.0940
15476TIP3    H167843   6.823   4.125   0.561  0.8034  0.5287  0.5559
15476TIP3    H267844   6.691   4.149   0.630  0.8952 -1.4378  1.4583
15477TIP3   OH267845   6.691   4.968   5.276 -0.0235  0.4534  0.4766
15477TIP3    H167846   6.620   4.925   5.230 -1.2599  0.1427  2.6114
15477TIP3    H267847   6.740   4.896   5.317 -0.9726  0.9022  2.4685
15478TIP3   OH267848   6.585   4.891  15.110 -0.2600 -0.0759  0.5129
15478TIP3    H167849   6.676   4.891  15.079 -0.4351 -1.2572 -0.0522
15478TIP3    H267850   6.533   4.896  15.029 -0.7014 -0.4185  0.7741
15479TIP3   OH267851   2.640   0.959   5.042  0.2725 -0.4458  0.5271
15479TIP3    H167852   2.647   1.038   5.095  0.2717 -0.2229  0.1939
15479TIP3    H267853   2.724   0.954   4.996 -0.7938  0.9365 -1.6531
15480TIP3   OH267854   4.553   3.569  13.237 -0.0854  0.5108  0.1153
15480TIP3    H167855   4.594   3.556  13.151  1.5824  2.2917  0.6058
15480TIP3    H267856   4.481   3.630  13.221 -0.6051 -0.1904 -0.2302
15481TIP3   OH267857   4.126   4.319   2.063  0.1629  0.0906  0.1223
15481TIP3    H167858   4.209   4.365   2.051 -0.5800  1.7149  1.0159
15481TIP3    H267859   4.068   4.384   2.103 -2.3366 -0.1871 -2.8290
15482TIP3   OH267860   5.690   6.058   4.575  0.0768 -0.3989 -0.0297
15482TIP3    H167861   5.729   5.971   4.573 -0.3204 -0.5630 -2.8882
15482TIP3    H267862   5.722   6.100   4.496 -0.9400  1.5283  0.5459
15483TIP3   OH267863   2.741   5.221   1.295  0.0652 -0.3996 -0.4579
15483TIP3    H167864   2.673   5.178   1.348 -2.7590  3.6697 -0.4993
15483TIP3    H267865   2.816   5.229   1.354 -0.3986 -2.5142  0.4865
15484TIP3   OH267866   4.020   2.415  12.015 -0.0913  0.2748 -0.2083
15484TIP3    H167867   3.929   2.420  11.987 -0.8405 -0.5881  1.9598
15484TIP3    H267868   4.043   2.322  12.006  0.3247  0.3616 -0.0534
15485TIP3   OH267869   6.773   1.299   3.692 -0.2834 -0.4412  0.2352
15485TIP3    H167870   6.714   1.243   3.741 -0.4901 -1.7980 -1.5312
15485TIP3    H267871   6.794   1.370   3.753 -3.6487  0.0428  0.9256
15486TIP3   OH267872   6.708   3.490  11.339 -0.3243  0.6699 -0.3508
15486TIP3    H167873   6.680   3.433  11.410 -0.4559 -1.6143 -2.1685
15486TIP3    H267874   6.691   3.439  11.260  0.4837  2.8670 -1.9842
15487TIP3   OH267875   0.977   2.788   2.412 -0.1611 -0.4906 -0.5707
15487TIP3    H167876   0.940   2.716   2.463 -1.0760 -2.1866 -3.4580
15487TIP3    H267877   0.903   2.847   2.397  0.5804  1.0717  1.7608
15488TIP3   OH267878   2.926   5.615  13.904 -0.6542  0.6389 -0.4390
15488TIP3    H167879   3.000   5.675  13.893 -0.4452  0.3101 -0.8666
15488TIP3    H267880   2.886   5.641  13.987  0.5668  0.1493  0.3164
15489TIP3   OH267881   5.889   3.874   3.704 -0.4344 -0.2584  0.7655
15489TIP3    H167882   5.837   3.808   3.658  0.9943 -0.2295 -0.9401
15489TIP3    H267883   5.856   3.958   3.671  2.2168 -0.2689 -2.1486
15490TIP3   OH267884   6.393   1.350   5.455  0.0765 -0.6959  0.0045
15490TIP3    H167885   6.350   1.358   5.540 -0.7397  1.5547 -0.5754
15490TIP3    H267886   6.333   1.298   5.403 -0.7011  0.1706  0.0185
15491TIP3   OH267887   6.642   3.736   5.792  0.2476 -0.2099 -0.7446
15491TIP3    H167888   6.558   3.728   5.748 -0.5407 -1.7370  0.9304
15491TIP3    H267889   6.684   3.651   5.779  0.1147 -0.5961  1.1292
15492TIP3   OH267890   1.796   3.196  15.140  1.1453 -0.3309 -0.0755
15492TIP3    H167891   1.791   3.257  15.067  3.0944 -1.4572 -1.2256
15492TIP3    H267892   1.722   3.217  15.196  0.6042  1.6739 -1.5256
15493TIP3   OH267893   2.065   6.071   3.541 -0.0879 -0.1008  0.0969
15493TIP3    H167894   2.058   6.050   3.634  0.4054  1.1453  0.4305
15493TIP3    H267895   1.977   6.058   3.507  0.1311 -2.3689  0.3360
15494TIP3   OH267896   4.776   5.886  11.250  0.6260 -0.4122 -0.1548
15494TIP3    H167897   4.870   5.867  11.249  0.9402  1.0935 -0.8796
15494TIP3    H267898   4.742   5.843  11.172  0.9115 -0.0429 -0.4878
15495TIP3   OH267899   1.281   5.359   2.032  0.2321 -0.3724  0.3561
15495TIP3    H167900   1.331   5.428   1.988  0.5862 -1.2187 -0.5842
15495TIP3    H267901   1.326   5.347   2.116  1.3350 -0.7849 -0.2745
15496TIP3   OH267902   4.923   3.494   4.890 -0.3243 -0.2595  0.3102
15496TIP3    H167903   4.972   3.490   4.972  1.8770  0.2890 -0.9624
15496TIP3    H267904   4.840   3.535   4.914  1.3171  2.3299  1.7885
15497TIP3   OH267905   4.811   6.210  14.959 -0.7297 -0.2429  0.4844
15497TIP3    H167906   4.847   6.257  14.884 -0.0933  1.6645  1.9207
15497TIP3    H267907   4.784   6.125  14.925 -1.9147  1.1733 -2.2228
15498TIP3   OH267908   1.971   4.789  13.263  0.1766 -0.3352  0.2012
15498TIP3    H167909   2.006   4.827  13.343 -0.0501 -1.2999  0.7577
15498TIP3    H267910   2.047   4.751  13.219  0.3217  0.3072 -0.1108
15499TIP3   OH267911   2.381   2.604   5.148  0.1423  0.5346  0.0319
15499TIP3    H167912   2.389   2.515   5.183  0.5643  0.7821  0.5650
15499TIP3    H267913   2.455   2.651   5.185 -1.0287  1.5674  1.0814
15500TIP3   OH267914   1.988   6.272   5.827 -0.4189 -0.0777  0.1015
15500TIP3    H167915   2.080   6.246   5.831 -0.5073 -0.3242  0.5975
15500TIP3    H267916   1.971   6.313   5.912 -1.3494 -2.0089  0.8812
15501TIP3   OH267917   4.498   0.489  16.964 -0.2444  0.7272  0.9680
15501TIP3    H167918   4.558   0.563  16.959  0.7509 -0.1390 -0.4158
15501TIP3    H267919   4.541   0.427  17.023  0.0125  0.3122  0.3576
15502TIP3   OH267920   6.486   1.464   3.391 -0.2958 -0.0186  0.5748
15502TIP3    H167921   6.579   1.443   3.384 -0.3391  0.0111 -0.0553
15502TIP3    H267922   6.444   1.380   3.413 -0.2854 -0.3089 -0.4844
15503TIP3   OH267923   1.499   1.443   2.238  0.0844  1.0907 -0.2168
15503TIP3    H167924   1.451   1.364   2.213 -0.6601  1.2901  0.5513
15503TIP3    H267925   1.568   1.452   2.172  1.6046 -1.4651  0.9341
15504TIP3   OH267926   5.645   0.906   0.565 -0.0913  0.1765  1.0661
15504TIP3    H167927   5.650   0.837   0.499 -0.0878 -0.2426  1.5027
15504TIP3    H267928   5.736   0.934   0.576  0.1110 -0.8085  1.9989
15505TIP3   OH267929   4.612   1.159   1.209 -0.2189 -0.3891  0.2609
15505TIP3    H167930   4.564   1.091   1.258 -1.5364  0.1315 -0.2663
15505TIP3    H267931   4.550   1.186   1.141  0.1044  1.7024  0.7805
15506TIP3   OH267932   0.936   5.016  14.550  0.2654  0.6285  0.0976
15506TIP3    H167933   1.020   5.054  14.575  0.8933  0.0305 -1.1011
15506TIP3    H267934   0.933   4.931  14.594 -0.2493  1.1548  1.1119
15507TIP3   OH267935   1.027   2.916  14.292  0.0749 -0.2822  0.9635
15507TIP3    H167936   1.035   2.829  14.331 -0.0299 -0.2804  0.9886
15507TIP3    H267937   1.071   2.974  14.353  2.1347 -0.6187 -0.1419
15508TIP3   OH267938   6.161   1.104  15.801  0.0783 -0.4651  0.1720
15508TIP3    H167939   6.120   1.190  15.795 -1.6059 -1.2184  0.4569
15508TIP3    H267940   6.178   1.092  15.894 -0.1252 -0.6251  0.1897
15509TIP3   OH267941   0.067   4.546  15.796 -0.7769  0.3911  0.2859
15509TIP3    H167942  -0.003   4.483  15.776 -0.9576  0.8043 -0.3862
15509TIP3    H267943   0.061   4.612  15.727 -0.8037  1.3321  1.1714
15510TIP3   OH267944   5.455   2.541  14.411  0.2279  0.1753  0.6734
15510TIP3    H167945   5.532   2.586  14.446  0.5807 -1.1895  1.6966
15510TIP3    H267946   5.453   2.458  14.458 -1.0552 -0.4020 -0.3851
15511TIP3   OH267947   1.660   5.605  11.729  0.7244 -0.1184  0.0268
15511TIP3    H167948   1.613   5.552  11.664  0.4436  1.6991 -1.2777
15511TIP3    H267949   1.638   5.565  11.813 -2.0823 -0.1280 -0.6684
15512TIP3   OH267950   2.109   5.421  15.155 -0.2575 -0.2306  0.3319
15512TIP3    H167951   2.128   5.329  15.137 -0.1369  0.0798 -1.2039
15512TIP3    H267952   2.014   5.427  15.154 -0.2455  0.1794 -2.4618
15513TIP3   OH267953   4.842   4.161  15.754  0.4091 -0.3311 -0.1688
15513TIP3    H167954   4.935   4.162  15.733  0.0638 -2.1813 -1.8988
15513TIP3    H267955   4.806   4.238  15.710  1.3445  1.2356  1.7360
15514TIP3   OH267956   4.519   1.713  11.008 -0.2856  0.1937 -0.3953
15514TIP3    H167957   4.573   1.776  11.056  0.3939  0.8395 -1.9714
15514TIP3    H267958   4.559   1.628  11.027  0.1572  0.4769 -0.0511
15515TIP3   OH267959   0.002   2.859  10.649  0.1192  0.1034 -0.0114
15515TIP3    H167960   0.031   2.950  10.650 -0.0077  0.1340  0.8668
15515TIP3    H267961   0.081   2.808  10.634  0.7330  0.1501  2.9069
15516TIP3   OH267962   6.207   5.971  13.690 -0.1319  0.4199 -0.1706
15516TIP3    H167963   6.268   5.931  13.751  1.3295  1.9132 -0.6234
15516TIP3    H267964   6.171   6.046  13.737  0.7784  1.4041 -1.0235
15517TIP3   OH267965   3.187   5.311   3.088 -0.4255 -0.2043  0.1967
15517TIP3    H167966   3.251   5.337   3.022  1.5601  0.6061  2.3646
15517TIP3    H267967   3.104   5.345   3.055  1.0301  2.9607 -0.3652
15518TIP3   OH267968   1.815   2.517  13.871  0.1739  0.5510  0.5034
15518TIP3    H167969   1.845   2.565  13.949 -0.7173  0.2399  1.0392
15518TIP3    H267970   1.754   2.452  13.905  0.4979 -0.2125 -0.3558
15519TIP3   OH267971   0.245   4.279  16.507  0.0161 -0.0828  0.4505
15519TIP3    H167972   0.324   4.250  16.461  0.1539  0.9054  0.0612
15519TIP3    H267973   0.236   4.217  16.580  1.3848  0.0540  0.7395
15520TIP3   OH267974   4.104   1.455   1.933 -0.6834 -0.0457  0.2529
15520TIP3    H167975   4.193   1.467   1.967  0.4947 -5.8838 -0.2524
15520TIP3    H267976   4.114   1.458   1.838 -1.0109 -0.5656  0.2006
15521TIP3   OH267977   0.063   0.954  15.545  0.5249  0.4409 -0.9797
15521TIP3    H167978   0.098   0.867  15.524 -0.4054 -0.0398 -0.5912
15521TIP3    H267979   0.140   1.006  15.567  1.0250 -0.5514 -0.2958
15522TIP3   OH267980   4.295   5.082   1.423 -0.5828 -0.5101  0.4374
15522TIP3    H167981   4.343   4.998   1.421  0.9740  0.3363  1.3503
15522TIP3    H267982   4.279   5.098   1.515  1.4215  1.4402  0.4905
15523TIP3   OH267983   0.400   0.634   2.476  0.4420  0.6872  0.4244
15523TIP3    H167984   0.362   0.548   2.460 -0.0769  0.7996  1.0122
15523TIP3    H267985   0.494   0.619   2.479  0.4968  0.5209 -1.7316
15524TIP3   OH267986   3.858   1.607  14.577  0.1770 -0.3839 -0.1833
15524TIP3    H167987   3.894   1.696  14.579 -2.0086  0.5198  2.2699
15524TIP3    H267988   3.780   1.614  14.522 -1.5033 -0.0955  2.1484
15525TIP3   OH267989   0.254   2.977  16.490  0.4792 -0.3985  0.1647
15525TIP3    H167990   0.307   2.902  16.517 -0.4020 -1.4071 -0.8384
15525TIP3    H267991   0.164   2.946  16.495 -0.1038  1.4968  2.4411
15526TIP3   OH267992   5.634   1.794  10.795 -0.3709  0.2312 -0.2150
15526TIP3    H167993   5.714   1.741  10.792 -0.1634  0.6228 -2.4969
15526TIP3    H267994   5.663   1.882  10.771 -1.0072  1.0369  1.9074
15527TIP3   OH267995   4.107   0.230   1.467 -0.0384  0.1863 -0.4279
15527TIP3    H167996   4.192   0.209   1.427 -0.5679 -0.7211 -1.0917
15527TIP3    H267997   4.113   0.194   1.555 -0.2630 -1.1700 -0.9563
15528TIP3   OH267998   0.497   6.018   5.115  0.1439  0.0357 -1.1791
15528TIP3    H167999   0.438   6.040   5.186  0.2463 -0.7240 -0.8527
15528TIP3    H268000   0.581   6.000   5.158  0.6967  1.3672 -1.6575
15529TIP3   OH268001   3.174   1.031   4.347 -0.1905 -0.4365 -0.2094
15529TIP3    H168002   3.089   1.034   4.302 -0.4393  0.4048  0.3034
15529TIP3    H268003   3.214   0.950   4.317 -0.2372  0.2482 -2.1676
15530TIP3   OH268004   4.913   3.397   4.444  0.2029  0.6308  0.6846
15530TIP3    H168005   5.002   3.423   4.467  0.8216 -0.3307 -0.5449
15530TIP3    H268006   4.899   3.316   4.493  0.3416  0.3052  0.1918
15531TIP3   OH268007   0.439   4.064   1.728 -0.7395  0.2294 -0.3615
15531TIP3    H168008   0.360   4.039   1.678 -0.5407 -0.8065 -0.1840
15531TIP3    H268009   0.504   4.085   1.661 -1.0370  0.6654 -0.5147
15532TIP3   OH268010   4.610   4.645   5.913 -0.1055 -0.0383  0.2333
15532TIP3    H168011   4.528   4.597   5.908  0.1166 -0.5569  1.3012
15532TIP3    H268012   4.634   4.641   6.006 -0.0556  2.0924  0.3241
15533TIP3   OH268013   0.638   2.859  16.379 -0.2015 -0.1012  0.2393
15533TIP3    H168014   0.703   2.917  16.419  2.4934 -1.1391 -2.4863
15533TIP3    H268015   0.579   2.918  16.333  1.9166  0.6441 -1.6462
15534TIP3   OH268016   3.852   0.355  14.830  0.1735  0.0140  0.1455
15534TIP3    H168017   3.825   0.445  14.817 -0.0571  0.0075  0.5712
15534TIP3    H268018   3.879   0.350  14.922  0.5223 -0.2602  0.0313
15535TIP3   OH268019   6.090   2.938   6.177  0.4939 -0.6187 -0.0145
15535TIP3    H168020   6.049   2.882   6.242 -0.2821 -1.0554 -0.8689
15535TIP3    H268021   6.112   3.018   6.224 -1.6619 -0.2341  0.3839
15536TIP3   OH268022   0.048   5.778  17.203  0.1924 -0.1581  0.0955
15536TIP3    H168023   0.003   5.763  17.286  2.6140 -1.3294  1.2762
15536TIP3    H268024   0.036   5.871  17.185 -0.1760  0.1561  1.9068
15537TIP3   OH268025   2.157   6.056   4.761  0.1481 -0.3661  0.1362
15537TIP3    H168026   2.224   6.121   4.740  1.3576 -1.0123  1.9549
15537TIP3    H268027   2.146   6.006   4.680  1.7410 -0.1527 -0.2312
15538TIP3   OH268028   3.026   1.090   5.092  0.1746 -0.5387  0.4065
15538TIP3    H168029   3.114   1.058   5.115  0.0191 -1.1909  0.1095
15538TIP3    H268030   3.008   1.158   5.157  1.8200  1.1966 -0.8567
15539TIP3   OH268031   4.539   2.501  12.024  0.3106 -0.9641  0.0554
15539TIP3    H168032   4.496   2.435  12.080  2.2845  0.4051  3.3488
15539TIP3    H268033   4.630   2.471  12.017  0.9873  0.8797  0.7842
15540TIP3   OH268034   0.824   4.121  14.071  0.1298 -0.3936 -0.8427
15540TIP3    H168035   0.792   4.212  14.073 -1.0254 -0.8188  0.7791
15540TIP3    H268036   0.756   4.074  14.023  0.3616 -0.5461 -1.0204
15541TIP3   OH268037   5.101   5.305  13.669 -0.5067  0.2549  0.2740
15541TIP3    H168038   5.086   5.218  13.707  2.1307 -0.3455  0.0120
15541TIP3    H268039   5.035   5.313  13.600  0.3890 -2.2967 -0.9311
15542TIP3   OH268040   5.129   0.681   3.427  0.4537 -0.0593  0.3759
15542TIP3    H168041   5.065   0.733   3.380 -0.3387 -1.1521  0.2142
15542TIP3    H268042   5.128   0.716   3.516 -0.2274  0.0575  0.3266
15543TIP3   OH268043   3.256   2.177   5.389 -0.1736 -0.1669 -0.1233
15543TIP3    H168044   3.292   2.155   5.304  0.4618  0.2568  0.0343
15543TIP3    H268045   3.264   2.096   5.440 -0.5967 -0.4338 -0.4675
15544TIP3   OH268046   4.601   5.983   5.252  0.1629  0.3860 -0.5691
15544TIP3    H168047   4.634   5.943   5.333 -1.6018 -1.8227 -0.8845
15544TIP3    H268048   4.528   6.039   5.282  0.3954  0.6533 -0.4972
15545TIP3   OH268049   5.445   2.031   4.202 -0.1745 -0.3523 -0.2046
15545TIP3    H168050   5.420   2.017   4.111  1.6857  1.1065 -0.9797
15545TIP3    H268051   5.503   1.958   4.223  1.4735  0.6729 -1.0505
15546TIP3   OH268052   2.347   5.434   4.443 -0.0147 -0.1151  0.7487
15546TIP3    H168053   2.377   5.524   4.435 -0.6814 -0.0002 -0.5656
15546TIP3    H268054   2.254   5.441   4.463 -0.3110 -0.4995 -0.4260
15547TIP3   OH268055   1.146   0.137  12.017 -0.2602 -0.3560 -0.4791
15547TIP3    H168056   1.099   0.124  12.100 -0.1835  2.2126  0.0039
15547TIP3    H268057   1.127   0.228  11.993 -0.1467 -1.0247 -3.2131
15548TIP3   OH268058   1.244   4.799  13.982 -0.0474  0.3115  0.7165
15548TIP3    H168059   1.279   4.851  13.909  0.0077 -0.5537  0.1163
15548TIP3    H268060   1.288   4.833  14.059  0.8625  0.3763  0.1775
15549TIP3   OH268061   4.148   6.276   2.809 -0.3970 -0.1563 -0.1106
15549TIP3    H168062   4.057   6.301   2.798 -0.8215 -1.7862 -0.4252
15549TIP3    H268063   4.169   6.297   2.900 -1.4963 -1.0227  0.3561
15550TIP3   OH268064   5.644   2.546   3.748 -0.3355 -0.1440  0.0268
15550TIP3    H168065   5.659   2.503   3.664  1.6377 -0.7256  0.6293
15550TIP3    H268066   5.660   2.477   3.813  0.0588  0.7751  0.9264
15551TIP3   OH268067   0.961   3.462  13.705  0.2930  0.6663 -0.6509
15551TIP3    H168068   0.912   3.384  13.679 -1.6019  0.9633  1.8083
15551TIP3    H268069   1.050   3.431  13.719 -0.0636 -0.7085 -1.3349
15552TIP3   OH268070   5.853   5.636  13.241 -0.6121 -0.4624  0.2014
15552TIP3    H168071   5.853   5.606  13.332 -1.3263  0.9504  0.6840
15552TIP3    H268072   5.898   5.721  13.244 -1.5589  0.0743 -0.5931
15553TIP3   OH268073   4.591   5.343  12.239 -0.1843 -0.0246 -0.3120
15553TIP3    H168074   4.638   5.295  12.171  0.2055 -0.1548  0.0521
15553TIP3    H268075   4.603   5.435  12.216 -0.5162 -0.0876 -0.7307
15554TIP3   OH268076   6.772   5.837   5.905  0.1541  0.0433  0.1790
15554TIP3    H168077   6.826   5.915   5.909  1.2159 -0.7225  1.1948
15554TIP3    H268078   6.790   5.799   5.819  0.8455  0.0639  0.3146
15555TIP3   OH268079   3.309   1.297   5.049 -0.2021  0.6173  0.2231
15555TIP3    H168080   3.336   1.388   5.057  0.6595  0.4884 -0.9962
15555TIP3    H268081   3.370   1.260   4.984 -0.5858 -0.7957  0.6507
15556TIP3   OH268082   4.383   3.089   3.505  0.2733 -0.6982 -0.8679
15556TIP3    H168083   4.302   3.139   3.513  0.7356 -0.0212 -0.3101
15556TIP3    H268084   4.355   2.998   3.501 -0.4953 -0.4935 -0.2716
15557TIP3   OH268085   4.656   2.463   4.907  0.2421  0.1952 -0.0678
15557TIP3    H168086   4.642   2.418   4.990  0.1034 -1.7180 -1.1150
15557TIP3    H268087   4.594   2.422   4.846  0.6150  1.3030 -1.2242
15558TIP3   OH268088   3.823   5.320  16.014 -0.0872  0.0972 -0.1913
15558TIP3    H168089   3.884   5.278  16.074  0.2816  2.3097  1.0539
15558TIP3    H268090   3.876   5.351  15.942  0.1272  1.1558  0.4139
15559TIP3   OH268091   2.203   3.549   1.004 -0.1595 -0.2644 -0.6822
15559TIP3    H168092   2.222   3.496   1.081 -1.1083  1.9210  1.1123
15559TIP3    H268093   2.111   3.531   0.984 -0.4818  0.6914 -0.0726
15560TIP3   OH268094   5.905   4.625  14.248 -0.0445 -0.3803  0.2520
15560TIP3    H168095   5.914   4.567  14.173 -0.4731  0.6055 -0.5724
15560TIP3    H268096   5.827   4.677  14.229  2.1259  2.7122 -0.5994
15561TIP3   OH268097   4.303   6.168  15.526 -0.6365 -0.2396 -0.0629
15561TIP3    H168098   4.231   6.195  15.583 -0.6286 -1.9733  0.7999
15561TIP3    H268099   4.263   6.107  15.465 -0.6329  1.5709 -1.9364
15562TIP3   OH268100   4.593   6.433   5.214 -0.2343  0.6393 -0.2381
15562TIP3    H168101   4.674   6.385   5.230 -0.4141  0.9471  1.7499
15562TIP3    H268102   4.571   6.414   5.123 -0.3209 -3.0887  0.4791
15563TIP3   OH268103   5.680   6.316  12.123 -0.2715 -0.3249 -0.3528
15563TIP3    H168104   5.736   6.239  12.114  1.3664  0.7363  0.4049
15563TIP3    H268105   5.737   6.389  12.097 -1.7579  0.6414 -0.9440
15564TIP3   OH268106   0.474   1.890  13.537  0.3372 -0.5133  0.3225
15564TIP3    H168107   0.556   1.846  13.559  0.7489 -0.1492 -0.4906
15564TIP3    H268108   0.468   1.962  13.599  1.4760  0.4876 -0.7169
15565TIP3   OH268109   6.694   3.077  16.273 -0.0889 -0.7343  0.1980
15565TIP3    H168110   6.667   2.990  16.299 -0.1581 -0.3659  1.3781
15565TIP3    H268111   6.785   3.068  16.247  0.2127 -0.9567  1.3287
15566TIP3   OH268112   5.693   6.070  12.744 -0.6431  0.8986 -0.0910
15566TIP3    H168113   5.727   5.992  12.699 -0.2953  0.6750  0.5514
15566TIP3    H268114   5.632   6.035  12.808 -1.7593  1.2742 -0.9413
15567TIP3   OH268115   5.338   0.994   3.959  0.2008 -0.4276  0.3232
15567TIP3    H168116   5.309   1.002   3.868  2.2048 -0.5614 -0.3722
15567TIP3    H268117   5.375   0.906   3.965  2.3502  0.4560  0.5442
15568TIP3   OH268118   0.303   5.915   4.338  0.3758  0.2613  0.3198
15568TIP3    H168119   0.391   5.912   4.376  1.7785  2.5313 -2.5351
15568TIP3    H268120   0.245   5.926   4.414  2.5964 -0.3518  2.1831
15569TIP3   OH268121   2.980   4.893   1.479  0.6051 -0.0644 -0.3729
15569TIP3    H168122   3.017   4.833   1.543 -0.9855 -0.2397  0.4147
15569TIP3    H268123   2.997   4.980   1.516  1.3096 -0.0960 -0.6213
15570TIP3   OH268124   1.617   6.232  12.247 -0.5098 -0.2074 -0.4581
15570TIP3    H168125   1.658   6.148  12.229  1.8870  0.8032  0.0293
15570TIP3    H268126   1.543   6.212  12.304  0.6835 -1.8882  0.5319
15571TIP3   OH268127   2.732   4.622   0.061 -0.1607 -0.1403  0.6396
15571TIP3    H168128   2.730   4.659  -0.027  0.1337  1.3195  1.2405
15571TIP3    H268129   2.735   4.527   0.046 -0.1659  0.0807 -0.9138
15572TIP3   OH268130   2.015   1.933   0.269 -0.2735  0.0783  0.0679
15572TIP3    H168131   1.984   1.989   0.198  1.8453  0.1455 -0.8500
15572TIP3    H268132   2.006   1.844   0.234 -1.3620 -0.0438  0.6122
15573TIP3   OH268133   3.194   3.383  14.888  0.3954 -0.4403  0.2399
15573TIP3    H168134   3.208   3.440  14.812  2.1264 -0.1445  0.7655
15573TIP3    H268135   3.108   3.408  14.921  0.2494  0.4365 -0.7587
15574TIP3   OH268136   4.433   4.442   5.948  0.3138 -0.7876 -1.0789
15574TIP3    H168137   4.425   4.359   5.903  1.3480 -1.1541 -0.6044
15574TIP3    H268138   4.371   4.436   6.021  1.5046 -1.7835 -0.1175
15575TIP3   OH268139   6.009   4.467   0.891  0.6212 -0.1287  0.2025
15575TIP3    H168140   6.009   4.553   0.849 -1.6280 -0.5448 -0.7721
15575TIP3    H268141   6.035   4.407   0.821  3.7729 -0.1183  1.2943
15576TIP3   OH268142   5.041   1.067  10.667 -0.3095 -0.4412 -0.2721
15576TIP3    H168143   5.050   1.030  10.755  0.3802  0.9153  0.2404
15576TIP3    H268144   5.108   1.135  10.662 -2.6861  1.9922 -0.5282
15577TIP3   OH268145   6.276   0.287  14.627  0.7467 -0.4165  0.1447
15577TIP3    H168146   6.324   0.307  14.707 -0.0858  1.1611  0.2672
15577TIP3    H268147   6.188   0.263  14.657  0.0063  1.5969 -0.3649
15578TIP3   OH268148   4.421   2.712  17.046  0.3093 -0.0155  0.5687
15578TIP3    H168149   4.510   2.727  17.016  0.2877  0.2652  0.6445
15578TIP3    H268150   4.411   2.617  17.043  1.3417 -0.2339  2.6169
15579TIP3   OH268151   6.529   4.768  11.893 -0.9172  0.0531 -0.0186
15579TIP3    H168152   6.484   4.798  11.972 -0.8769 -1.5035  0.6274
15579TIP3    H268153   6.559   4.680  11.915  1.1303  0.4825 -0.9696
15580TIP3   OH268154   4.737   3.030   2.600  0.4335  0.0428 -0.0704
15580TIP3    H168155   4.776   2.976   2.531 -0.0246 -0.3920  0.0117
15580TIP3    H268156   4.805   3.033   2.668 -0.1139 -1.6934  0.5799
15581TIP3   OH268157   6.739   5.244   1.245  0.3248  0.2250 -0.0830
15581TIP3    H168158   6.683   5.206   1.313 -0.2901  1.8981  0.3636
15581TIP3    H268159   6.739   5.179   1.175 -0.7379 -0.5880  0.6539
15582TIP3   OH268160   0.294   5.726   3.382 -0.0779  0.4626  0.3216
15582TIP3    H168161   0.315   5.818   3.399 -3.5220  0.9450  2.4305
15582TIP3    H268162   0.204   5.716   3.412 -0.4134 -3.1690 -1.6573
15583TIP3   OH268163   4.895   2.508   4.818 -0.0861  0.2521  0.5622
15583TIP3    H168164   4.898   2.603   4.830  0.2395  0.1100  1.6274
15583TIP3    H268165   4.802   2.487   4.820 -0.1424  0.5077  0.6392
15584TIP3   OH268166   0.424   0.681  13.721  0.1503  0.1763  0.3518
15584TIP3    H168167   0.377   0.603  13.694 -0.1255 -0.3552  2.2827
15584TIP3    H268168   0.364   0.753  13.702  0.0224 -0.1627 -0.5446
15585TIP3   OH268169   0.628   3.396   0.549  0.8369 -0.2938 -1.0689
15585TIP3    H168170   0.670   3.311   0.536  0.9393 -0.7479  1.8582
15585TIP3    H268171   0.675   3.434   0.623 -1.9553  0.4669  0.3779
15586TIP3   OH268172   5.997   3.175   4.971 -0.8331 -0.6390  0.5719
15586TIP3    H168173   6.058   3.170   5.044 -0.7184 -1.1057  0.4438
15586TIP3    H268174   6.040   3.128   4.900 -0.8119  0.0720  0.1089
15587TIP3   OH268175   0.729   4.012  13.749  0.0525 -0.1608  0.2227
15587TIP3    H168176   0.703   4.019  13.657  1.8793  0.7121 -0.2579
15587TIP3    H268177   0.707   3.922  13.773 -0.5587 -0.3623 -1.0402
15588TIP3   OH268178   3.281   1.502  17.209 -0.9287  0.1727 -0.2356
15588TIP3    H168179   3.276   1.595  17.186  0.6130  0.6319  1.2200
15588TIP3    H268180   3.218   1.491  17.280 -0.8085  0.1987 -0.1237
15589TIP3   OH268181   4.671   4.857  15.591  0.1762 -0.3028 -0.7024
15589TIP3    H168182   4.712   4.934  15.630 -1.5343  1.3369 -1.9957
15589TIP3    H268183   4.743   4.798  15.569  1.5906  1.3589 -0.5413
15590TIP3   OH268184   4.273   4.069  12.941  0.4092  0.0110 -0.0284
15590TIP3    H168185   4.225   3.988  12.923 -1.2072  1.0861 -0.6653
15590TIP3    H268186   4.308   4.096  12.856  0.7374  0.1099  0.1367
15591TIP3   OH268187   5.408   2.549   5.298 -0.1137 -0.3732  0.7035
15591TIP3    H168188   5.445   2.525   5.213  0.0381  0.2112  0.6020
15591TIP3    H268189   5.344   2.481   5.316 -0.9903  0.1181 -0.4408
15592TIP3   OH268190   0.383   6.585   1.325  0.2484 -0.3492 -0.3836
15592TIP3    H168191   0.366   6.664   1.275 -0.9311  0.4443  1.2184
15592TIP3    H268192   0.373   6.513   1.262  1.1373  0.7551 -1.7939
15593TIP3   OH268193   0.332   6.053   3.240 -0.4675  0.0553 -0.3692
15593TIP3    H168194   0.315   6.145   3.257 -2.0381 -0.3726  0.5093
15593TIP3    H268195   0.246   6.010   3.249  0.5124 -1.7307  1.0670
15594TIP3   OH268196   3.213   1.979   1.673  0.3216  0.3153 -0.2232
15594TIP3    H168197   3.160   1.918   1.723  0.2700  0.2518 -0.3570
15594TIP3    H268198   3.151   2.026   1.618  0.7440 -1.8922 -2.6530
15595TIP3   OH268199   6.587   3.941  12.448  0.8526  0.2593  0.0842
15595TIP3    H168200   6.634   4.024  12.447  0.4299  0.4951 -2.3025
15595TIP3    H268201   6.533   3.942  12.369  0.9551 -2.3450 -0.0823
15596TIP3   OH268202   1.267   2.987   2.216  0.6260  0.2257 -0.5042
15596TIP3    H168203   1.328   2.953   2.151  0.8335  1.2186 -0.8255
15596TIP3    H268204   1.265   2.920   2.285  1.3208 -0.2592 -0.9600
15597TIP3   OH268205   2.770   3.271  15.255 -0.5587  0.0170  0.2656
15597TIP3    H168206   2.686   3.234  15.283 -0.3274 -1.2522 -0.6683
15597TIP3    H268207   2.778   3.244  15.163 -0.9423  3.4124 -0.8407
15598TIP3   OH268208   2.100   3.775  15.080  0.2387 -0.0492  0.3911
15598TIP3    H168209   2.086   3.865  15.049 -1.2498 -0.4753 -0.1927
15598TIP3    H268210   2.196   3.765  15.080  0.3710  0.8536 -1.5663
15599TIP3   OH268211   0.939   1.062  12.416 -0.0453  0.0249  0.4024
15599TIP3    H168212   0.899   1.000  12.355  1.6784  0.4488 -1.2242
15599TIP3    H268213   0.942   1.016  12.500 -0.4710 -1.3845 -0.3494
15600TIP3   OH268214   1.765   3.181   3.055 -0.5624 -0.3413 -0.4037
15600TIP3    H168215   1.783   3.238   3.130  0.3133 -0.7683 -0.2786
15600TIP3    H268216   1.702   3.230   3.002 -0.5036  0.3548  0.1563
15601TIP3   OH268217   2.534   3.240   0.043 -0.0842 -0.5957  0.4327
15601TIP3    H168218   2.607   3.211  -0.012 -0.5427  0.9371 -0.9894
15601TIP3    H268219   2.456   3.221  -0.008 -0.6702 -1.5248  1.6358
15602TIP3   OH268220   1.780   0.556   6.179 -0.1431  0.5198 -0.3236
15602TIP3    H168221   1.720   0.545   6.106  0.3800  2.1277 -1.0184
15602TIP3    H268222   1.853   0.606   6.143  1.4457 -1.0994  0.5959
15603TIP3   OH268223   6.749   4.660  16.379 -0.1722  0.4531 -0.3154
15603TIP3    H168224   6.837   4.626  16.362 -0.8580 -0.5371 -1.9940
15603TIP3    H268225   6.760   4.717  16.455  1.7278 -0.4739  0.1449
15604TIP3   OH268226   1.056   2.492   0.860  0.2667  0.0385 -0.4995
15604TIP3    H168227   1.127   2.549   0.831  0.7953 -0.3430  0.0172
15604TIP3    H268228   1.004   2.547   0.919 -0.4087  0.5972 -1.6084
15605TIP3   OH268229   4.207   4.136   5.573 -0.1324 -0.0107  0.4134
15605TIP3    H168230   4.292   4.142   5.529  0.6620 -2.0880  1.6028
15605TIP3    H268231   4.210   4.204   5.641  0.6007 -0.1302  0.5031
15606TIP3   OH268232   2.080   2.756   4.025  0.4026 -0.2678  0.1999
15606TIP3    H168233   2.075   2.774   4.119  0.8503  0.0114  0.1734
15606TIP3    H268234   1.996   2.785   3.990  1.2912  2.2857  0.0790
15607TIP3   OH268235   2.590   4.483   0.548  0.8475 -0.1003 -0.0376
15607TIP3    H168236   2.550   4.492   0.461 -1.4448 -0.1189  1.0075
15607TIP3    H268237   2.612   4.390   0.555  0.9077 -0.1237 -0.5316
15608TIP3   OH268238   3.344   6.733  16.531 -0.3557  0.7947  0.1108
15608TIP3    H168239   3.253   6.702  16.536 -0.1603  0.4688  2.7541
15608TIP3    H268240   3.353   6.789  16.608  1.2684  2.0403 -0.9717
15609TIP3   OH268241   4.513   5.420   1.945  0.1998  0.3793  0.1701
15609TIP3    H168242   4.445   5.455   2.003 -0.1849 -0.6370  0.3359
15609TIP3    H268243   4.506   5.473   1.866 -0.9059  0.1695  0.1156
15610TIP3   OH268244   3.542   0.250   0.577 -0.2990  0.0810 -0.2432
15610TIP3    H168245   3.515   0.225   0.665 -0.5467 -0.8918 -0.5971
15610TIP3    H268246   3.617   0.194   0.557  0.0662  0.6336 -0.4737
15611TIP3   OH268247   0.527   0.190  16.264 -0.3017  0.1195 -0.4167
15611TIP3    H168248   0.505   0.099  16.282 -0.2001 -0.2148 -1.9514
15611TIP3    H268249   0.462   0.241  16.312 -0.7042 -0.7610 -0.0269
15612TIP3   OH268250   2.324   5.551  12.934 -0.4191  0.0110  0.0965
15612TIP3    H168251   2.249   5.494  12.953 -0.0321 -0.6566 -0.3569
15612TIP3    H268252   2.304   5.633  12.980 -0.5543 -0.8080  1.5158
15613TIP3   OH268253   3.727   2.143   1.470 -0.2080 -0.4227  0.2769
15613TIP3    H168254   3.742   2.179   1.558 -0.0207  1.7421 -0.6266
15613TIP3    H268255   3.680   2.061   1.486 -1.8121  0.8389  2.3450
15614TIP3   OH268256   0.430   6.115   0.086 -0.4755  0.7855 -0.0696
15614TIP3    H168257   0.488   6.122   0.010 -0.9942 -0.6874 -0.6034
15614TIP3    H268258   0.354   6.067   0.055 -0.3644 -0.4839  1.5678
15615TIP3   OH268259   2.903   5.602  16.648  0.0728  0.8478  0.0343
15615TIP3    H168260   2.862   5.599  16.561  1.5013  2.7070 -0.7469
15615TIP3    H268261   2.863   5.678  16.691 -0.4139  0.1081  0.9021
15616TIP3   OH268262   3.642   4.591  13.911  0.0283  0.8109 -0.2432
15616TIP3    H168263   3.590   4.567  13.834 -1.2522  2.8285 -0.0201
15616TIP3    H268264   3.726   4.619  13.875  0.1636 -0.2351 -0.7587
15617TIP3   OH268265   5.656   2.733   3.134  0.1328 -0.2025  0.3620
15617TIP3    H168266   5.655   2.829   3.134 -0.4139 -0.2030  0.2070
15617TIP3    H268267   5.620   2.710   3.220 -0.7732 -0.2680 -0.0302
15618TIP3   OH268268   4.162   4.962  16.080 -0.6109  0.3411  0.2945
15618TIP3    H168269   4.130   4.958  16.170 -0.6896 -1.3050  0.2095
15618TIP3    H268270   4.232   4.897  16.077 -1.0998 -0.1279 -1.0355
15619TIP3   OH268271   1.602   6.206   1.043  0.0388  0.1776  0.0740
15619TIP3    H168272   1.608   6.242   0.955  1.7599  2.3134  1.0066
15619TIP3    H268273   1.524   6.247   1.081 -0.8270 -0.9107 -0.5108
15620TIP3   OH268274   3.564   2.614  15.521 -0.3737 -0.4695  0.0482
15620TIP3    H168275   3.633   2.674  15.494 -0.6482  0.2988  1.0316
15620TIP3    H268276   3.500   2.669  15.566 -2.0090 -1.0548 -1.5210
15621TIP3   OH268277   2.256   6.243  11.741  0.4752 -0.0823  0.4934
15621TIP3    H168278   2.330   6.241  11.801  0.4402  0.7396  0.5697
15621TIP3    H268279   2.292   6.212  11.658  1.1545  1.3036  0.2638
15622TIP3   OH268280   1.765   6.422   3.031  0.0917  0.2640 -0.0351
15622TIP3    H168281   1.724   6.473   2.961  2.4399  1.2527 -0.7162
15622TIP3    H268282   1.848   6.393   2.995  1.3483  0.7688  2.3251
15623TIP3   OH268283   4.314   4.447  17.223 -0.0495  0.1601  0.5059
15623TIP3    H168284   4.221   4.464  17.210 -0.0599  1.0018  1.6487
15623TIP3    H268285   4.337   4.495  17.302  1.9996  2.2959 -1.3310
15624TIP3   OH268286   2.320   5.880  16.234  0.1567  0.6171 -0.9052
15624TIP3    H168287   2.309   5.947  16.167 -0.8321  0.4781 -0.9014
15624TIP3    H268288   2.260   5.810  16.207  1.1234 -0.2367 -0.8724
15625TIP3   OH268289   6.749   5.518  12.017  0.6029  0.1744 -0.1353
15625TIP3    H168290   6.800   5.457  12.072  0.8072  0.6835  0.2480
15625TIP3    H268291   6.661   5.516  12.054  0.3359 -0.7363 -0.8218
15626TIP3   OH268292   3.197   4.968   4.264 -0.7074  0.5111 -0.3608
15626TIP3    H168293   3.178   5.047   4.213 -2.0230  1.2733  1.2454
15626TIP3    H268294   3.147   4.979   4.345  1.2227 -0.7095  1.0543
15627TIP3   OH268295   4.259   0.539   5.868 -0.0211 -0.0326  0.6264
15627TIP3    H168296   4.292   0.607   5.808  2.5946 -0.5754  1.3762
15627TIP3    H268297   4.267   0.577   5.955 -1.8046 -0.0508  0.8183
15628TIP3   OH268298   4.615   0.282  13.898 -0.5043 -0.2442  0.1090
15628TIP3    H168299   4.601   0.377  13.894  0.6221 -0.1412 -1.5227
15628TIP3    H268300   4.533   0.248  13.936 -0.7883  1.3933  1.0446
15629TIP3   OH268301   0.546   2.135   4.254 -0.3626  0.5555  0.1247
15629TIP3    H168302   0.542   2.214   4.200 -0.7353  1.3877  1.3737
15629TIP3    H268303   0.630   2.141   4.299  0.4321 -0.6668 -1.1248
15630TIP3   OH268304   5.891   2.917   4.636  0.0124  0.3948 -0.6730
15630TIP3    H168305   5.801   2.944   4.617 -0.6870 -2.0624 -1.0450
15630TIP3    H268306   5.921   2.875   4.556  1.8423  1.9816 -0.8586
15631TIP3   OH268307   6.756   3.504   2.150 -0.1960  0.0725 -0.4111
15631TIP3    H168308   6.793   3.432   2.098 -0.7545 -0.4493 -0.1012
15631TIP3    H268309   6.694   3.461   2.209 -0.1555  0.7539  0.1343
15632TIP3   OH268310   6.449   6.645  11.065  0.0976  0.1434 -0.0663
15632TIP3    H168311   6.354   6.636  11.063  0.1138 -0.3168  0.8627
15632TIP3    H268312   6.480   6.563  11.104  0.8442  0.5060  0.1136
15633TIP3   OH268313   4.863   0.777  13.636 -0.1603 -0.5177  0.2628
15633TIP3    H168314   4.775   0.789  13.601  0.1323 -3.4414 -1.5966
15633TIP3    H268315   4.920   0.779  13.558  1.1781 -0.8646  1.2142
15634TIP3   OH268316   1.703   6.109   2.496  0.4813  0.2353  0.1801
15634TIP3    H168317   1.757   6.152   2.429 -0.9582  0.9901 -0.5202
15634TIP3    H268318   1.624   6.081   2.449  0.5982 -1.5536  1.0245
15635TIP3   OH268319   4.816   1.502  13.391  0.2693  0.5765 -0.8785
15635TIP3    H168320   4.846   1.507  13.300  0.5132  0.5424 -0.7987
15635TIP3    H268321   4.807   1.408  13.408  1.6764  0.5169 -0.3865
15636TIP3   OH268322   5.805   5.987   2.516 -0.2020 -0.5767 -0.7056
15636TIP3    H168323   5.750   5.930   2.462  1.1331 -1.0756 -1.5365
15636TIP3    H268324   5.806   6.071   2.469 -2.4256  0.2962  0.6739
15637TIP3   OH268325   2.313   6.640   5.264 -0.4104 -0.2784 -0.0089
15637TIP3    H168326   2.344   6.571   5.323 -2.3720 -0.3507  0.9742
15637TIP3    H268327   2.219   6.625   5.256 -0.7993  2.0037 -0.1507
15638TIP3   OH268328   5.904   2.697   5.291 -0.6656  0.3576 -0.4455
15638TIP3    H168329   5.816   2.664   5.272 -0.8840  1.0324 -0.6235
15638TIP3    H268330   5.916   2.769   5.229  0.4733 -0.4837 -1.2294
15639TIP3   OH268331   4.437   6.170   2.267  0.4636 -0.4670  0.0076
15639TIP3    H168332   4.505   6.116   2.308 -1.8512 -1.9854  1.9337
15639TIP3    H268333   4.400   6.115   2.198  0.7310  0.1172 -0.6068
15640TIP3   OH268334   1.048   2.760   5.279  0.6273  0.0694  0.0718
15640TIP3    H168335   1.071   2.678   5.324  1.1822  0.0689 -0.2095
15640TIP3    H268336   1.076   2.746   5.189  0.3950  0.4381 -0.0539
15641TIP3   OH268337   4.169   2.638   0.779 -0.1721 -0.4735  0.7879
15641TIP3    H168338   4.231   2.647   0.851 -1.3189 -0.5948  1.8178
15641TIP3    H268339   4.089   2.680   0.812  0.0166  1.6525 -1.3403
15642TIP3   OH268340   2.001   6.245   4.171 -0.2391 -0.5287  0.0462
15642TIP3    H168341   2.032   6.309   4.106  0.2771 -0.3777  0.4352
15642TIP3    H268342   2.081   6.205   4.204 -0.5581 -1.2304 -0.0428
15643TIP3   OH268343   1.447   4.569  11.661  0.1988 -0.1435  0.2846
15643TIP3    H168344   1.372   4.514  11.639  0.0239  0.4349 -0.6051
15643TIP3    H268345   1.408   4.650  11.694  0.4550 -0.6415  1.8514
15644TIP3   OH268346   3.368   3.192   0.613 -0.4039  0.4299  0.0252
15644TIP3    H168347   3.427   3.159   0.681 -2.0603 -1.6173  0.5224
15644TIP3    H268348   3.309   3.119   0.595 -2.8661  2.4589 -0.3871
15645TIP3   OH268349   5.844   6.576  10.908 -0.2432 -0.2424 -0.1922
15645TIP3    H168350   5.854   6.604  10.817  0.0749  0.0656 -0.0618
15645TIP3    H268351   5.839   6.481  10.903  1.6286 -0.3353 -0.3635
15646TIP3   OH268352   5.383   5.617   3.195  0.2656 -0.6100 -0.1056
15646TIP3    H168353   5.316   5.669   3.238 -0.0425 -0.2990 -0.9462
15646TIP3    H268354   5.419   5.562   3.264  0.3845  0.4949  0.7291
15647TIP3   OH268355   0.001   4.604   3.228  0.1586  0.0861  0.0315
15647TIP3    H168356   0.012   4.549   3.306 -1.0266  0.9770  0.8409
15647TIP3    H268357  -0.086   4.641   3.237  1.6302  3.5865  0.4789
15648TIP3   OH268358   1.001   5.372   0.128 -0.4291  0.1749 -0.4812
15648TIP3    H168359   1.003   5.468   0.131 -0.9594  0.1448  1.3392
15648TIP3    H268360   1.035   5.344   0.213 -0.1708 -1.2531 -1.0413
15649TIP3   OH268361   4.839   1.298   3.732 -0.6115  0.2781  0.2748
15649TIP3    H168362   4.808   1.375   3.779 -0.4376  1.5783 -1.6981
15649TIP3    H268363   4.930   1.316   3.712 -0.6459 -0.3152 -0.4489
15650TIP3   OH268364   0.078   3.645  12.248 -0.8255 -0.6335 -0.3120
15650TIP3    H168365   0.163   3.608  12.271 -0.7490 -0.3908 -0.2022
15650TIP3    H268366   0.098   3.732  12.215 -1.2427  0.4849  2.2770
15651TIP3   OH268367   4.026   4.535  13.396  0.1712  0.2308 -0.6978
15651TIP3    H168368   4.041   4.452  13.442  0.6007  1.0112  0.5945
15651TIP3    H268369   4.045   4.515  13.305 -0.4351 -1.2832 -0.5089
15652TIP3   OH268370   2.504   5.025  15.824 -0.2765  0.4629 -0.1726
15652TIP3    H168371   2.543   4.988  15.744 -1.1390 -0.8994  0.0353
15652TIP3    H268372   2.481   5.115  15.799  1.6780  0.8469 -0.7262
15653TIP3   OH268373   1.667   2.088   0.124  0.0761 -0.4449  0.3292
15653TIP3    H168374   1.669   2.024   0.196 -1.5671 -1.4749 -0.5009
15653TIP3    H268375   1.599   2.150   0.151 -1.1353 -1.3030 -0.6956
15654TIP3   OH268376   1.477   0.599  16.743  0.7980 -0.9718  0.7572
15654TIP3    H168377   1.494   0.516  16.789  1.3761 -1.1291  0.2665
15654TIP3    H268378   1.384   0.617  16.760  0.7513 -1.5513  1.1385
15655TIP3   OH268379   3.794   5.766   1.232  0.1320  0.0110  0.1615
15655TIP3    H168380   3.830   5.851   1.206 -0.2714  0.3881  0.8316
15655TIP3    H268381   3.811   5.709   1.157 -0.8891  1.0488 -0.8689
15656TIP3   OH268382   5.125   3.684  14.518 -0.0158  0.0835 -0.3156
15656TIP3    H168383   5.051   3.743  14.533 -0.6274 -0.5823 -0.6595
15656TIP3    H268384   5.155   3.705  14.430  0.5992  0.7736  0.0541
15657TIP3   OH268385   2.722   3.751   0.645  0.3114  0.4825  0.0938
15657TIP3    H168386   2.731   3.656   0.655 -0.8124  0.3517 -0.0695
15657TIP3    H268387   2.757   3.769   0.558 -0.3622  0.0709 -0.2735
15658TIP3   OH268388   6.402   1.085   4.170 -0.6898 -0.7671  0.0804
15658TIP3    H168389   6.398   1.180   4.157  0.2076 -0.9671 -1.8637
15658TIP3    H268390   6.344   1.050   4.102  1.4404 -1.7453 -1.2569
15659TIP3   OH268391   3.677   4.579  12.076  0.1799  0.1313  0.2717
15659TIP3    H168392   3.627   4.660  12.066  0.3213  0.0923 -0.7940
15659TIP3    H268393   3.769   4.608  12.075  0.3506 -0.3025 -3.1104
15660TIP3   OH268394   3.083   4.906   5.930 -0.1636  0.5157 -0.0252
15660TIP3    H168395   2.996   4.927   5.965  0.2259  0.3448  1.0674
15660TIP3    H268396   3.128   4.990   5.924 -0.3067  0.5712 -0.3209
15661TIP3   OH268397   6.230   0.307  11.798 -0.1255  0.4874 -0.0166
15661TIP3    H168398   6.174   0.250  11.746  1.6718 -0.6699 -0.7545
15661TIP3    H268399   6.190   0.309  11.884 -0.1780 -1.9980  0.0502
15662TIP3   OH268400   1.478   1.356   4.252 -0.1027 -0.1347  0.4256
15662TIP3    H168401   1.548   1.297   4.221 -1.3185 -1.6932  0.5943
15662TIP3    H268402   1.431   1.305   4.318 -2.6843  0.1333 -1.1603
15663TIP3   OH268403   3.320   0.932  15.253 -0.5583 -0.8318 -0.1795
15663TIP3    H168404   3.289   0.947  15.342 -1.1098 -0.9095 -0.3571
15663TIP3    H268405   3.280   0.849  15.227  2.1667 -2.5017  0.6746
15664TIP3   OH268406   2.179   5.863   4.564  0.0980 -0.1700  0.6176
15664TIP3    H168407   2.208   5.850   4.473 -1.6597  0.8937 -0.1408
15664TIP3    H268408   2.139   5.780   4.588  1.8982 -0.9461  0.9422
15665TIP3   OH268409   3.794   4.328  12.664  0.5378 -0.3998 -0.1199
15665TIP3    H168410   3.760   4.414  12.641  1.0483 -0.3385 -0.6606
15665TIP3    H268411   3.739   4.266  12.616  0.5457 -0.3452 -0.1992
15666TIP3   OH268412   0.589   1.553   2.211  0.1091  0.3475 -0.1830
15666TIP3    H168413   0.500   1.556   2.178  0.4723 -1.4056 -1.4003
15666TIP3    H268414   0.644   1.565   2.133  0.9350 -0.5714  0.2375
15667TIP3   OH268415   4.792   3.562  13.045  0.3102  0.1085 -0.5810
15667TIP3    H168416   4.841   3.562  12.963 -1.0447 -0.2101 -1.4087
15667TIP3    H268417   4.845   3.509  13.105  0.3156 -1.3805 -1.8707
15668TIP3   OH268418   4.360   4.980   3.497 -0.2314  0.4548 -0.0261
15668TIP3    H168419   4.316   5.004   3.415  0.7022 -0.3989 -0.7907
15668TIP3    H268420   4.344   4.886   3.506 -0.0237  0.4787  0.5812
15669TIP3   OH268421   0.571   4.842   5.862  0.8557 -0.2807 -0.1433
15669TIP3    H168422   0.520   4.880   5.934  2.8557  1.9028  0.1857
15669TIP3    H268423   0.586   4.916   5.802  2.1379 -1.2936 -1.0905
15670TIP3   OH268424   6.776   4.479   1.028 -0.2107  0.0738  0.3898
15670TIP3    H168425   6.869   4.457   1.034  0.3886  2.3459 -0.0470
15670TIP3    H268426   6.744   4.428   0.954  0.4876 -1.3555  1.0609
15671TIP3   OH268427   2.818   3.313   2.803 -0.5049  0.5320 -0.7600
15671TIP3    H168428   2.754   3.272   2.745 -0.2112  1.0857 -1.4820
15671TIP3    H268429   2.875   3.241   2.831 -0.8084  0.2185 -0.9411
15672TIP3   OH268430   1.225   5.186  15.224  0.1741  0.0821 -0.2052
15672TIP3    H168431   1.146   5.154  15.181 -0.2801  0.6672  0.1847
15672TIP3    H268432   1.202   5.190  15.317  1.0490 -0.8927  0.0709
15673TIP3   OH268433   3.804   0.632   3.774 -0.5737  0.1264  0.0583
15673TIP3    H168434   3.894   0.626   3.743  0.8016 -0.6538  3.8558
15673TIP3    H268435   3.773   0.542   3.776 -0.6502  0.1628  0.8412
15674TIP3   OH268436   0.169   3.387   2.469 -0.6060  0.3594 -0.7683
15674TIP3    H168437   0.181   3.340   2.387 -1.0253 -0.2192 -0.5092
15674TIP3    H268438   0.140   3.319   2.531 -2.0288  1.1090 -0.5901
15675TIP3   OH268439   0.910   3.979  16.018  0.3888 -0.7405 -0.4506
15675TIP3    H168440   0.989   3.961  15.967  0.5170  0.0902 -0.5479
15675TIP3    H268441   0.856   3.900  16.007 -0.0567 -0.1629 -2.7529
15676TIP3   OH268442   6.215   3.929  14.316 -0.1858  0.3063 -0.3794
15676TIP3    H168443   6.277   3.924  14.390  0.0953 -1.7310 -0.7199
15676TIP3    H268444   6.231   4.015  14.278  0.9320  0.6735  0.8582
15677TIP3   OH268445   4.910   5.630  14.497 -0.1357 -0.0853 -0.1786
15677TIP3    H168446   4.852   5.584  14.436 -0.2904 -0.2467  0.0902
15677TIP3    H268447   4.886   5.722  14.487  0.1677 -0.0608 -0.7085
15678TIP3   OH268448   5.515   6.206   6.605 -0.2068 -0.2987 -0.4470
15678TIP3    H168449   5.560   6.156   6.537 -1.3312 -0.5570 -1.0022
15678TIP3    H268450   5.527   6.155   6.685 -0.6421 -1.0354 -0.8550
15679TIP3   OH268451   5.159   4.064  13.495  0.5588  0.6785 -0.1276
15679TIP3    H168452   5.139   4.064  13.589  1.6134  2.4168  0.1258
15679TIP3    H268453   5.247   4.102  13.490  0.2122  1.2676 -1.8764
15680TIP3   OH268454   2.066   1.007   4.542 -0.0027 -0.9303 -0.0340
15680TIP3    H168455   2.040   0.967   4.459 -0.5412 -0.8339  0.0884
15680TIP3    H268456   2.150   1.049   4.523 -0.6953  0.1136 -0.8434
15681TIP3   OH268457   0.323   3.148  15.468 -0.1848  0.0825  0.5967
15681TIP3    H168458   0.330   3.243  15.474 -1.8915  0.1021  2.9916
15681TIP3    H268459   0.385   3.115  15.532  1.3546 -0.4854 -1.1457
15682TIP3   OH268460   5.091   1.298   5.996 -0.1530  0.5097  0.1599
15682TIP3    H168461   5.007   1.332   5.964 -0.3134  0.7119  0.7973
15682TIP3    H268462   5.088   1.311   6.091  0.6478  0.6269  0.1721
15683TIP3   OH268463   2.112   2.310  16.307 -0.5050 -0.3717  0.0296
15683TIP3    H168464   2.032   2.363  16.313  0.2692  0.8926 -0.6550
15683TIP3    H268465   2.125   2.297  16.213  0.4565 -0.0216  0.1125
15684TIP3   OH268466   1.639   4.166  15.429  0.1206  0.2811  0.4539
15684TIP3    H168467   1.661   4.073  15.419 -2.3887 -0.4037  0.7785
15684TIP3    H268468   1.719   4.207  15.460  1.7899 -1.4510 -1.4275
15685TIP3   OH268469   1.300   1.263  11.526 -0.1811 -0.4141 -0.4704
15685TIP3    H168470   1.281   1.298  11.439 -0.8199 -0.2798 -0.2759
15685TIP3    H268471   1.396   1.266  11.532 -0.0861 -1.1118 -1.4500
15686TIP3   OH268472   2.934   0.256  12.749  0.1946  0.1137 -0.0148
15686TIP3    H168473   2.839   0.256  12.764 -0.0441  0.0682 -1.4315
15686TIP3    H268474   2.960   0.347  12.759 -0.0323  0.1516  0.2205
15687TIP3   OH268475   2.798   2.854  13.445  0.7840  0.2305 -0.4195
15687TIP3    H168476   2.717   2.804  13.433  1.3739 -0.5063 -1.3956
15687TIP3    H268477   2.792   2.887  13.534 -0.0670 -0.7883 -0.0849
15688TIP3   OH268478   4.558   2.929  11.973 -0.4213 -0.2417  0.7683
15688TIP3    H168479   4.619   2.860  11.944  0.1639  0.7694 -0.5087
15688TIP3    H268480   4.492   2.932  11.904  0.2504  1.3073  0.1647
15689TIP3   OH268481   4.800   2.287   2.719  0.4456 -0.1403  0.0635
15689TIP3    H168482   4.741   2.305   2.645  1.0595 -0.6502 -0.5638
15689TIP3    H268483   4.752   2.224   2.773 -0.1092  0.4250  0.2257
15690TIP3   OH268484   5.273   3.141  11.303  0.3102 -0.5259  0.2871
15690TIP3    H168485   5.328   3.172  11.231  0.4434  1.5759  1.2518
15690TIP3    H268486   5.334   3.102  11.365  0.2280 -2.0587 -0.5762
15691TIP3   OH268487   3.556   2.096  12.101 -0.2558 -0.1771  0.4559
15691TIP3    H168488   3.535   2.154  12.175  2.1161  1.4769 -0.1391
15691TIP3    H268489   3.613   2.029  12.139  1.2640  0.8818  0.0840
15692TIP3   OH268490   1.442   5.796   2.413 -0.0374  0.0722 -0.3072
15692TIP3    H168491   1.412   5.783   2.323 -2.2772  1.2329  0.2246
15692TIP3    H268492   1.476   5.885   2.414  0.5478 -0.1533 -0.1444
15693TIP3   OH268493   4.261   2.194   5.230 -0.4132  0.2760  0.0296
15693TIP3    H168494   4.243   2.159   5.317  3.4147 -1.4762  0.1903
15693TIP3    H268495   4.228   2.284   5.233 -0.1306  0.3259  3.3376
15694TIP3   OH268496   1.567   0.443   5.956  0.1291 -0.3196  0.0655
15694TIP3    H168497   1.650   0.400   5.938 -0.0494 -0.5796 -0.1282
15694TIP3    H268498   1.501   0.386   5.918 -0.3904 -1.7978  3.0842
15695TIP3   OH268499   5.595   2.818  16.294 -0.2659 -0.5706  0.3302
15695TIP3    H168500   5.690   2.811  16.289 -0.0334  1.1181  2.1394
15695TIP3    H268501   5.575   2.811  16.387 -1.8574 -0.2419  0.0200
15696TIP3   OH268502   3.680   5.391   1.153  0.2755 -0.5982  0.2362
15696TIP3    H168503   3.610   5.369   1.092  1.0987 -1.6025 -0.3554
15696TIP3    H268504   3.696   5.311   1.203  2.2351 -0.9377 -0.8745
15697TIP3   OH268505   0.340   3.804  14.276  0.3010 -0.0994  0.3421
15697TIP3    H168506   0.362   3.880  14.223  2.4851 -0.1566  1.1074
15697TIP3    H268507   0.314   3.841  14.361 -2.5448 -0.0447 -0.4797
15698TIP3   OH268508   5.334   4.482   2.206 -0.6324 -0.4252  0.3790
15698TIP3    H168509   5.350   4.543   2.278 -1.8090  3.0596 -2.1650
15698TIP3    H268510   5.418   4.479   2.159 -0.5383 -0.9058  0.5725
15699TIP3   OH268511   1.360   0.542   1.622  0.8579  0.1196  0.0079
15699TIP3    H168512   1.352   0.449   1.643  1.8411 -0.1333 -0.7535
15699TIP3    H268513   1.385   0.545   1.530  2.6679  1.0835  0.4967
15700TIP3   OH268514   2.784   2.791  15.522  0.2136  0.2020  0.5938
15700TIP3    H168515   2.874   2.823  15.530  0.3655 -0.3245  1.0261
15700TIP3    H268516   2.731   2.870  15.510  0.8564  0.4330 -0.7285
15701TIP3   OH268517   5.855   3.152   1.931  0.4490  0.0937 -0.6133
15701TIP3    H168518   5.824   3.242   1.920  0.3125 -0.1176 -2.0422
15701TIP3    H268519   5.880   3.147   2.024  0.6904  1.6746 -0.5675
15702TIP3   OH268520   1.359   6.387   4.236  0.3499  0.4349  0.0616
15702TIP3    H168521   1.379   6.323   4.168  0.5805 -0.3781  0.8722
15702TIP3    H268522   1.264   6.387   4.243  0.3027  0.8925 -0.6123
15703TIP3   OH268523   6.543   2.496   3.069 -0.6326 -0.1795 -0.1727
15703TIP3    H168524   6.518   2.447   3.147  2.2049  1.0985  1.6184
15703TIP3    H268525   6.637   2.509   3.078 -0.6804  2.2290 -2.5605
15704TIP3   OH268526   2.665   2.579  16.629 -0.4248  0.1772  0.0663
15704TIP3    H168527   2.703   2.646  16.686 -0.8200 -0.6532  1.3263
15704TIP3    H268528   2.677   2.613  16.541 -0.8300  2.0278  0.6973
15705TIP3   OH268529   2.909   5.735   1.472  0.7671  0.1345 -0.1863
15705TIP3    H168530   2.990   5.688   1.487  0.8469  0.4040  0.2201
15705TIP3    H268531   2.923   5.782   1.390 -0.0874 -2.2459 -1.7574
15706TIP3   OH268532   2.968   0.314   0.090  0.4478  0.0117 -0.0227
15706TIP3    H168533   2.950   0.310  -0.004  0.1454  0.5961  0.0034
15706TIP3    H268534   2.886   0.284   0.131  0.5343 -0.1189  0.0525
15707TIP3   OH268535   2.583   3.486  11.208  0.0376 -0.3194  0.1469
15707TIP3    H168536   2.605   3.471  11.300 -1.3503 -1.5815  0.2850
15707TIP3    H268537   2.563   3.579  11.203 -0.2081 -0.3197  1.1853
15708TIP3   OH268538   2.175   4.121   3.057  0.1397  0.0222 -0.4275
15708TIP3    H168539   2.169   4.054   2.989  0.0583  0.5303 -0.9225
15708TIP3    H268540   2.130   4.197   3.020 -1.6341 -0.3203  0.9562
15709TIP3   OH268541   6.223   5.109  14.242  0.0135 -0.0466 -0.1404
15709TIP3    H168542   6.200   5.143  14.328  1.3857  0.4437  0.0583
15709TIP3    H268543   6.253   5.185  14.193 -0.2348 -0.4112 -0.8752
15710TIP3   OH268544   4.697   6.480  16.110  0.3150 -0.3692  0.3076
15710TIP3    H168545   4.738   6.400  16.076  0.7765  0.0719 -0.1776
15710TIP3    H268546   4.651   6.517  16.034 -0.0183 -0.2519  0.5656
15711TIP3   OH268547   1.724   1.089   0.358 -0.0743 -0.3928  0.7092
15711TIP3    H168548   1.668   1.020   0.322  0.4991  0.0769 -1.1661
15711TIP3    H268549   1.789   1.042   0.411  0.9057 -1.4066 -1.3294
15712TIP3   OH268550   0.947   5.215   3.253 -0.1510  0.2968 -0.1564
15712TIP3    H168551   0.987   5.242   3.336  1.1443 -1.0309 -0.3320
15712TIP3    H268552   1.019   5.177   3.203 -1.3342 -0.7658 -1.0804
15713TIP3   OH268553   6.524   2.654  11.066 -0.4292 -0.7910  0.5066
15713TIP3    H168554   6.540   2.714  10.993  0.1159  1.3724  2.3609
15713TIP3    H268555   6.431   2.666  11.086 -0.4263 -0.8992  0.5799
15714TIP3   OH268556   3.321   6.001  11.842  0.4896 -0.1010  0.1535
15714TIP3    H168557   3.367   5.939  11.897 -0.0820 -0.8603 -0.2164
15714TIP3    H268558   3.354   6.087  11.869  0.1089 -0.4483  1.7777
15715TIP3   OH268559   1.628   3.156   0.226  0.3302  0.1799 -0.5068
15715TIP3    H168560   1.665   3.245   0.230 -0.5255  0.5902 -1.4090
15715TIP3    H268561   1.691   3.107   0.172  0.1600  0.5762 -1.0751
15716TIP3   OH268562   5.769   1.795  11.662  0.0656 -0.1350  1.1762
15716TIP3    H168563   5.727   1.735  11.724 -1.0225  1.8590  2.3965
15716TIP3    H268564   5.696   1.834  11.613  0.6196  1.6534  1.7389
15717TIP3   OH268565   6.699   2.541  13.372 -0.3203 -0.0318  0.2580
15717TIP3    H168566   6.726   2.485  13.299  1.7804  0.9613  0.2226
15717TIP3    H268567   6.742   2.502  13.448 -2.6341 -1.1599  1.0242
15718TIP3   OH268568   3.650   5.304   3.261  0.7956  0.1744 -0.0856
15718TIP3    H168569   3.728   5.357   3.277  0.4388  0.4654  0.6964
15718TIP3    H268570   3.676   5.215   3.283  0.4722  0.4883  1.5753
15719TIP3   OH268571   5.836   2.437   2.317 -0.6701  0.2312 -0.0752
15719TIP3    H168572   5.912   2.422   2.372 -0.3272 -1.1019 -0.9021
15719TIP3    H268573   5.870   2.437   2.228 -1.6222 -0.2284 -0.4432
15720TIP3   OH268574   2.864   3.992   3.209 -0.7399 -0.5167  0.2900
15720TIP3    H168575   2.914   4.021   3.132  0.2212  0.8787  1.4236
15720TIP3    H268576   2.898   3.904   3.228  1.9549  0.7414  1.5621
15721TIP3   OH268577   1.671   0.333  14.247 -0.2610 -0.1090  0.1364
15721TIP3    H168578   1.671   0.331  14.343  0.4397  2.1866  0.2138
15721TIP3    H268579   1.725   0.409  14.225 -4.1224  2.2009 -1.9599
15722TIP3   OH268580   3.067   0.683   4.706  0.5841  0.2947 -0.2909
15722TIP3    H168581   3.155   0.649   4.723  0.7044  0.8942  0.3620
15722TIP3    H268582   3.020   0.668   4.788  0.2780  0.5744 -0.4141
15723TIP3   OH268583   0.345   6.318  11.966  0.3199  0.3784 -0.7444
15723TIP3    H168584   0.261   6.274  11.952  0.2341  0.5282 -0.7027
15723TIP3    H268585   0.332   6.368  12.046  1.5467 -2.3066  1.2116
15724TIP3   OH268586   2.435   5.848   0.979 -0.0010  0.2202 -0.1450
15724TIP3    H168587   2.475   5.891   1.055  0.1773  2.8985 -1.6991
15724TIP3    H268588   2.349   5.888   0.971 -0.0154 -0.0339 -1.3706
15725TIP3   OH268589   2.991   4.373   1.309 -0.3398 -1.0444  0.7552
15725TIP3    H168590   3.044   4.380   1.388  1.5061  0.1689 -0.5485
15725TIP3    H268591   2.914   4.322   1.336 -0.6520  0.9256  3.7511
15726TIP3   OH268592   6.081   4.329   1.827 -0.0966 -0.0287  0.2535
15726TIP3    H168593   6.057   4.237   1.838 -3.5690  0.9405  1.5304
15726TIP3    H268594   5.998   4.376   1.833  1.5695  3.1935 -0.6666
15727TIP3   OH268595   2.768   6.713  14.821  0.1873 -0.3487  0.1012
15727TIP3    H168596   2.822   6.685  14.746 -2.6752  0.3369 -2.3140
15727TIP3    H268597   2.771   6.809  14.817  1.5519 -0.2883  2.0617
15728TIP3   OH268598   1.466   2.624   3.053  0.4576 -0.1883  0.0301
15728TIP3    H168599   1.396   2.578   3.100  1.0807 -0.2331  0.9354
15728TIP3    H268600   1.542   2.619   3.112  1.1448  0.1001 -0.8200
15729TIP3   OH268601   1.967   4.455  13.497  0.6565  0.5973  0.4514
15729TIP3    H168602   2.001   4.389  13.436 -1.1051  1.8003 -1.9091
15729TIP3    H268603   1.873   4.454  13.483  0.4099  2.2270  1.8398
15730TIP3   OH268604   1.869   5.427   4.975 -0.0866  0.3442  0.1539
15730TIP3    H168605   1.794   5.482   4.998 -0.9109 -0.6175 -0.1842
15730TIP3    H268606   1.943   5.469   5.018 -0.7684  1.4787  0.2477
15731TIP3   OH268607   1.216   5.293   4.100  0.0967 -0.0542  0.9036
15731TIP3    H168608   1.144   5.328   4.152  1.0138  1.3516  1.2502
15731TIP3    H268609   1.207   5.335   4.015  0.7857  0.5205  1.1036
15732TIP3   OH268610   5.472   3.910   1.486  0.1510  0.0774  0.1257
15732TIP3    H168611   5.442   3.992   1.525  0.0745  0.5485 -0.8948
15732TIP3    H268612   5.392   3.862   1.467  0.0985  0.6157 -1.0656
15733TIP3   OH268613   0.230   4.382   6.023 -0.0860 -1.1801 -0.0767
15733TIP3    H168614   0.246   4.291   5.995 -0.0147 -1.4442  0.7823
15733TIP3    H268615   0.304   4.401   6.081  1.0994  0.2033 -1.9870
15734TIP3   OH268616   2.677   5.697  14.946  0.0331 -0.5229 -0.2873
15734TIP3    H168617   2.723   5.778  14.970  0.8746 -0.8667 -0.6930
15734TIP3    H268618   2.618   5.724  14.875 -0.9193  0.0691  0.7210
15735TIP3   OH268619   5.079   4.489  15.535  0.3894 -0.0973 -0.1616
15735TIP3    H168620   5.171   4.509  15.554  0.6506 -1.1377 -0.2716
15735TIP3    H268621   5.082   4.402  15.494 -0.3483  1.1895 -3.0077
15736TIP3   OH268622   5.587   2.453  16.422  0.3906  0.1562  0.7022
15736TIP3    H168623   5.528   2.424  16.353 -0.1770  1.8588  0.4414
15736TIP3    H268624   5.611   2.373  16.469 -1.8514 -0.6016  0.6104
15737TIP3   OH268625   2.441   5.379   3.361  0.4120  0.2140 -0.5530
15737TIP3    H168626   2.362   5.397   3.413  0.3392 -0.3925 -0.4458
15737TIP3    H268627   2.450   5.455   3.304  0.5094  0.9050  0.3713
15738TIP3   OH268628   5.278   3.255   1.620  0.3269  0.0465  0.0921
15738TIP3    H168629   5.297   3.263   1.713 -1.4528 -0.7512  0.5502
15738TIP3    H268630   5.297   3.164   1.599  0.8097  0.2469 -0.3382
15739TIP3   OH268631   0.032   3.242  14.160 -0.6528 -0.1477 -0.1391
15739TIP3    H168632   0.121   3.208  14.162 -0.2974  0.5053 -3.1216
15739TIP3    H268633   0.036   3.324  14.209  1.2085  1.6557 -3.2152
15740TIP3   OH268634   4.766   6.211   5.202 -0.0258  0.2780  0.0849
15740TIP3    H168635   4.700   6.142   5.215 -1.5457  1.4702 -1.1455
15740TIP3    H268636   4.849   6.169   5.225 -0.9421 -1.9055 -0.4350
15741TIP3   OH268637   6.556   3.327  17.103  0.1793  0.2825  0.3105
15741TIP3    H168638   6.478   3.306  17.051  0.0243 -1.0029  1.0353
15741TIP3    H268639   6.625   3.342  17.038  0.4378 -3.0949 -0.2776
15742TIP3   OH268640   2.001   0.779   3.601  0.0491  0.5900 -0.1212
15742TIP3    H168641   2.021   0.687   3.581 -1.3540  0.2460  0.0269
15742TIP3    H268642   2.060   0.801   3.674  0.2515 -0.2494 -0.0270
15743TIP3   OH268643   1.368   3.666   2.866 -0.0526  0.1157  0.1925
15743TIP3    H168644   1.428   3.614   2.813  0.2260  1.1205 -0.5011
15743TIP3    H268645   1.323   3.602   2.921 -0.1137 -0.9185 -1.0262
15744TIP3   OH268646   3.795   1.446  12.724  0.1357  0.0814  0.4241
15744TIP3    H168647   3.851   1.455  12.647 -0.5202  1.0137  0.0555
15744TIP3    H268648   3.846   1.485  12.795 -0.3026  1.5440 -0.0409
15745TIP3   OH268649   2.931   6.313  13.017  0.3087  0.4533  0.0638
15745TIP3    H168650   2.878   6.265  12.954  0.6749  0.6762 -0.4235
15745TIP3    H268651   2.974   6.246  13.070  0.2049  0.2583 -0.1027
15746TIP3   OH268652   2.231   2.740   5.746  0.0536  0.0771 -0.1806
15746TIP3    H168653   2.142   2.739   5.782  0.2666 -2.2927  0.3261
15746TIP3    H268654   2.227   2.682   5.670  1.1649 -0.0613 -0.1445
15747TIP3   OH268655   6.364   3.549  14.259  0.2015  0.0382  0.1376
15747TIP3    H168656   6.456   3.530  14.241  0.6143  1.5136  0.6426
15747TIP3    H268657   6.335   3.601  14.184 -0.3726 -0.8466 -0.2677
15748TIP3   OH268658   1.854   1.805  13.029 -0.4644  0.0204 -0.6385
15748TIP3    H168659   1.894   1.814  12.943  0.2100  1.4695 -0.1968
15748TIP3    H268660   1.929   1.800  13.089 -0.9245  0.9940  0.0360
15749TIP3   OH268661   5.851   6.552  12.445  0.2210 -0.3275 -0.2419
15749TIP3    H168662   5.845   6.571  12.539  3.5693  0.0686 -0.0528
15749TIP3    H268663   5.867   6.458  12.440  0.3817 -0.2928 -0.3945
15750TIP3   OH268664   1.672   1.330   0.134 -0.1846 -0.2203  0.2403
15750TIP3    H168665   1.611   1.270   0.177  0.2818 -1.8374 -1.3218
15750TIP3    H268666   1.640   1.338   0.044  1.8142 -0.9994 -0.5755
15751TIP3   OH268667   0.903   5.586   1.748 -0.6776 -0.4674  0.0638
15751TIP3    H168668   0.810   5.589   1.770 -0.6744 -1.2971  0.1818
15751TIP3    H268669   0.936   5.510   1.794 -0.2661 -1.0929 -1.2526
15752TIP3   OH268670   6.011   6.448   5.960 -0.2287  0.0895  0.2237
15752TIP3    H168671   5.921   6.435   5.989  0.2564 -0.4921  1.4697
15752TIP3    H268672   6.017   6.397   5.879 -0.8720 -0.2814  0.4027
15753TIP3   OH268673   2.918   5.225  13.407 -0.1614  0.5838  0.6391
15753TIP3    H168674   2.952   5.226  13.317 -0.1643 -2.0157  0.5565
15753TIP3    H268675   2.845   5.287  13.406  0.4148  1.2616 -0.9129
15754TIP3   OH268676   5.881   4.115  12.276  0.1296 -0.3033 -0.4943
15754TIP3    H168677   5.903   4.184  12.214 -0.6958  1.0369  0.6677
15754TIP3    H268678   5.804   4.073  12.239 -1.0217  1.2016  0.1364
15755TIP3   OH268679   4.829   5.142   0.089  0.2133 -0.0201 -0.0900
15755TIP3    H168680   4.745   5.125   0.046 -0.2907 -0.4558  1.0629
15755TIP3    H268681   4.826   5.235   0.110  0.1615  0.0359 -0.3359
15756TIP3   OH268682   2.150   4.369   3.625  0.1955 -0.9860  0.5158
15756TIP3    H168683   2.128   4.401   3.537  0.3524 -0.6097  0.6154
15756TIP3    H268684   2.207   4.294   3.609 -0.3734 -1.3747  0.2772
15757TIP3   OH268685   5.146   5.456   3.189 -0.5050  0.1376 -0.3145
15757TIP3    H168686   5.131   5.376   3.240 -0.9162  0.4618  0.0752
15757TIP3    H268687   5.222   5.497   3.231  1.0879 -1.1548 -1.8660
15758TIP3   OH268688   2.827   2.129  16.021 -0.5030 -0.5303  0.4076
15758TIP3    H168689   2.797   2.219  16.011  1.0676 -0.0236  0.0797
15758TIP3    H268690   2.764   2.088  16.080 -1.2893  0.7527  0.4566
15759TIP3   OH268691   4.559   4.263  12.203  0.1453 -0.2851 -0.0041
15759TIP3    H168692   4.546   4.327  12.133  1.6057  0.0636  0.0174
15759TIP3    H268693   4.483   4.274  12.260  0.1134  1.0712 -0.2846
15760TIP3   OH268694   4.097   4.239   3.399  0.3266  0.4172  0.0155
15760TIP3    H168695   4.120   4.208   3.486 -1.1825  0.9498  0.6269
15760TIP3    H268696   4.143   4.322   3.389  4.5748 -1.9472 -1.7171
15761TIP3   OH268697   2.471   4.733   3.514 -0.1405 -0.5182 -0.4959
15761TIP3    H168698   2.452   4.646   3.550 -0.0575 -0.5373 -0.4979
15761TIP3    H268699   2.566   4.744   3.526  0.0926 -1.0108 -1.7643
15762TIP3   OH268700   5.704   4.661   5.335  0.0378  0.3850  0.0812
15762TIP3    H168701   5.794   4.641   5.311 -0.4055 -1.4451 -0.1146
15762TIP3    H268702   5.677   4.587   5.391 -1.2591  1.0333  0.3329
15763TIP3   OH268703   0.538   4.549   3.633  0.1735 -0.3610 -0.4023
15763TIP3    H168704   0.586   4.503   3.702  0.5919 -0.4766 -0.7689
15763TIP3    H268705   0.531   4.485   3.562 -0.6501 -0.3924 -0.2937
15764TIP3   OH268706   3.116   3.334   3.641  0.0771 -0.5379  0.1885
15764TIP3    H168707   3.137   3.335   3.735 -2.2558 -1.2400  0.7673
15764TIP3    H268708   3.181   3.276   3.603 -0.3840 -2.1539  1.7759
15765TIP3   OH268709   5.310   0.517  15.375  0.1438  0.1294 -0.6866
15765TIP3    H168710   5.320   0.551  15.286 -0.0027 -0.6582 -1.0057
15765TIP3    H268711   5.217   0.527  15.393  0.1218  0.0051 -0.7337
15766TIP3   OH268712   1.980   5.042  11.044  0.1022 -0.2562  0.2087
15766TIP3    H168713   1.950   5.109  10.983  0.0339 -1.0541 -0.6454
15766TIP3    H268714   1.920   5.048  11.118 -0.5028 -0.0307 -0.2957
15767TIP3   OH268715   4.029   3.935   5.515 -0.1705 -0.6010 -0.1287
15767TIP3    H168716   3.948   3.963   5.558 -0.6124 -0.2520 -1.1939
15767TIP3    H268717   4.098   3.978   5.566 -0.6277 -1.0936  0.9310
15768TIP3   OH268718   5.047   4.920   5.132 -0.0539  0.3798 -0.4105
15768TIP3    H168719   5.016   4.943   5.044  1.2251  0.6830 -0.8049
15768TIP3    H268720   5.104   4.845   5.118 -2.1817 -1.4659  0.5630
15769TIP3   OH268721   0.401   3.381  15.197  0.1531 -0.1665 -0.6851
15769TIP3    H168722   0.433   3.471  15.186 -0.0449  0.0037  0.1262
15769TIP3    H268723   0.459   3.343  15.262  0.1370 -0.5825 -0.9152
15770TIP3   OH268724   3.650   0.078   1.933  0.0634 -0.3573  0.3775
15770TIP3    H168725   3.644   0.121   1.848  0.6397 -0.3674  0.3329
15770TIP3    H268726   3.649   0.150   1.996  2.1101 -0.2084  0.2591
15771TIP3   OH268727   1.752   4.990   2.723  0.3175 -0.2783 -0.4051
15771TIP3    H168728   1.717   5.010   2.637 -0.5958  0.2252  0.0713
15771TIP3    H268729   1.836   5.036   2.726  0.5523 -0.6529 -1.1812
15772TIP3   OH268730   6.228   1.695  16.100 -0.4733  0.1247 -0.0971
15772TIP3    H168731   6.245   1.638  16.025 -0.0249 -1.4619  1.1983
15772TIP3    H268732   6.143   1.735  16.081 -1.0071 -1.3183 -0.8023
15773TIP3   OH268733   4.595   0.634  10.595 -1.1077  0.3944  0.0750
15773TIP3    H168734   4.562   0.718  10.565 -0.5983  1.2365  1.8286
15773TIP3    H268735   4.686   0.631  10.563 -1.5750 -0.1621 -1.2594
15774TIP3   OH268736   4.369   4.056   3.160 -0.3724 -0.2202 -0.4640
15774TIP3    H168737   4.348   4.147   3.182  0.9265  0.3415 -1.4668
15774TIP3    H268738   4.464   4.050   3.169 -0.5462 -1.7596  0.5637
15775TIP3   OH268739   0.614   2.602   3.874  0.1919  0.2725  0.1020
15775TIP3    H168740   0.622   2.697   3.866 -1.1384  0.5012  1.3632
15775TIP3    H268741   0.552   2.577   3.805 -0.9399  0.5705  0.9973
15776TIP3   OH268742   1.454   2.821  16.325 -0.5480  0.4185  0.0255
15776TIP3    H168743   1.419   2.907  16.352 -1.5582  0.0434 -0.0540
15776TIP3    H268744   1.519   2.800  16.392  0.4332  1.6949 -0.4974
15777TIP3   OH268745   5.472   1.311  12.859 -0.3871  0.5363 -0.4407
15777TIP3    H168746   5.400   1.365  12.827 -1.2673  0.9582  2.1385
15777TIP3    H268747   5.437   1.269  12.938  2.1864  0.8064  0.9047
15778TIP3   OH268748   5.051   6.667  14.836 -0.1864  0.4514 -0.8558
15778TIP3    H168749   5.082   6.648  14.925 -0.1194 -1.1570 -1.2088
15778TIP3    H268750   4.974   6.722  14.848 -0.1439  0.2860  0.1959
15779TIP3   OH268751   1.885   3.375   3.217  0.3348 -0.5274  0.4018
15779TIP3    H168752   1.941   3.452   3.210  1.7670 -1.6466 -0.6301
15779TIP3    H268753   1.895   3.346   3.308  0.9108 -0.3237  0.4068
15780TIP3   OH268754   5.076   4.256  11.355 -0.3800  0.3442 -0.2798
15780TIP3    H168755   4.994   4.219  11.386 -0.0352 -0.3236 -0.1479
15780TIP3    H268756   5.110   4.306  11.430 -0.8587  0.9669 -0.4675
15781TIP3   OH268757   0.028   1.362   4.188 -0.4744 -0.1816 -0.3065
15781TIP3    H168758  -0.044   1.302   4.209  0.9732 -0.9435  2.8296
15781TIP3    H268759   0.094   1.307   4.146 -1.6073  0.5034 -3.1149
15782TIP3   OH268760   3.775   6.639   5.697  0.2353  0.4417  0.5253
15782TIP3    H168761   3.842   6.697   5.660  0.3070  0.8245  1.2658
15782TIP3    H268762   3.802   6.551   5.669 -0.4451  0.8496 -1.4801
15783TIP3   OH268763   6.282   3.142   5.546  0.2454 -0.2434  0.0541
15783TIP3    H168764   6.293   3.228   5.587 -0.3644 -0.6706  1.1144
15783TIP3    H268765   6.363   3.130   5.496 -0.0530  1.3454 -0.8631
15784TIP3   OH268766   4.681   1.751   4.731  0.4821 -0.5624 -0.1305
15784TIP3    H168767   4.676   1.831   4.679 -0.3590 -0.4379  0.1447
15784TIP3    H268768   4.736   1.775   4.806 -0.0081 -0.1636  0.1003
15785TIP3   OH268769   4.183   5.685   3.161 -0.2420  0.1001 -0.3525
15785TIP3    H168770   4.263   5.664   3.113  1.2269  0.1436  1.9950
15785TIP3    H268771   4.175   5.616   3.226 -2.4883 -0.2433 -0.9585
15786TIP3   OH268772   3.417   5.172  11.885 -0.0943  0.0317  0.3275
15786TIP3    H168773   3.414   5.122  11.967 -1.0724  0.4043  0.5300
15786TIP3    H268774   3.358   5.124  11.826 -0.8973  0.8387  0.4676
15787TIP3   OH268775   3.154   4.914  17.146 -0.8596  0.5866 -0.4321
15787TIP3    H168776   3.126   4.910  17.238 -1.1802 -0.3950 -0.5648
15787TIP3    H268777   3.246   4.938  17.151 -0.8546  0.4717  0.1579
15788TIP3   OH268778   4.448   0.800   5.959  0.0647  0.7828  0.1639
15788TIP3    H168779   4.399   0.827   6.037  0.9262  1.0761  0.6099
15788TIP3    H268780   4.408   0.849   5.888 -1.2597 -0.0880  0.2802
15789TIP3   OH268781   1.911   6.107   4.836 -0.0412 -0.3966 -0.4047
15789TIP3    H168782   1.998   6.073   4.815  0.3251  0.4002 -0.1830
15789TIP3    H268783   1.889   6.066   4.920  1.0354  1.0462  0.6052
15790TIP3   OH268784   5.850   0.013  11.184  0.5363  0.1506  0.4081
15790TIP3    H168785   5.936  -0.015  11.215 -0.0098 -1.2479  0.7189
15790TIP3    H268786   5.808   0.054  11.259  0.3862 -0.4575  0.6550
15791TIP3   OH268787   3.012   5.667   1.040 -0.0216  0.0570  0.0198
15791TIP3    H168788   3.097   5.623   1.032 -0.2704 -0.4019 -0.1102
15791TIP3    H268789   2.994   5.667   1.134  1.0731  1.9737  0.2527
15792TIP3   OH268790   4.001   3.267  16.850  0.1281  0.4652 -0.2863
15792TIP3    H168791   4.033   3.239  16.936 -0.2477 -1.8204 -0.8568
15792TIP3    H268792   3.922   3.317  16.869  0.4696  0.6278  0.7503
15793TIP3   OH268793   4.015   3.858   2.329 -0.5462  0.3793  0.3427
15793TIP3    H168794   4.045   3.944   2.300 -2.2375  0.9463  0.2101
15793TIP3    H268795   4.026   3.801   2.253  3.2450 -0.2231  1.2737
15794TIP3   OH268796   6.258   2.021   0.321 -0.0009  0.4989 -0.5013
15794TIP3    H168797   6.284   2.095   0.267 -2.7726  0.7903 -1.4895
15794TIP3    H268798   6.186   2.054   0.374  0.5546 -0.7242  1.0478
15795TIP3   OH268799   4.280   3.497   0.658 -0.1420 -0.5441 -0.1794
15795TIP3    H168800   4.358   3.542   0.625 -0.1307 -0.5360 -0.1424
15795TIP3    H268801   4.273   3.524   0.749 -1.9128  1.8393 -0.9708
15796TIP3   OH268802   1.873   0.674  15.948 -0.8969 -0.3442  0.2792
15796TIP3    H168803   1.909   0.710  15.867 -1.8700  0.4995  0.2076
15796TIP3    H268804   1.936   0.699  16.015 -0.3057 -0.6706 -0.1537
15797TIP3   OH268805   0.781   3.103   2.707 -0.1691  0.3909 -0.1224
15797TIP3    H168806   0.851   3.093   2.771 -0.3715  0.6044  0.1382
15797TIP3    H268807   0.820   3.152   2.635  0.3421 -0.7463 -0.6232
15798TIP3   OH268808   5.590   0.519   5.685 -0.2680 -0.1489 -0.0274
15798TIP3    H168809   5.627   0.433   5.702 -1.8803 -0.9504 -0.4518
15798TIP3    H268810   5.665   0.574   5.665  0.7195 -1.6165 -0.4371
15799TIP3   OH268811   3.775   5.368  11.199  0.4217  0.2923 -0.8991
15799TIP3    H168812   3.689   5.334  11.175  0.6883 -0.7528 -0.4161
15799TIP3    H268813   3.777   5.362  11.294  0.6857  1.1831 -0.8401
15800TIP3   OH268814   1.897   0.398   1.477 -0.2505  0.1008  0.1135
15800TIP3    H168815   1.975   0.435   1.516 -0.1675 -1.5384  1.5710
15800TIP3    H268816   1.824   0.446   1.516 -0.0769 -0.1598  0.7599
15801TIP3   OH268817   4.690   4.005   4.401  0.9139 -0.5490 -0.3351
15801TIP3    H168818   4.692   4.007   4.306  0.8621 -0.1808 -0.3273
15801TIP3    H268819   4.709   3.913   4.423  1.5569 -0.5039 -0.6815
15802TIP3   OH268820   0.161   3.007   6.102 -0.0729 -0.0811  0.1324
15802TIP3    H168821   0.187   2.935   6.159 -2.2089 -1.5662 -0.7057
15802TIP3    H268822   0.206   2.990   6.020 -1.0971 -0.8414 -0.2767
15803TIP3   OH268823   2.096   1.426  14.980 -0.7265  0.1905 -0.2835
15803TIP3    H168824   2.084   1.490  14.910 -0.8270  0.4042 -0.0709
15803TIP3    H268825   2.141   1.474  15.049 -1.5968  0.2709  0.2313
15804TIP3   OH268826   6.028   0.378  13.216  0.3288  0.1235 -0.2125
15804TIP3    H168827   5.997   0.312  13.277 -2.3066 -0.2289 -1.8556
15804TIP3    H268828   6.051   0.329  13.137  1.9085  0.7723 -0.1635
15805TIP3   OH268829   2.744   1.304   4.633 -0.4062  0.1062  0.5269
15805TIP3    H168830   2.749   1.389   4.590 -0.9836 -0.2566 -0.2531
15805TIP3    H268831   2.819   1.304   4.693  1.1149  0.1632 -1.3000
15806TIP3   OH268832   5.376   0.777  13.499 -0.6349  0.5609  0.6064
15806TIP3    H168833   5.281   0.768  13.504 -0.6966  0.9071  0.0840
15806TIP3    H268834   5.393   0.865  13.534 -0.7148  1.4041 -1.4074
15807TIP3   OH268835   3.348   5.181   1.255 -0.1129  0.2070 -0.0201
15807TIP3    H168836   3.368   5.118   1.324  0.0849  1.0168  0.6756
15807TIP3    H268837   3.393   5.148   1.178  0.8839  0.0644  0.6169
15808TIP3   OH268838   1.597   2.369   1.807  0.4527 -0.4526 -0.1875
15808TIP3    H168839   1.602   2.431   1.880  0.5412 -0.6438 -0.0293
15808TIP3    H268840   1.595   2.283   1.849  2.8251 -0.6843 -0.4668
15809TIP3   OH268841   0.464   6.252   1.319  0.1447  0.2795 -0.1129
15809TIP3    H168842   0.528   6.202   1.370  1.1370 -1.7666 -3.1890
15809TIP3    H268843   0.405   6.289   1.384  0.9282 -2.7697  2.4811
15810TIP3   OH268844   1.722   2.170  15.203 -0.2437 -0.0440  0.4566
15810TIP3    H168845   1.753   2.183  15.113 -0.3790 -0.4026  0.3575
15810TIP3    H268846   1.753   2.247  15.250  1.7475 -0.9027  0.6009
15811TIP3   OH268847   6.221   5.745  13.159 -0.6346 -0.1479  0.0362
15811TIP3    H168848   6.206   5.658  13.196 -0.9806 -0.0340  0.1675
15811TIP3    H268849   6.312   5.743  13.129 -1.4521 -1.4870 -2.4901
15812TIP3   OH268850   5.920   2.430  15.426 -0.1003 -0.1732 -0.8804
15812TIP3    H168851   5.984   2.482  15.379  0.9745 -0.4003  0.3097
15812TIP3    H268852   5.917   2.468  15.514 -1.5407 -0.2074 -0.8937
15813TIP3   OH268853   2.061   3.416  13.993 -0.1448  0.1026 -0.3229
15813TIP3    H168854   2.067   3.412  13.897 -0.2629  0.5007 -0.3478
15813TIP3    H268855   2.106   3.337  14.023  0.8578  0.5445 -0.6630
15814TIP3   OH268856   4.033   5.532   4.381  0.0948 -0.3326 -0.4532
15814TIP3    H168857   4.028   5.590   4.305 -0.1928 -0.6609 -0.6848
15814TIP3    H268858   4.126   5.521   4.397  0.1592  1.0431  0.2280
15815TIP3   OH268859   6.403   1.044   0.681 -0.1769  0.0862 -1.0944
15815TIP3    H168860   6.378   1.105   0.612 -0.1907 -0.4241 -1.5469
15815TIP3    H268861   6.392   1.093   0.762 -0.9950  0.4199 -1.4014
15816TIP3   OH268862   5.630   1.307   1.792  0.3099 -0.0226  0.3136
15816TIP3    H168863   5.557   1.284   1.850 -0.3813 -0.3948 -0.6913
15816TIP3    H268864   5.683   1.228   1.788 -0.9131 -0.7830 -1.4285
15817TIP3   OH268865   5.960   0.722   6.176 -0.2569  0.0608  0.2015
15817TIP3    H168866   5.963   0.658   6.248  0.0025  0.8816  0.9326
15817TIP3    H268867   5.922   0.801   6.216  0.7507  0.8209 -0.3351
15818TIP3   OH268868   5.313   4.455  12.044 -0.1797 -0.1785  0.2209
15818TIP3    H168869   5.247   4.405  12.092  0.0666 -0.1737  0.5650
15818TIP3    H268870   5.278   4.543  12.039 -0.1636 -0.1578  0.4745
15819TIP3   OH268871   5.127   1.124   5.185  0.7545 -0.2468 -0.2762
15819TIP3    H168872   5.175   1.092   5.262 -2.2385 -0.1852  1.7156
15819TIP3    H268873   5.132   1.220   5.192 -0.4992 -0.2292  0.5220
15820TIP3   OH268874   4.061   2.113  11.068  0.0455 -0.0232 -0.2544
15820TIP3    H168875   4.098   2.202  11.066  1.0100 -0.4330 -1.0963
15820TIP3    H268876   4.132   2.057  11.037 -0.5885 -1.0855  0.1990
15821TIP3   OH268877   2.825   4.465  13.877  0.4946 -0.2193 -0.1089
15821TIP3    H168878   2.845   4.398  13.943  0.2569  0.5365  0.7419
15821TIP3    H268879   2.743   4.503  13.906 -0.2681 -0.7345 -1.5463
15822TIP3   OH268880   0.761   4.267  15.007 -0.0436  0.2970 -0.3159
15822TIP3    H168881   0.733   4.184  15.044 -2.2440  1.3256  0.4265
15822TIP3    H268882   0.733   4.263  14.915 -1.3763  0.7219  0.0535
15823TIP3   OH268883   6.269   0.048   2.071 -0.2655  0.0637  0.0602
15823TIP3    H168884   6.271   0.096   2.154  2.1143 -0.8161  0.5305
15823TIP3    H268885   6.300   0.111   2.006 -3.0671  1.0727 -0.3963
15824TIP3   OH268886   2.758   6.314  14.432 -0.0170  0.0867  0.0960
15824TIP3    H168887   2.782   6.404  14.408  0.7857 -0.2242 -0.2552
15824TIP3    H268888   2.772   6.263  14.352  0.5921 -0.5535  0.6010
15825TIP3   OH268889   6.273   0.446   3.364  0.5981 -0.0027 -0.2814
15825TIP3    H168890   6.274   0.446   3.268 -1.2147 -0.9919 -0.3265
15825TIP3    H268891   6.342   0.384   3.388 -0.0244 -1.0087 -1.0070
15826TIP3   OH268892   1.284   0.741   2.499  0.3613  0.3781 -0.4560
15826TIP3    H168893   1.330   0.665   2.533  0.0593  0.0316 -0.8112
15826TIP3    H268894   1.336   0.816   2.527  0.4720  0.0593  0.1913
15827TIP3   OH268895   0.455   5.602   5.600  0.4322 -0.9203  0.2647
15827TIP3    H168896   0.529   5.664   5.599 -0.8865  0.6774 -0.3558
15827TIP3    H268897   0.440   5.584   5.693  2.3906 -2.2517  0.3574
15828TIP3   OH268898   3.807   1.271   0.322  0.0773 -0.0180 -0.1746
15828TIP3    H168899   3.797   1.180   0.294 -1.2078 -0.2006  0.8204
15828TIP3    H268900   3.742   1.319   0.270  1.2716  0.4642 -1.2484
15829TIP3   OH268901   5.980   0.399  17.110  0.0554  0.0975  0.2746
15829TIP3    H168902   6.017   0.375  17.195  2.5641  1.7457 -0.2670
15829TIP3    H268903   5.933   0.481  17.127 -2.1616 -1.2088  0.6550
15830TIP3   OH268904   5.867   2.008  15.242 -0.7433 -0.0363 -0.2514
15830TIP3    H168905   5.846   1.940  15.306  2.3453  0.8408  1.8131
15830TIP3    H268906   5.842   2.090  15.285 -0.3462  0.4333 -0.9054
15831TIP3   OH268907   2.889   5.664   6.112  0.1584 -0.4548  0.2809
15831TIP3    H168908   2.814   5.700   6.065  0.0323 -1.5320 -0.3821
15831TIP3    H268909   2.867   5.673   6.205  1.3586  3.7117  0.2495
15832TIP3   OH268910   1.418   6.394  13.990  0.2480  0.1767  0.1821
15832TIP3    H168911   1.389   6.344  13.914  0.2575 -1.6873  1.3572
15832TIP3    H268912   1.484   6.338  14.031  0.3983  1.2557  1.4440
15833TIP3   OH268913   2.104   4.506  15.699 -0.0850  0.1352 -0.2877
15833TIP3    H168914   2.172   4.573  15.709  1.4394 -1.2429 -1.3225
15833TIP3    H268915   2.121   4.466  15.614  1.7042 -4.4930  2.0592
15834TIP3   OH268916   1.132   6.202  16.164  0.0828 -0.3956 -0.3563
15834TIP3    H168917   1.218   6.183  16.128  0.7654 -0.3218  1.2398
15834TIP3    H268918   1.148   6.259  16.239 -1.1769 -2.2970  1.4096
15835TIP3   OH268919   3.299   2.732  12.921 -0.5289  0.5052  0.1954
15835TIP3    H168920   3.334   2.737  13.010  1.5470  1.8356 -0.6556
15835TIP3    H268921   3.205   2.745  12.932 -0.3457  0.2948  2.2367
15836TIP3   OH268922   1.833   5.201  16.829  0.7641 -0.1543 -0.3424
15836TIP3    H168923   1.912   5.238  16.868 -0.1002  0.9017  0.4315
15836TIP3    H268924   1.770   5.273  16.830 -0.6552 -1.3891  0.3351
15837TIP3   OH268925   3.443   2.977  13.252 -0.3443 -0.2071 -0.1890
15837TIP3    H168926   3.364   2.938  13.288  0.6433 -1.5703  0.5256
15837TIP3    H268927   3.502   2.987  13.327  0.7862 -0.7567 -0.9821
15838TIP3   OH268928   0.855   0.058  16.348 -0.2420  0.4826 -0.2373
15838TIP3    H168929   0.791  -0.012  16.351  0.3937 -0.1105 -0.3230
15838TIP3    H268930   0.918   0.037  16.417 -0.0953  1.0127 -0.2018
15839TIP3   OH268931   1.986   0.533  15.395  0.6339 -0.2284 -0.7823
15839TIP3    H168932   2.065   0.537  15.342  0.1291 -1.5381 -1.6522
15839TIP3    H268933   1.972   0.439  15.409  0.0522  0.0515  0.6084
15840TIP3   OH268934   1.455   5.469  16.136 -0.0922  0.5016  0.1338
15840TIP3    H168935   1.548   5.465  16.158 -0.1402  0.9371  0.4082
15840TIP3    H268936   1.454   5.487  16.041  0.1056  0.2116  0.0769
15841TIP3   OH268937   6.635   4.123   1.040 -0.1761  0.3243  0.8282
15841TIP3    H168938   6.644   4.146   0.947 -3.1375 -1.2565  0.0890
15841TIP3    H268939   6.719   4.084   1.063  0.8554  1.3887 -0.9837
15842TIP3   OH268940   1.754   0.102   6.720  0.2643  0.1952  0.0660
15842TIP3    H168941   1.734   0.027   6.665  2.0061 -0.7814  0.7182
15842TIP3    H268942   1.845   0.124   6.699  0.0059  1.6665  0.4116
15843TIP3   OH268943   4.919   6.190   3.068  0.3107 -0.2071 -0.0589
15843TIP3    H168944   4.972   6.153   2.998 -2.1374 -0.8449 -1.6564
15843TIP3    H268945   4.907   6.281   3.043 -0.8851 -0.5292 -0.7183
15844TIP3   OH268946   6.214   3.301   3.163  0.2214  0.8214  0.3023
15844TIP3    H168947   6.220   3.348   3.080  0.6310  1.0963  0.4832
15844TIP3    H268948   6.212   3.370   3.229  0.9086  0.5917  0.5722
15845TIP3   OH268949   1.468   4.814   2.258 -0.2941 -0.1763 -0.6695
15845TIP3    H168950   1.481   4.807   2.164  0.8710  0.4660 -0.5660
15845TIP3    H268951   1.548   4.778   2.296 -0.6114 -0.1158  0.0631
15846TIP3   OH268952   5.056   1.003   0.036  0.6066 -0.3195  0.3815
15846TIP3    H168953   4.998   1.020   0.111 -0.3487 -2.0156  0.0560
15846TIP3    H268954   5.060   1.086  -0.011 -1.0324  0.0024  0.7879
15847TIP3   OH268955   5.365   2.956   1.851  0.4375 -0.0473 -0.1357
15847TIP3    H168956   5.357   2.929   1.759 -1.5339 -2.1333  0.5781
15847TIP3    H268957   5.459   2.961   1.867  0.8161 -0.8104 -1.9656
15848TIP3   OH268958   0.557   2.526  14.890 -0.3989 -0.5002  0.1799
15848TIP3    H168959   0.481   2.581  14.912 -1.0532 -1.1459 -0.4392
15848TIP3    H268960   0.621   2.547  14.957 -0.4289  1.4350 -0.3425
15849TIP3   OH268961   6.371   3.082  13.874  0.3932  0.4266 -0.2520
15849TIP3    H168962   6.451   3.103  13.923  0.8459  1.4565 -1.3819
15849TIP3    H268963   6.367   3.150  13.806 -1.3073  0.2210 -0.3659
15850TIP3   OH268964   3.020   1.983   3.979  0.1449 -0.0564 -0.3002
15850TIP3    H168965   3.068   1.973   3.897  1.4394  0.0300  0.4192
15850TIP3    H268966   3.080   1.948   4.045  0.1210  2.0505  0.8825
15851TIP3   OH268967   1.949   4.847  16.225  0.5889  0.1784 -0.8160
15851TIP3    H168968   1.994   4.769  16.258 -0.7910 -0.3252 -0.0639
15851TIP3    H268969   1.906   4.817  16.145 -1.4243 -0.3415  0.4193
15852TIP3   OH268970   6.561   3.124   0.935 -0.6799 -0.0017 -0.7590
15852TIP3    H168971   6.508   3.050   0.904 -1.2286  0.1498 -0.2112
15852TIP3    H268972   6.520   3.149   1.018 -0.8735  1.3012 -1.2286
15853TIP3   OH268973   5.894   3.151   2.825 -0.0452  0.5049 -1.0785
15853TIP3    H168974   5.946   3.080   2.862 -2.5821 -0.9507 -0.1048
15853TIP3    H268975   5.870   3.121   2.738  1.6834  1.6806 -1.9722
15854TIP3   OH268976   3.729   4.523  15.509 -0.2387 -0.4316  0.2214
15854TIP3    H168977   3.756   4.498  15.598 -1.8773 -0.7796  0.6251
15854TIP3    H268978   3.703   4.615  15.517  0.3519 -0.2342 -0.0720
15855TIP3   OH268979   3.523   1.792   4.001  0.6303  0.4450  0.1667
15855TIP3    H168980   3.610   1.787   4.041  0.3429 -0.8010  0.6417
15855TIP3    H268981   3.463   1.759   4.069 -0.1121  0.4735 -0.4715
15856TIP3   OH268982   1.045   5.339  15.847 -0.1401 -0.0231 -0.1759
15856TIP3    H168983   1.132   5.374  15.863 -0.2660 -0.4525  1.5299
15856TIP3    H268984   1.008   5.396  15.779  0.7800  1.2623  0.3977
15857TIP3   OH268985   5.830   4.679   0.226 -0.7753  0.4126 -0.9357
15857TIP3    H168986   5.900   4.745   0.219 -0.3001  0.0937  0.6399
15857TIP3    H268987   5.759   4.725   0.270 -0.1766 -0.3251  0.8159
15858TIP3   OH268988   6.726   1.023  12.117 -0.2553 -0.1418 -0.4165
15858TIP3    H168989   6.794   1.009  12.183 -1.5062 -1.2893  0.6659
15858TIP3    H268990   6.675   0.942  12.118 -1.2408  0.4532 -1.6638
15859TIP3   OH268991   3.598   1.550   2.762 -0.5904  0.1837 -0.6316
15859TIP3    H168992   3.613   1.504   2.679  0.5047 -0.4477 -0.0936
15859TIP3    H268993   3.664   1.619   2.763  0.2005 -0.5676  0.2564
15860TIP3   OH268994   5.903   1.429   4.785  0.1918  0.1042  0.5029
15860TIP3    H168995   5.871   1.501   4.839 -0.2470  0.5988 -0.4104
15860TIP3    H268996   5.854   1.436   4.704  1.3174 -0.2284 -0.2238
15861TIP3   OH268997   2.711   2.246   0.323  0.0291 -0.7468 -0.2373
15861TIP3    H168998   2.625   2.279   0.297 -0.1337 -1.0432 -0.0825
15861TIP3    H268999   2.694   2.157   0.354  0.5567 -1.2161 -1.2761
15862TIP3   OH269000   2.011   4.530  11.573  0.2752  0.3810 -0.2025
15862TIP3    H169001   1.985   4.454  11.520  0.3583  0.0688  0.1987
15862TIP3    H269002   2.106   4.527  11.574  0.2629 -0.2309  0.8283
15863TIP3   OH269003   6.036   1.250  15.049 -0.2296  0.2984  0.8599
15863TIP3    H169004   6.127   1.231  15.069 -0.2405  2.2007  2.9922
15863TIP3    H269005   6.023   1.218  14.960  2.7522  0.7445  0.2301
15864TIP3   OH269006   0.230   2.238  14.751 -0.5067  0.2121  0.4521
15864TIP3    H169007   0.316   2.281  14.750 -1.3491  1.9480  0.2017
15864TIP3    H269008   0.208   2.227  14.659 -0.7940  0.2882  0.5104
15865TIP3   OH269009   0.776   4.537  16.529  0.1857 -0.1382 -0.1581
15865TIP3    H169010   0.868   4.561  16.519 -0.1286  0.8362 -0.8162
15865TIP3    H269011   0.772   4.491  16.612  0.7265  2.6709  1.4833
15866TIP3   OH269012   4.619   6.217  14.431 -0.0683  0.2571 -0.4474
15866TIP3    H169013   4.667   6.300  14.438  0.2804  0.0140  0.1017
15866TIP3    H269014   4.581   6.218  14.343  0.6471  0.6138 -0.7510
15867TIP3   OH269015   2.576   2.008  16.534 -0.3788  0.0046 -0.0030
15867TIP3    H169016   2.504   1.948  16.514 -1.0877  0.8201  0.0852
15867TIP3    H269017   2.611   2.032  16.448  0.2724 -0.9500 -0.0231
15868TIP3   OH269018   5.360   6.342  16.347  0.5300 -0.3734  0.3662
15868TIP3    H169019   5.381   6.356  16.255  0.8588 -1.2314  0.3014
15868TIP3    H269020   5.274   6.381  16.359 -0.7085 -2.6014 -0.9617
15869TIP3   OH269021   4.253   4.869   5.991  0.3161  0.2095 -0.2654
15869TIP3    H169022   4.222   4.791   6.037  0.8495 -0.1536 -0.5141
15869TIP3    H269023   4.284   4.837   5.906  1.6996  0.5047  0.1141
15870TIP3   OH269024   1.975   1.521   4.233 -0.1939  0.1249  0.6403
15870TIP3    H169025   2.068   1.543   4.220 -0.1947 -0.2958 -0.0886
15870TIP3    H269026   1.940   1.595   4.282  0.4990  0.3536  0.8010
15871TIP3   OH269027   0.502   0.879  13.384 -0.2928 -0.0384  0.0420
15871TIP3    H169028   0.436   0.918  13.441  0.9019  0.1184  1.3507
15871TIP3    H269029   0.582   0.879  13.437  0.7178 -0.3492 -1.4630
15872TIP3   OH269030   0.940   0.095  13.710 -0.1421 -0.0253  0.3402
15872TIP3    H169031   0.996   0.173  13.708 -0.2508  0.0038 -2.4248
15872TIP3    H269032   0.886   0.108  13.788  0.4844  2.2265  0.4513
15873TIP3   OH269033   6.661   6.629  14.404  0.7603 -0.3395  0.0768
15873TIP3    H169034   6.721   6.686  14.355 -0.2034  0.1561 -0.5461
15873TIP3    H269035   6.683   6.540  14.376  1.4410 -0.1852  0.1234
15874TIP3   OH269036   5.621   4.036  11.539 -0.6645  0.1811  0.5691
15874TIP3    H169037   5.644   4.044  11.631 -0.4595  1.0071  0.4531
15874TIP3    H269038   5.563   4.110  11.522  3.6371  3.3581 -1.2766
15875TIP3   OH269039   0.036   2.377   0.066 -0.0790 -0.1993  0.3810
15875TIP3    H169040   0.115   2.343   0.024 -0.6854  1.3161 -2.0835
15875TIP3    H269041  -0.004   2.434   0.000 -2.5424  0.0915  2.0481
15876TIP3   OH269042   4.585   1.450  13.226  0.3557  0.5505 -0.1089
15876TIP3    H169043   4.605   1.361  13.256  0.2705 -0.4500 -2.8178
15876TIP3    H269044   4.498   1.468  13.261  0.4110 -0.4018  0.5354
15877TIP3   OH269045   6.481   5.915  16.224 -0.3734 -0.2901  0.2964
15877TIP3    H169046   6.487   5.978  16.296  1.4088 -0.1262  0.0219
15877TIP3    H269047   6.555   5.936  16.167 -2.3120  0.2227 -2.1316
15878TIP3   OH269048   4.908   2.819   6.045  0.4232  0.3731  0.3662
15878TIP3    H169049   4.975   2.869   6.092 -1.1334  1.2265  1.7168
15878TIP3    H269050   4.849   2.787   6.114 -1.7922  1.4786 -0.9689
15879TIP3   OH269051   0.870   1.364   2.594 -1.0188 -0.2733 -0.1376
15879TIP3    H169052   0.867   1.396   2.684  1.5304 -1.9938  0.6019
15879TIP3    H269053   0.778   1.363   2.566 -1.8270  0.5125  2.3357
15880TIP3   OH269054   0.527   3.629   4.471 -0.4343  0.1951  0.8221
15880TIP3    H169055   0.597   3.678   4.429 -0.4971  0.2540  0.7853
15880TIP3    H269056   0.449   3.648   4.418 -1.0016  2.0768  2.2411
15881TIP3   OH269057   4.412   4.534   1.126 -0.3604  0.2693  0.0248
15881TIP3    H169058   4.368   4.449   1.115 -0.3347  0.1973  0.4632
15881TIP3    H269059   4.368   4.592   1.064 -0.8910  0.1277  0.2709
15882TIP3   OH269060   0.745   4.817   1.827 -0.3088  0.3798 -0.4004
15882TIP3    H169061   0.746   4.900   1.778  0.6720  1.2594  1.0710
15882TIP3    H269062   0.671   4.825   1.886  1.2627  1.2898  1.5061
15883TIP3   OH269063   2.087   1.325   1.087 -0.5520 -0.3973  0.1026
15883TIP3    H169064   2.116   1.330   0.996 -0.8725 -0.4067 -0.0011
15883TIP3    H269065   2.151   1.268   1.130  0.3513  0.6600  0.1859
15884TIP3   OH269066   2.875   2.738   0.620 -0.1690  0.0533 -0.7255
15884TIP3    H169067   2.955   2.688   0.632  1.6313  2.8345 -0.5933
15884TIP3    H269068   2.896   2.801   0.550 -1.5711  2.1185  0.6401
15885TIP3   OH269069   5.930   4.796  14.915 -0.1730 -0.0741  0.0049
15885TIP3    H169070   5.994   4.864  14.894 -0.9669  0.8809  0.6543
15885TIP3    H269071   5.969   4.748  14.988 -1.2279  2.0151  2.0118
15886TIP3   OH269072   3.852   0.482   3.086 -0.2333 -0.2802  0.1396
15886TIP3    H169073   3.850   0.572   3.052  0.3329 -0.3223  0.0016
15886TIP3    H269074   3.790   0.435   3.029  1.2627 -0.5155 -1.3219
15887TIP3   OH269075   3.037   6.610   3.807  0.5872  0.0332 -0.3096
15887TIP3    H169076   2.942   6.592   3.810  0.6417 -0.7852 -2.5046
15887TIP3    H269077   3.046   6.698   3.844 -1.1779  0.5832 -1.1272
15888TIP3   OH269078   2.735   4.801  14.358  0.1255 -0.3209  0.0327
15888TIP3    H169079   2.779   4.816  14.274  0.5673  0.5744  0.4201
15888TIP3    H269080   2.806   4.795  14.421 -0.1656 -1.6613  0.2660
15889TIP3   OH269081   5.108   3.495  13.380 -0.3831 -0.2287  0.2546
15889TIP3    H169082   5.133   3.453  13.463  1.0314 -1.5342 -0.8066
15889TIP3    H269083   5.100   3.587  13.402  2.1465 -0.2219  1.4253
15890TIP3   OH269084   3.110   4.205  16.743 -0.1439  0.2365  0.0235
15890TIP3    H169085   3.133   4.224  16.834  0.1543 -0.4935  0.1027
15890TIP3    H269086   3.109   4.291  16.700  0.3311  0.5191  0.5718
15891TIP3   OH269087   3.418   2.003   2.061  0.3708  0.5270  0.0239
15891TIP3    H169088   3.449   1.948   2.133  1.4107  1.5293  0.3535
15891TIP3    H269089   3.323   2.000   2.068  0.4542  0.0143  0.9810
15892TIP3   OH269090   0.466   4.562   0.774  0.0867 -0.1060  0.3738
15892TIP3    H169091   0.388   4.508   0.792  0.0977  0.0857  1.0193
15892TIP3    H269092   0.431   4.643   0.738  0.0264 -0.2811  0.0404
15893TIP3   OH269093   4.412   0.579  15.538  0.4926  0.0753  0.2018
15893TIP3    H169094   4.428   0.641  15.609  1.4951 -0.0362  0.0700
15893TIP3    H269095   4.499   0.550  15.511  0.1399  0.3455 -1.2773
15894TIP3   OH269096   3.527   4.715   5.177  0.1165 -0.1437 -0.1182
15894TIP3    H169097   3.566   4.645   5.229 -0.7686 -1.7772 -1.5845
15894TIP3    H269098   3.532   4.793   5.233  0.7596 -1.4579  1.6975
15895TIP3   OH269099   5.148   0.370  12.378  0.0664 -0.1620  0.0923
15895TIP3    H169100   5.214   0.390  12.444  0.2219  2.3324 -0.7628
15895TIP3    H269101   5.173   0.283  12.345  1.8778 -0.0253  1.0390
15896TIP3   OH269102   1.514   3.806  14.785 -0.3548  0.1490 -0.2787
15896TIP3    H169103   1.518   3.893  14.745  0.7458  0.8470  1.3001
15896TIP3    H269104   1.534   3.746  14.713  1.3469  1.3565 -0.8504
15897TIP3   OH269105   3.223   3.214   5.743 -0.2528  0.5898  0.2541
15897TIP3    H169106   3.130   3.209   5.721 -0.2344  1.2193  0.0153
15897TIP3    H269107   3.238   3.307   5.762  0.0312  0.2756  1.6106
15898TIP3   OH269108   2.691   4.007   4.919 -0.3244 -0.8829  0.2215
15898TIP3    H169109   2.620   3.944   4.929 -0.2854 -0.6099  2.5261
15898TIP3    H269110   2.653   4.091   4.946  0.2464 -0.3217 -0.6914
15899TIP3   OH269111   2.668   1.993   0.456 -0.1348 -0.8288  0.2574
15899TIP3    H169112   2.589   2.008   0.509  0.0281 -0.1909  0.3179
15899TIP3    H269113   2.740   1.999   0.518  0.1685  1.3346 -0.2583
15900TIP3   OH269114   6.066   3.939   0.148  0.3514  1.1689  0.0336
15900TIP3    H169115   5.997   3.981   0.098  1.6855 -0.4183 -3.3388
15900TIP3    H269116   6.021   3.872   0.200 -0.8547  1.5652 -0.4904
15901TIP3   OH269117   0.156   2.549  16.427 -0.0326  0.6676 -0.3831
15901TIP3    H169118   0.226   2.609  16.454 -0.8450  0.6895  1.7235
15901TIP3    H269119   0.200   2.465  16.417  0.0523  0.3222  2.4895
15902TIP3   OH269120   4.728   1.500   3.160 -0.4589  0.6225 -0.4864
15902TIP3    H169121   4.786   1.493   3.084  0.7380 -1.2673  0.5575
15902TIP3    H269122   4.729   1.413   3.199 -0.1027  1.8562  2.3868
15903TIP3   OH269123   3.950   0.728  14.514 -0.2194 -0.0151 -0.0962
15903TIP3    H169124   3.863   0.698  14.488  0.5297 -1.4273 -1.0134
15903TIP3    H269125   3.952   0.820  14.487 -2.3294  0.7766  2.2408
15904TIP3   OH269126   2.020   1.057  13.124  0.1217  0.4427  0.5444
15904TIP3    H169127   2.081   1.121  13.158  1.6180 -1.9384  2.5083
15904TIP3    H269128   1.949   1.055  13.188 -0.9956  1.6231 -0.6124
15905TIP3   OH269129   1.184   1.290   2.691 -0.0939 -0.7845  0.1861
15905TIP3    H169130   1.277   1.314   2.699 -0.5380  1.1075 -0.1755
15905TIP3    H269131   1.180   1.239   2.610  0.2784  1.0342 -1.0169
15906TIP3   OH269132   1.701   3.692  14.044 -0.4549  0.3009 -0.6223
15906TIP3    H169133   1.700   3.788  14.049  0.4474  0.3501 -1.2927
15906TIP3    H269134   1.737   3.664  14.128 -1.5903  0.5073 -0.0517
15907TIP3   OH269135   3.403   4.996  14.260  0.1201 -1.1114 -0.0994
15907TIP3    H169136   3.326   4.958  14.220 -0.5463  0.0338  0.0768
15907TIP3    H269137   3.463   4.922  14.273  0.0479 -1.6213 -2.4835
15908TIP3   OH269138   1.438   1.093   0.697 -0.1006 -0.0149 -0.3649
15908TIP3    H169139   1.426   1.090   0.792  0.0131  0.0606 -0.3488
15908TIP3    H269140   1.451   1.186   0.678  0.5703 -0.1118 -0.3729
15909TIP3   OH269141   5.233   3.988   2.016 -0.5609  0.3423  0.1736
15909TIP3    H169142   5.208   3.978   1.924  0.9825 -1.7171 -0.0881
15909TIP3    H269143   5.170   3.933   2.064 -0.3792  0.1192  0.1601
15910TIP3   OH269144   6.111   1.401  13.397 -0.3577 -0.2852  0.3390
15910TIP3    H169145   6.056   1.326  13.419 -0.6157  0.3726  2.0014
15910TIP3    H269146   6.073   1.436  13.316 -1.9571 -0.2763  1.0731
15911TIP3   OH269147   1.658   6.261   0.771 -0.0445 -0.0656  0.0600
15911TIP3    H169148   1.589   6.256   0.706  0.3438 -2.4372 -0.2065
15911TIP3    H269149   1.730   6.306   0.726 -0.8223  0.9761 -0.1656
15912TIP3   OH269150   3.235   2.609   5.231 -0.1825  0.3517  0.2738
15912TIP3    H169151   3.200   2.623   5.143 -2.8158  0.3636  1.2729
15912TIP3    H269152   3.276   2.523   5.228 -2.2403 -0.6324 -0.4006
15913TIP3   OH269153   0.550   1.386   1.013 -0.4299  0.0818  0.0826
15913TIP3    H169154   0.463   1.396   0.972 -0.6808 -0.3507  0.5061
15913TIP3    H269155   0.549   1.448   1.086  0.4841  1.7747 -1.3055
15914TIP3   OH269156   0.732   0.313   0.180 -0.1045  0.5614 -0.1556
15914TIP3    H169157   0.674   0.335   0.253 -0.5898  1.9380 -0.9345
15914TIP3    H269158   0.790   0.389   0.172  0.1204  0.2968 -1.0375
15915TIP3   OH269159   1.340   2.279  16.962  0.3679  0.5718 -0.4204
15915TIP3    H169160   1.305   2.308  16.878  1.4085  3.2747  0.0099
15915TIP3    H269161   1.263   2.256  17.014 -0.3014 -0.6096 -1.9312
15916TIP3   OH269162   1.033   3.327   5.638  0.2314 -0.3335  0.1077
15916TIP3    H169163   1.056   3.417   5.614 -1.5416  0.4510  1.3151
15916TIP3    H269164   1.090   3.306   5.712  1.0865 -0.4523 -0.5678
15917TIP3   OH269165   0.213   1.120   0.823  0.0744  0.3393 -0.2744
15917TIP3    H169166   0.118   1.122   0.829  0.1650  1.2680  1.0307
15917TIP3    H269167   0.232   1.140   0.731 -0.9579  0.9082 -0.3669
15918TIP3   OH269168   1.867   2.621  12.059 -0.0836 -0.6493  0.0291
15918TIP3    H169169   1.797   2.686  12.046 -0.4599 -1.1366 -0.4099
15918TIP3    H269170   1.820   2.540  12.078  0.3667 -0.9977 -0.3614
15919TIP3   OH269171   6.196   5.752   5.127 -0.4291 -0.2617 -0.3202
15919TIP3    H169172   6.127   5.720   5.185 -0.4808 -2.0381 -1.3366
15919TIP3    H269173   6.149   5.784   5.050 -0.1704 -0.7574 -0.6847
15920TIP3   OH269174   5.267   6.106   1.964  0.2248 -0.4040  0.1895
15920TIP3    H169175   5.251   6.150   1.881 -0.6528 -3.8086 -1.5352
15920TIP3    H269176   5.186   6.118   2.013 -0.8656 -1.9550 -1.1807
15921TIP3   OH269177   0.656   5.049   5.727  0.4229  0.4710  0.3892
15921TIP3    H169178   0.741   5.076   5.762 -0.0376  0.5874  1.4049
15921TIP3    H269179   0.615   5.130   5.697  0.7932  0.3781 -0.3937
15922TIP3   OH269180   0.335   3.803   3.233  0.0907 -0.6811 -0.3703
15922TIP3    H169181   0.290   3.781   3.315  2.1425 -1.3567  0.5971
15922TIP3    H269182   0.289   3.751   3.167 -2.5363  0.9666  0.0535
15923TIP3   OH269183   6.614   6.311   0.145 -0.1059  0.3267  0.7155
15923TIP3    H169184   6.678   6.374   0.112 -1.1791  0.7302 -0.6402
15923TIP3    H269185   6.628   6.310   0.240  1.6646  0.6586  0.4704
15924TIP3   OH269186   6.595   0.837   3.541  0.3739  0.0147  0.2906
15924TIP3    H169187   6.557   0.772   3.483 -1.0517  0.5979  0.5457
15924TIP3    H269188   6.678   0.799   3.570 -0.2959 -1.5324  0.1970
15925TIP3   OH269189   4.038   2.282   0.562 -0.1006  0.1896  0.3396
15925TIP3    H169190   3.998   2.215   0.618  1.4170 -1.9961 -1.0943
15925TIP3    H269191   4.112   2.315   0.613  0.5735 -0.9572  0.1357
15926TIP3   OH269192   4.129   1.470   4.160  0.2801  0.1654 -0.2551
15926TIP3    H169193   4.107   1.400   4.098  1.5908 -0.4633 -0.0399
15926TIP3    H269194   4.053   1.473   4.219  0.4196 -1.4500  0.0520
15927TIP3   OH269195   0.192   5.797   0.263 -0.2963  0.1867 -0.6019
15927TIP3    H169196   0.167   5.887   0.283 -1.0209 -0.5888  2.1765
15927TIP3    H269197   0.284   5.791   0.290 -0.0076  0.3002 -1.5392
15928TIP3   OH269198   3.867   0.485   5.928 -0.8463 -0.4926 -0.3869
15928TIP3    H169199   3.938   0.450   5.874 -1.4190  0.5844 -1.8473
15928TIP3    H269200   3.887   0.577   5.939 -1.9071 -0.2240 -0.6278
15929TIP3   OH269201   5.675   4.785  14.240  0.1184 -0.1280  0.2744
15929TIP3    H169202   5.596   4.746  14.204 -0.4374  1.6487 -0.4595
15929TIP3    H269203   5.645   4.862  14.287  1.5599  1.6291 -1.5667
15930TIP3   OH269204   6.647   2.391   5.498  0.3514  1.2686 -0.4341
15930TIP3    H169205   6.699   2.356   5.426 -0.1197  1.4933 -0.8884
15930TIP3    H269206   6.566   2.421   5.456 -0.1864  0.8262  0.2765
15931TIP3   OH269207   3.360   4.726  12.512 -0.3222 -0.3633 -0.0133
15931TIP3    H169208   3.419   4.673  12.459  1.6249  1.0606  0.6970
15931TIP3    H269209   3.350   4.808  12.464  1.6269  1.0217  1.8488
15932TIP3   OH269210   2.990   6.032  15.665 -0.6966 -0.3027  0.9460
15932TIP3    H169211   3.024   5.944  15.678 -0.7396 -0.4008  0.4106
15932TIP3    H269212   3.000   6.048  15.571 -2.1781 -0.3562  0.7687
15933TIP3   OH269213   3.998   1.629   3.181  0.0314  0.0379  0.0755
15933TIP3    H169214   4.069   1.670   3.231  0.8912  2.2102 -2.7693
15933TIP3    H269215   3.999   1.675   3.097 -3.9430 -0.7462 -0.5065
15934TIP3   OH269216   0.608   6.687  14.367 -0.1946  0.3453 -0.8127
15934TIP3    H169217   0.641   6.762  14.417  1.3888  0.1197 -1.4742
15934TIP3    H269218   0.513   6.698  14.367 -0.1342  1.0808  1.0797
15935TIP3   OH269219   3.944   5.283  12.387  0.1170 -0.0599 -0.0605
15935TIP3    H169220   4.034   5.250  12.381  0.0111 -0.5261  0.8331
15935TIP3    H269221   3.904   5.230  12.456 -1.1224 -0.4799 -1.1021
15936TIP3   OH269222   0.824   0.438  15.624 -0.3746 -0.4595 -0.0640
15936TIP3    H169223   0.805   0.514  15.569  0.0496  0.3020  0.8120
15936TIP3    H269224   0.890   0.470  15.686  0.7872 -1.9258 -0.5306
15937TIP3   OH269225   3.760   4.810   1.824 -0.1833 -0.1946  0.0718
15937TIP3    H169226   3.802   4.748   1.884 -0.7729 -0.5604  0.1125
15937TIP3    H269227   3.800   4.792   1.739  0.8308  0.4898  0.3952
15938TIP3   OH269228   5.664   1.918   2.822 -0.5447 -0.0440  0.0580
15938TIP3    H169229   5.629   2.002   2.850 -2.9255 -0.7118 -0.7586
15938TIP3    H269230   5.690   1.874   2.903 -0.1989  1.0949  0.5647
15939TIP3   OH269231   4.256   4.033   4.049  0.7601  0.6801 -0.2651
15939TIP3    H169232   4.313   4.079   4.111  1.1813 -0.0410 -0.1215
15939TIP3    H269233   4.296   3.947   4.039 -0.7011 -0.0880  0.4076
15940TIP3   OH269234   6.426   2.528  10.775 -0.6813 -0.1659 -0.0563
15940TIP3    H169235   6.378   2.523  10.857 -1.2760  2.2908 -0.2123
15940TIP3    H269236   6.359   2.544  10.708 -0.3277 -3.1534 -1.2261
15941TIP3   OH269237   0.754   2.459   5.310 -0.2154 -0.1007 -0.1869
15941TIP3    H169238   0.683   2.440   5.249 -0.6714 -0.7084  0.5215
15941TIP3    H269239   0.830   2.476   5.255 -1.1815  1.7118 -0.9990
15942TIP3   OH269240   2.288   5.003  13.353  0.2812  0.7215  0.1677
15942TIP3    H169241   2.226   5.071  13.379  0.7129  2.4478 -2.9536
15942TIP3    H269242   2.362   5.052  13.317  0.6199 -1.3831 -2.1206
15943TIP3   OH269243   0.415   0.509   1.769 -0.3077  0.4639 -0.1835
15943TIP3    H169244   0.509   0.512   1.757 -0.2751 -3.0840 -1.2101
15943TIP3    H269245   0.401   0.531   1.861  1.1969  4.5222 -0.8477
15944TIP3   OH269246   4.176   0.244   2.880 -0.8813 -0.5433 -0.5037
15944TIP3    H169247   4.131   0.267   2.962  0.1879 -1.6587  0.4136
15944TIP3    H269248   4.253   0.195   2.908 -1.5059 -2.6207 -2.2643
15945TIP3   OH269249   1.371   3.034  13.468 -0.5315 -0.0395 -0.2022
15945TIP3    H169250   1.325   2.959  13.508 -0.3487 -0.3332 -0.5413
15945TIP3    H269251   1.458   3.032  13.507 -0.6174  0.1691  0.0016
15946TIP3   OH269252   4.851   2.977   5.686 -0.1785  0.4372  0.4320
15946TIP3    H169253   4.922   2.914   5.697 -0.5794 -0.8772 -3.5797
15946TIP3    H269254   4.771   2.925   5.698 -0.4821  0.6566 -0.5777
15947TIP3   OH269255   2.287   5.547   5.471 -0.4105  0.1808  0.4271
15947TIP3    H169256   2.322   5.496   5.544 -2.2114 -0.3635  0.9481
15947TIP3    H269257   2.202   5.577   5.502 -0.1683  1.9689 -0.5744
15948TIP3   OH269258   5.035   3.155  16.691  0.3752  0.3528 -0.5244
15948TIP3    H169259   4.987   3.234  16.667 -1.1692 -0.5025 -0.3600
15948TIP3    H269260   4.967   3.094  16.720  1.7570 -0.1350  1.8683
15949TIP3   OH269261   2.224   0.271   0.005  0.2391 -0.2282  0.1957
15949TIP3    H169262   2.215   0.178  -0.019 -0.0085  0.0305 -0.7293
15949TIP3    H269263   2.203   0.273   0.099 -0.9451 -0.9414 -0.0410
15950TIP3   OH269264   0.786   0.325  14.447 -0.1330 -0.6501 -0.5569
15950TIP3    H169265   0.713   0.365  14.400  0.1338  0.5796  0.0448
15950TIP3    H269266   0.758   0.235  14.463 -1.9801  0.1045  0.6003
15951TIP3   OH269267   0.890   0.074   1.300 -0.5146  0.1180  0.3950
15951TIP3    H169268   0.967   0.018   1.317  0.5625  0.8496 -1.8072
15951TIP3    H269269   0.822   0.013   1.271  0.0842 -0.2615 -0.2318
15952TIP3   OH269270   4.545   1.151   5.031 -0.6497  0.0092 -0.0814
15952TIP3    H169271   4.606   1.086   5.066  0.2832  0.4677 -0.8276
15952TIP3    H269272   4.482   1.166   5.102 -0.1451 -0.7888  0.5405
15953TIP3   OH269273   6.336   1.960  14.932 -0.3608  0.4966 -0.2742
15953TIP3    H169274   6.400   1.925  14.994 -0.6474  1.5682  0.6363
15953TIP3    H269275   6.251   1.944  14.974 -0.8763 -2.6379 -2.3010
15954TIP3   OH269276   4.472   6.113  14.856 -0.2293  0.3795 -0.1587
15954TIP3    H169277   4.487   6.027  14.896  1.3089 -0.1761 -1.8985
15954TIP3    H269278   4.386   6.104  14.813 -0.5024  0.0228  0.4511
15955TIP3   OH269279   4.348   1.828   4.999 -0.2729  0.6915 -0.6181
15955TIP3    H169280   4.299   1.789   5.072 -1.2269  1.3183 -0.9148
15955TIP3    H269281   4.435   1.789   5.005 -0.7093 -0.1819  0.1209
15956TIP3   OH269282   1.117   2.698  14.451  0.3871 -0.4509 -0.4582
15956TIP3    H169283   1.101   2.724  14.542 -0.0368  1.9417 -1.1655
15956TIP3    H269284   1.050   2.633  14.432  0.4161 -0.8913  0.9049
15957TIP3   OH269285   0.890   2.948  16.751 -0.3153 -0.4686 -0.0902
15957TIP3    H169286   0.806   2.956  16.798 -0.2506  0.3837 -0.1114
15957TIP3    H269287   0.945   2.896  16.810 -0.2527  0.5495  0.7676
15958TIP3   OH269288   0.900   0.049  14.293  0.5995  0.8381 -0.2500
15958TIP3    H169289   0.875  -0.042  14.275  1.7786 -0.0150  2.1851
15958TIP3    H269290   0.965   0.043  14.364 -1.2764  3.7338  1.8384
15959TIP3   OH269291   5.373   0.382  16.988  0.1260 -0.3053  0.4479
15959TIP3    H169292   5.350   0.318  17.055  1.5915 -0.8781  0.4247
15959TIP3    H269293   5.468   0.391  16.995  0.2025  0.1854 -1.0509
15960TIP3   OH269294   5.360   4.498  13.384 -0.1770 -0.2780  0.1771
15960TIP3    H169295   5.269   4.513  13.409  0.4735  0.3928  2.2325
15960TIP3    H269296   5.404   4.475  13.466  1.3475 -1.3721 -0.9202
15961TIP3   OH269297   3.575   1.793   2.206 -0.6642  0.0222 -0.1250
15961TIP3    H169298   3.507   1.731   2.232 -0.1782 -0.0397  1.0486
15961TIP3    H269299   3.579   1.855   2.278 -0.9167  1.2455 -1.1433
15962TIP3   OH269300   5.914   5.433  11.412  0.3737 -0.3275 -0.1357
15962TIP3    H169301   5.848   5.396  11.354 -0.1844  0.1810  0.1650
15962TIP3    H269302   5.925   5.367  11.480 -0.1486 -0.2312  0.0495
15963TIP3   OH269303   2.020   6.057  14.783 -0.1975  0.0547  0.1561
15963TIP3    H169304   2.029   6.137  14.731 -2.3313 -0.0155 -0.3798
15963TIP3    H269305   2.041   6.084  14.872  0.4728  0.8939 -0.2474
15964TIP3   OH269306   1.359   2.299  12.279 -0.1491  0.2785  0.4898
15964TIP3    H169307   1.370   2.351  12.199 -0.8656 -2.6223 -1.5648
15964TIP3    H269308   1.264   2.296  12.292 -0.0205  1.0198  1.6742
15965TIP3   OH269309   2.603   2.623   4.565 -0.2970  0.1134 -0.1203
15965TIP3    H169310   2.512   2.613   4.592 -1.0280  0.1935 -2.4699
15965TIP3    H269311   2.617   2.718   4.563 -0.4250  0.1250 -0.5678
15966TIP3   OH269312   5.099   1.475   2.037 -0.0436  0.2016 -0.5128
15966TIP3    H169313   5.005   1.490   2.043 -0.4797 -1.9987 -1.4265
15966TIP3    H269314   5.112   1.442   1.948  1.4123 -0.7118  0.0231
15967TIP3   OH269315   1.537   4.380  16.813 -0.0545  0.1970  0.1068
15967TIP3    H169316   1.495   4.465  16.798  0.7979  0.8140  1.1666
15967TIP3    H269317   1.580   4.360  16.730 -1.3176  0.1975 -0.5562
15968TIP3   OH269318   1.721   1.430   3.836 -0.0588  0.4144  0.3575
15968TIP3    H169319   1.708   1.486   3.913 -0.1974 -1.0717  1.4436
15968TIP3    H269320   1.793   1.371   3.861 -0.0906 -0.0661 -0.6590
15969TIP3   OH269321   0.761   3.324  14.992  0.3027  0.3644  0.6269
15969TIP3    H169322   0.769   3.369  15.075 -1.1977  0.4634  0.7380
15969TIP3    H269323   0.671   3.342  14.964 -0.0119 -1.7128  0.2080
15970TIP3   OH269324   1.525   1.268   0.427 -0.3577 -0.6569 -0.7173
15970TIP3    H169325   1.544   1.360   0.447  1.2614 -1.5121  1.8783
15970TIP3    H269326   1.609   1.232   0.397 -1.2945 -1.0017 -3.0636
15971TIP3   OH269327   3.345   5.160  12.974  0.1365  0.6037  0.6623
15971TIP3    H169328   3.356   5.065  12.977  2.7244  0.9003  2.5178
15971TIP3    H269329   3.343   5.181  12.881  3.6877 -0.9087  0.1616
15972TIP3   OH269330   4.340   1.390   0.174  0.0391  0.3651 -0.2198
15972TIP3    H169331   4.316   1.481   0.159  0.2654  0.5114  0.2961
15972TIP3    H269332   4.394   1.392   0.253 -0.2441 -0.2531 -0.0046
15973TIP3   OH269333   5.043   2.763   0.864  0.1549 -0.1957  0.3614
15973TIP3    H169334   5.056   2.823   0.937 -1.1167  0.2074  0.2646
15973TIP3    H269335   5.122   2.773   0.810 -0.2705  1.7457  0.0951
15974TIP3   OH269336   0.591   0.501   3.974 -0.1590 -0.1103  0.2974
15974TIP3    H169337   0.624   0.569   3.915 -0.2883  0.7596  1.2130
15974TIP3    H269338   0.661   0.490   4.038  0.8187 -2.4413 -1.1117
15975TIP3   OH269339   2.416   4.853   6.128  0.2821 -0.1190 -0.3766
15975TIP3    H169340   2.395   4.937   6.168  0.1057  0.4159 -1.5646
15975TIP3    H269341   2.490   4.820   6.178 -0.2442  0.3085  0.6930
15976TIP3   OH269342   0.377   3.195  11.084 -0.5213 -0.1829  0.0965
15976TIP3    H169343   0.421   3.268  11.040  0.0090 -1.0415 -0.8080
15976TIP3    H269344   0.286   3.203  11.057 -0.3748 -0.1365 -0.3870
15977TIP3   OH269345   6.348   4.256   4.424 -0.1886 -0.1934  0.4290
15977TIP3    H169346   6.434   4.238   4.460  0.8387 -0.9466 -2.2811
15977TIP3    H269347   6.311   4.322   4.482  2.1655  0.0881  1.6684
15978TIP3   OH269348   5.123   2.463   0.961  0.4642 -0.1555  0.4915
15978TIP3    H169349   5.217   2.473   0.973  0.3603 -0.2347  1.4226
15978TIP3    H269350   5.084   2.514   1.032 -0.2018  0.1604 -0.0876
15979TIP3   OH269351   0.524   0.232  12.361  0.2730 -0.1236 -0.2172
15979TIP3    H169352   0.490   0.189  12.439 -1.4098 -1.5252 -1.6734
15979TIP3    H269353   0.527   0.325  12.384 -2.3671 -0.2464  0.7808
15980TIP3   OH269354   5.521   5.597  14.227  0.3490 -0.1939  0.3170
15980TIP3    H169355   5.465   5.559  14.160 -1.4996  0.8625  1.2252
15980TIP3    H269356   5.599   5.625  14.181 -0.8030  0.3121 -1.3613
15981TIP3   OH269357   0.698   4.143  14.767 -0.1837 -0.9011 -0.2150
15981TIP3    H169358   0.621   4.091  14.747 -0.5098 -0.6185  0.2921
15981TIP3    H269359   0.768   4.079  14.778 -0.3545 -1.1588 -0.6279
15982TIP3   OH269360   3.524   1.401  12.707 -0.1827 -0.3295  0.3903
15982TIP3    H169361   3.525   1.309  12.681 -1.1163  0.6829 -3.5112
15982TIP3    H269362   3.617   1.423  12.719  0.0891 -1.5719  0.6516
15983TIP3   OH269363   1.472   6.130  15.103  0.0594  0.1813 -0.4545
15983TIP3    H169364   1.403   6.156  15.165  0.7879  0.8821  0.0785
15983TIP3    H269365   1.429   6.132  15.018 -1.0340 -1.0628  0.0515
15984TIP3   OH269366   4.453   4.874  15.389  0.2394  0.2043 -0.1529
15984TIP3    H169367   4.500   4.869  15.472 -4.0787  0.7790  2.4960
15984TIP3    H269368   4.445   4.968  15.371  1.9337  0.0701 -1.7434
15985TIP3   OH269369   6.058   0.258   1.768 -0.3209 -0.0226  0.2959
15985TIP3    H169370   6.134   0.200   1.766  0.0106  0.3266  1.7185
15985TIP3    H269371   6.094   0.345   1.787 -1.1105  0.0196  1.7564
15986TIP3   OH269372   6.039   6.630  13.350 -0.4957 -0.0973  0.4072
15986TIP3    H169373   5.969   6.658  13.290 -0.5647  1.2811  1.1089
15986TIP3    H269374   6.072   6.549  13.312 -0.1295  1.0710 -1.8338
15987TIP3   OH269375   0.815   2.148   1.496  0.1351 -0.5863  0.6367
15987TIP3    H169376   0.860   2.215   1.547 -2.0070  2.2242 -1.0213
15987TIP3    H269377   0.755   2.106   1.558 -0.2226  0.6893  1.1714
15988TIP3   OH269378   5.960   4.097   1.816 -0.3281  0.2673  0.1083
15988TIP3    H169379   6.023   4.029   1.839  0.3509  0.8444  0.0035
15988TIP3    H269380   5.875   4.062   1.841  0.0672 -0.4187  0.4951
15989TIP3   OH269381   1.713   3.317  11.380 -0.0248 -0.3629 -0.0671
15989TIP3    H169382   1.669   3.256  11.439  0.5865  0.4826  1.2621
15989TIP3    H269383   1.653   3.392  11.373  0.7303  0.3363  0.9262
15990TIP3   OH269384   2.611   6.113  16.037  0.1670 -1.2308  0.4986
15990TIP3    H169385   2.654   6.080  15.958  1.3636  1.9541 -0.2690
15990TIP3    H269386   2.666   6.084  16.109  2.3718  0.7558 -0.3140
15991TIP3   OH269387   3.011   3.981  14.023  0.4569  0.3344  0.5975
15991TIP3    H169388   2.987   3.995  13.931  0.7490 -1.5210  0.2001
15991TIP3    H269389   3.000   3.887  14.036 -1.9822  0.9267  3.1938
15992TIP3   OH269390   1.192   0.163   3.968 -0.3830 -0.0346  0.1964
15992TIP3    H169391   1.225   0.181   4.056  0.2433  0.4021 -0.1216
15992TIP3    H269392   1.181   0.068   3.966  2.0215 -0.3400 -0.0692
15993TIP3   OH269393   6.285   0.412   2.354  0.1220  0.3877 -0.0543
15993TIP3    H169394   6.287   0.492   2.406  3.6222  0.8251 -0.7733
15993TIP3    H269395   6.265   0.443   2.265 -1.9447  0.0466  0.2579
15994TIP3   OH269396   1.763   0.906   5.685  0.4622 -0.1294 -0.4654
15994TIP3    H169397   1.847   0.877   5.650  1.2173  0.9893  0.3935
15994TIP3    H269398   1.777   0.911   5.780 -0.0631  1.7222 -0.4785
15995TIP3   OH269399   0.983   3.434   0.875 -0.1340  0.1573  0.2571
15995TIP3    H169400   1.053   3.369   0.878  1.0392  1.4138  0.8506
15995TIP3    H269401   0.945   3.425   0.788 -0.2271 -1.5528  0.4553
15996TIP3   OH269402   2.779   6.650  15.377  0.1259  0.2333  0.1797
15996TIP3    H169403   2.846   6.688  15.321  1.7292 -1.6925  0.7194
15996TIP3    H269404   2.700   6.645  15.322  1.3247 -0.4893 -1.5039
15997TIP3   OH269405   1.989   0.865  15.769 -0.0666 -0.0851 -0.1001
15997TIP3    H169406   2.009   0.851  15.676 -0.5307  0.1771 -0.2409
15997TIP3    H269407   1.923   0.934  15.769  1.9085  1.8579  0.5867
15998TIP3   OH269408   2.983   4.622   0.594  0.1857  0.1701  0.8569
15998TIP3    H169409   2.931   4.659   0.522  0.2187  1.2086  1.3586
15998TIP3    H269410   2.962   4.676   0.670  2.0216  0.6469  1.0665
15999TIP3   OH269411   1.533   1.980  13.387  0.2153 -0.7854  0.3491
15999TIP3    H169412   1.595   1.962  13.317  1.2053 -3.1962  1.7827
15999TIP3    H269413   1.455   1.929  13.364 -0.2032  0.0161 -0.0187
16000TIP3   OH269414   1.038   0.433  15.817  0.2580 -0.0238  0.2059
16000TIP3    H169415   0.981   0.400  15.887 -0.9795  1.6790  0.0438
16000TIP3    H269416   1.093   0.498  15.860  1.1014 -0.6345  0.0600
16001TIP3   OH269417   3.396   3.500  15.125 -1.0529 -0.0703 -0.0486
16001TIP3    H169418   3.332   3.429  15.123 -0.8376 -0.2475 -0.7619
16001TIP3    H269419   3.351   3.574  15.084 -0.4656 -0.4925 -1.5287
16002TIP3   OH269420   1.606   4.164  13.083 -0.5350 -0.3327 -0.0950
16002TIP3    H169421   1.593   4.258  13.098 -1.2169 -0.0076 -2.5013
16002TIP3    H269422   1.518   4.126  13.088 -0.2689 -0.8378  0.8099
16003TIP3   OH269423   0.484   1.655   6.089  0.1050  0.0026 -0.1839
16003TIP3    H169424   0.486   1.705   6.008  1.4791  0.9703  0.4311
16003TIP3    H269425   0.396   1.616   6.091  0.2080 -0.3905 -2.3320
16004TIP3   OH269426   1.279   5.812   2.734  0.5543  0.1278 -0.1437
16004TIP3    H169427   1.298   5.886   2.792  0.8311 -0.6804  0.8007
16004TIP3    H269428   1.364   5.770   2.721  0.2271 -0.6212  0.1441
16005TIP3   OH269429   3.674   0.174   3.255  0.4058 -0.8435 -0.3734
16005TIP3    H169430   3.616   0.251   3.256  1.2411 -0.2132  0.5379
16005TIP3    H269431   3.615   0.100   3.245 -0.7260 -0.3585  2.4343
16006TIP3   OH269432   4.646   6.668  15.487  0.2293 -0.0829 -0.0145
16006TIP3    H169433   4.615   6.632  15.570  2.2105 -1.2112  0.2731
16006TIP3    H269434   4.739   6.686  15.502 -0.0529  2.4995 -1.0655
16007TIP3   OH269435   0.819   1.848   6.608  0.0720 -0.3480 -0.3344
16007TIP3    H169436   0.888   1.885   6.552 -2.4369  1.1655 -2.5293
16007TIP3    H269437   0.753   1.916   6.613 -1.0939 -1.6041  2.1300
16008TIP3   OH269438   4.641   3.520   3.651 -0.2495  0.4546 -0.5293
16008TIP3    H169439   4.664   3.445   3.705  0.8360  0.5257 -0.8885
16008TIP3    H269440   4.573   3.566   3.701 -0.4833 -0.4260 -0.0359
16009TIP3   OH269441   1.919   6.578   2.055 -0.2242 -0.8141  0.6580
16009TIP3    H169442   1.863   6.570   1.978 -0.0743 -1.0612  0.5742
16009TIP3    H269443   1.877   6.645   2.108 -0.0279 -0.2304  0.0990
16010TIP3   OH269444   0.450   6.505   2.154 -0.9108 -0.9979 -0.3556
16010TIP3    H169445   0.460   6.500   2.059 -1.5508 -0.2866 -0.4668
16010TIP3    H269446   0.443   6.414   2.183  1.3956 -1.3176 -0.7488
16011TIP3   OH269447   5.984   5.160  16.802 -0.1896  0.2811  0.1426
16011TIP3    H169448   6.001   5.222  16.731  0.6050 -0.6702 -0.5014
16011TIP3    H269449   6.066   5.154  16.850 -0.5013  0.3420  0.6896
16012TIP3   OH269450   6.089   5.959   1.914 -0.3722 -0.4181 -0.5014
16012TIP3    H169451   6.038   5.988   1.990  0.4355 -1.6567  0.5576
16012TIP3    H269452   6.170   6.009   1.919 -0.4900 -0.1970 -0.7926
16013TIP3   OH269453   3.430   5.821  10.682  0.4789 -0.3397  0.2958
16013TIP3    H169454   3.478   5.816  10.765 -2.2420 -2.4443  1.8165
16013TIP3    H269455   3.434   5.913  10.657  2.9996 -0.0161  1.7346
16014TIP3   OH269456   1.605   2.847  11.752 -0.1218  0.6094 -0.2554
16014TIP3    H169457   1.642   2.818  11.669  0.2334  0.7147 -0.1317
16014TIP3    H269458   1.680   2.865  11.808 -0.3547  0.8351 -0.0097
16015TIP3   OH269459   4.145   6.623  16.216  0.2577 -0.0383 -0.4784
16015TIP3    H169460   4.096   6.563  16.272  2.3146 -1.7262 -0.4344
16015TIP3    H269461   4.133   6.589  16.127  0.1998  0.3697 -0.6331
16016TIP3   OH269462   6.182   2.257   2.577  0.8210 -0.3435  0.5102
16016TIP3    H169463   6.142   2.328   2.627  1.0607  0.0020  0.2123
16016TIP3    H269464   6.233   2.209   2.642  0.3400 -0.4772  0.7884
16017TIP3   OH269465   4.635   2.436  15.578  0.1825  0.8637  1.0681
16017TIP3    H169466   4.711   2.395  15.537 -0.0406  0.8375  0.6718
16017TIP3    H269467   4.626   2.520  15.532 -1.2005  0.0233 -0.2538
16018TIP3   OH269468   1.700   6.451  12.116 -0.7478  0.3533 -0.7967
16018TIP3    H169469   1.637   6.519  12.141  0.7173  1.6511 -0.5687
16018TIP3    H269470   1.664   6.371  12.154 -0.4140  1.6721  2.4712
16019TIP3   OH269471   3.083   3.525  16.289  0.0632 -0.3609 -0.1174
16019TIP3    H169472   3.045   3.523  16.376  0.0819  0.2264 -0.0914
16019TIP3    H269473   3.130   3.609  16.285 -0.2256 -0.2235 -0.8082
16020TIP3   OH269474   3.881   5.232  15.199  0.4146  0.1529  0.4229
16020TIP3    H169475   3.879   5.320  15.238  1.5580  1.2723 -1.9940
16020TIP3    H269476   3.966   5.197  15.225  0.3442  0.1117  0.6004
16021TIP3   OH269477   0.517   4.116  14.407 -0.4282  0.3942 -0.1401
16021TIP3    H169478   0.455   4.107  14.479 -0.4539  0.0354 -0.2097
16021TIP3    H269479   0.485   4.191  14.357 -1.4348 -0.4763 -0.8066
16022TIP3   OH269480   5.791   4.005  17.182 -0.2534  0.1393  0.1021
16022TIP3    H169481   5.730   4.004  17.108  1.0702 -2.2818 -1.0028
16022TIP3    H269482   5.877   3.992  17.143  0.6303  0.2456  1.9545
16023TIP3   OH269483   5.700   4.022   2.494  0.7752 -0.1824 -0.1869
16023TIP3    H169484   5.794   4.022   2.477  1.0650 -0.2521  1.3605
16023TIP3    H269485   5.684   3.939   2.540  0.0406  0.0364 -0.0355
16024TIP3   OH269486   1.068   0.442  11.078  0.1486 -0.4181 -0.1063
16024TIP3    H169487   0.993   0.387  11.055  0.0003 -0.6318  0.8362
16024TIP3    H269488   1.145   0.388  11.058 -0.0031 -1.2374  1.3950
16025TIP3   OH269489   1.851   4.339  12.213 -0.0596 -0.1133 -0.6657
16025TIP3    H169490   1.861   4.255  12.169 -0.1716 -0.6726  0.3585
16025TIP3    H269491   1.757   4.349  12.225 -0.0219 -0.0292 -0.4365
16026TIP3   OH269492   2.011   2.519   0.249  0.0372 -0.0433  0.0603
16026TIP3    H169493   1.970   2.465   0.181  1.6543 -1.0773 -0.0888
16026TIP3    H269494   1.972   2.606   0.236 -1.5603 -0.8326 -0.5519
16027TIP3   OH269495   6.531   5.189  13.823 -0.0802  0.6506 -0.2502
16027TIP3    H169496   6.589   5.120  13.793  0.8499  1.6465 -0.7682
16027TIP3    H269497   6.465   5.144  13.876  0.0926 -0.7119 -1.1931
16028TIP3   OH269498   4.259   3.814  15.275  0.1647 -0.4399  0.3183
16028TIP3    H169499   4.218   3.900  15.287  1.8933  0.2671  1.4097
16028TIP3    H269500   4.186   3.755  15.258 -1.0931  1.1779 -0.1134
16029TIP3   OH269501   2.482   6.368  13.725  0.8983 -0.1228  0.2107
16029TIP3    H169502   2.446   6.286  13.760  3.3421 -0.9345  0.9927
16029TIP3    H269503   2.551   6.340  13.666  0.1718  1.3717 -1.3687
16030TIP3   OH269504   3.325   3.135   0.211 -0.1459 -0.3407  0.3171
16030TIP3    H169505   3.347   3.111   0.121  0.7742  0.8289  0.2274
16030TIP3    H269506   3.400   3.186   0.242 -1.2074  0.7490  1.1550
16031TIP3   OH269507   3.999   4.321   0.246  0.5481  0.1512 -0.3036
16031TIP3    H169508   3.970   4.336   0.336 -0.6728 -2.1522 -0.2810
16031TIP3    H269509   4.088   4.288   0.255  0.0131 -1.2377  0.1797
16032TIP3   OH269510   0.128   6.410  14.785  0.5756  0.4275  0.3592
16032TIP3    H169511   0.181   6.417  14.706 -0.4166 -1.8774 -0.5719
16032TIP3    H269512   0.152   6.325  14.822 -2.5730 -0.8203 -0.2503
16033TIP3   OH269513   5.880   1.596   0.647 -0.0269 -0.0356  0.0081
16033TIP3    H169514   5.873   1.533   0.720  1.7358  2.4902  2.4772
16033TIP3    H269515   5.795   1.639   0.645 -0.5944 -1.1618 -0.4280
16034TIP3   OH269516   5.615   0.103   4.076  0.1867 -0.0188  0.0803
16034TIP3    H169517   5.547   0.153   4.030 -0.8301  0.8912  2.5141
16034TIP3    H269518   5.630   0.151   4.157  2.2919 -1.3526  0.5232
16035TIP3   OH269519   3.737   5.908   2.563  0.3725 -0.3957 -0.4457
16035TIP3    H169520   3.721   5.818   2.536  0.0584 -0.7068  0.7259
16035TIP3    H269521   3.656   5.934   2.608  0.0172  0.8592 -1.7619
16036TIP3   OH269522   4.507   3.396  12.701 -0.2775  0.0555  0.4869
16036TIP3    H169523   4.424   3.428  12.735 -0.1196 -0.3854  1.2897
16036TIP3    H269524   4.565   3.472  12.705 -1.3666  1.1412 -2.6405
16037TIP3   OH269525   1.841   5.253   2.155 -0.1962 -0.6500 -0.3050
16037TIP3    H169526   1.847   5.168   2.110 -0.5633 -0.7793 -0.1124
16037TIP3    H269527   1.777   5.239   2.224  2.0820 -1.1224  1.7702
16038TIP3   OH269528   0.372   6.504  15.140 -0.1621 -0.2493  0.3523
16038TIP3    H169529   0.410   6.560  15.208  2.8362  1.0608 -2.2517
16038TIP3    H269530   0.331   6.566  15.079  0.9785 -1.0334 -1.2488
16039TIP3   OH269531   1.462   3.776  14.315 -0.7850  0.3042  0.5159
16039TIP3    H169532   1.377   3.740  14.291 -0.7861  0.6615 -0.0341
16039TIP3    H269533   1.498   3.714  14.377  0.4237 -2.1309 -2.4799
16040TIP3   OH269534   0.124   1.305  12.225 -0.3448 -0.0921  0.4505
16040TIP3    H169535   0.117   1.393  12.260  0.5934  0.4575 -0.7059
16040TIP3    H269536   0.152   1.251  12.300 -1.2708  0.5226  1.2395
16041TIP3   OH269537   5.578   2.130  12.803 -0.0812 -0.0066  0.1314
16041TIP3    H169538   5.656   2.075  12.811 -1.2290 -1.9519 -1.6540
16041TIP3    H269539   5.612   2.220  12.802  2.3917 -0.8859 -3.0679
16042TIP3   OH269540   0.403   0.462  14.933 -0.2709 -0.1105  0.1607
16042TIP3    H169541   0.453   0.514  14.996 -2.4155  0.6643  1.2822
16042TIP3    H269542   0.322   0.439  14.979 -1.8720  0.4464 -2.2508
16043TIP3   OH269543   6.695   0.701   2.675 -0.1162 -0.0161  0.1980
16043TIP3    H169544   6.640   0.630   2.642 -1.3767  0.2618  1.6760
16043TIP3    H269545   6.748   0.660   2.744 -1.3220  0.6168  1.5119
16044TIP3   OH269546   3.552   4.988  15.237  0.3551 -0.6965 -0.0912
16044TIP3    H169547   3.490   4.942  15.294 -0.5204 -0.9795 -1.2453
16044TIP3    H269548   3.550   5.079  15.267 -0.5333 -0.7297 -0.0364
16045TIP3   OH269549   2.400   2.098   1.724  0.0997 -0.4977 -0.3160
16045TIP3    H169550   2.429   2.044   1.651  1.2269 -0.5815  0.1900
16045TIP3    H269551   2.460   2.077   1.795  0.1958  0.9995  0.0581
16046TIP3   OH269552   5.839   4.316  16.830 -0.0083  0.4283 -0.8338
16046TIP3    H169553   5.819   4.323  16.924 -0.8619  0.3258 -1.0018
16046TIP3    H269554   5.893   4.393  16.811 -0.8531  1.1041 -0.5186
16047TIP3   OH269555   4.397   5.903   3.867 -0.2281 -0.2003  0.3973
16047TIP3    H169556   4.340   5.888   3.942 -0.7598 -0.9964 -0.1512
16047TIP3    H269557   4.338   5.935   3.798 -0.3200 -2.5044 -0.6626
16048TIP3   OH269558   5.681   6.368  14.454 -0.4471  0.0487 -0.2037
16048TIP3    H169559   5.695   6.416  14.373 -2.2034  0.4990 -0.2662
16048TIP3    H269560   5.760   6.384  14.506  1.0282 -0.8635 -2.1022
16049TIP3   OH269561   5.530   0.683  14.628  0.2430 -0.6207 -1.0720
16049TIP3    H169562   5.554   0.761  14.678 -1.1340  0.5375 -2.1721
16049TIP3    H269563   5.515   0.616  14.694  1.0470  0.1551 -0.0857
16050TIP3   OH269564   1.602   6.619  10.468 -0.0229  0.0731  0.3096
16050TIP3    H169565   1.686   6.577  10.488  0.2033  0.7191  0.7346
16050TIP3    H269566   1.540   6.579  10.529  0.1827  0.3237  0.6842
16051TIP3   OH269567   6.567   3.294  16.052  0.2699  0.4679  0.7370
16051TIP3    H169568   6.505   3.231  16.016 -0.2383  0.7284  1.1419
16051TIP3    H269569   6.644   3.242  16.075 -0.1878 -0.0209  1.1622
16052TIP3   OH269570   2.914   1.661  10.793  0.4685  0.7520  0.0015
16052TIP3    H169571   2.997   1.617  10.770  0.2472  1.4064 -2.1554
16052TIP3    H269572   2.846   1.598  10.768  0.1969  1.7469 -1.7753
16053TIP3   OH269573   0.775   5.365  11.179  0.0110  0.7115 -0.0922
16053TIP3    H169574   0.856   5.402  11.145  0.7494  0.9782  1.8445
16053TIP3    H269575   0.800   5.278  11.210 -0.4574  0.7549  0.4197
16054TIP3   OH269576   0.261   4.655   1.338 -0.3259  0.0917 -0.0380
16054TIP3    H169577   0.310   4.668   1.419 -1.5742  0.7229  0.6347
16054TIP3    H269578   0.228   4.565   1.343  1.2798 -0.5581 -0.7945
16055TIP3   OH269579   3.801   6.126  13.070 -0.0380  0.4111  0.2372
16055TIP3    H169580   3.833   6.121  12.980  0.8937  2.5659  0.4199
16055TIP3    H269581   3.861   6.071  13.120 -0.0845 -0.1608 -0.3251
16056TIP3   OH269582   2.862   1.888   2.118 -0.1352  0.1870  0.3462
16056TIP3    H169583   2.897   1.904   2.030  0.4870  0.5511  0.6525
16056TIP3    H269584   2.806   1.964   2.135  0.5688  0.6421  0.6713
16057TIP3   OH269585   6.736   0.005   5.465  0.4959 -0.0590 -0.0965
16057TIP3    H169586   6.674   0.008   5.393 -0.1933 -0.4280  0.4736
16057TIP3    H269587   6.733  -0.085   5.496  0.4377  0.2118  0.7002
16058TIP3   OH269588   6.239   2.942  11.844 -0.1375 -0.0083  0.1571
16058TIP3    H169589   6.202   3.023  11.809 -1.1785  0.1216  1.5117
16058TIP3    H269590   6.212   2.874  11.782  0.8640  0.6860 -1.0627
16059TIP3   OH269591   3.072   1.903  16.213  0.6356  1.0095 -0.2178
16059TIP3    H169592   3.137   1.914  16.283  1.3421  0.5098 -0.7885
16059TIP3    H269593   3.097   1.820  16.171  0.3107  1.3971 -1.1724
16060TIP3   OH269594   6.239   2.498  12.773  0.2589  0.4489 -0.0717
16060TIP3    H169595   6.249   2.533  12.861  0.7152  0.6979 -0.2210
16060TIP3    H269596   6.288   2.559  12.717  1.4996 -0.7328 -0.2742
16061TIP3   OH269597   2.103   4.025  14.973  0.4556 -0.4856  0.1114
16061TIP3    H169598   2.061   4.104  15.006 -1.0964 -0.5883 -1.5278
16061TIP3    H269599   2.196   4.047  14.969 -0.1578  1.9779 -2.1467
16062TIP3   OH269600   4.735   3.252   0.997  0.1574 -0.6961 -0.2956
16062TIP3    H169601   4.826   3.276   0.978 -0.3466  0.6285 -1.0893
16062TIP3    H269602   4.686   3.333   0.987 -0.7292 -0.7576  2.9934
16063TIP3   OH269603   4.125   2.075   0.965 -0.1687  0.0417 -0.0192
16063TIP3    H169604   4.177   2.038   1.036  0.0623 -0.2946 -0.3634
16063TIP3    H269605   4.100   2.000   0.911 -0.5024  0.2723 -0.1880
16064TIP3   OH269606   2.252   0.010   5.510 -0.2974  0.3835 -0.3902
16064TIP3    H169607   2.316  -0.028   5.449  0.4199 -0.6572  0.9733
16064TIP3    H269608   2.268   0.104   5.505  2.3575  0.0719  0.9545
16065TIP3   OH269609   2.191   0.513  16.084  0.5838  0.2258 -0.2209
16065TIP3    H169610   2.147   0.447  16.137  1.9197 -0.7584 -0.3290
16065TIP3    H269611   2.155   0.596  16.115 -0.5399 -0.4963  0.4373
16066TIP3   OH269612   1.724   3.586   0.805  0.3250  0.0376  0.6243
16066TIP3    H169613   1.792   3.633   0.756 -1.1701  1.3870 -0.2150
16066TIP3    H269614   1.671   3.544   0.737  0.8949 -1.8345  1.3216
16067TIP3   OH269615   1.984   5.054   4.184 -0.1105 -0.0714 -0.1239
16067TIP3    H169616   1.950   5.018   4.267 -1.4158 -0.2785 -0.7372
16067TIP3    H269617   1.908   5.095   4.143  0.7303  0.7992 -0.8195
16068TIP3   OH269618   5.999   0.347   4.609 -0.3005  0.8284  0.5926
16068TIP3    H169619   6.026   0.269   4.560 -2.3510  1.3196 -1.4136
16068TIP3    H269620   5.915   0.324   4.647 -2.0750  2.7751 -1.9629
16069TIP3   OH269621   4.801   5.077  12.216 -0.3600  0.5515 -0.1859
16069TIP3    H169622   4.856   5.106  12.289 -0.9007 -0.0381  0.4585
16069TIP3    H269623   4.789   4.983  12.231 -1.8806  0.7503 -0.1104
16070TIP3   OH269624   0.137   3.031   3.697 -0.4241  0.1667 -0.1334
16070TIP3    H169625   0.112   3.006   3.608 -1.3369  2.2853 -0.5091
16070TIP3    H269626   0.053   3.039   3.743 -0.0158  0.2602  0.5817
16071TIP3   OH269627   5.163   4.361  12.734  0.1710  0.0124  0.5385
16071TIP3    H169628   5.242   4.338  12.686  0.5754 -0.8259  1.5982
16071TIP3    H269629   5.099   4.380  12.666  1.3092  0.8214 -0.3306
16072TIP3   OH269630   4.379   2.583  11.399  0.0772 -0.4800 -0.9565
16072TIP3    H169631   4.378   2.662  11.344 -0.7235  0.4363  0.3442
16072TIP3    H269632   4.305   2.531  11.367  0.8448 -0.9119 -2.0820
16073TIP3   OH269633   4.551   4.655  12.459  0.3224  0.8495 -0.8339
16073TIP3    H169634   4.561   4.659  12.554  1.4538 -0.1206 -0.8976
16073TIP3    H269635   4.459   4.636  12.444 -0.3427  3.2407  0.0059
16074TIP3   OH269636   5.549   5.792  16.716  0.3541 -0.5136  0.2175
16074TIP3    H169637   5.455   5.809  16.721  0.6598  1.4189 -0.3180
16074TIP3    H269638   5.567   5.737  16.792 -1.0730 -0.1909  0.8041
16075TIP3   OH269639   4.625   4.287   0.261 -0.0139  0.2491  0.5190
16075TIP3    H169640   4.705   4.334   0.240  0.2855 -0.6661 -0.4635
16075TIP3    H269641   4.571   4.350   0.309  0.6047  1.4022 -0.2697
16076TIP3   OH269642   4.132   6.232  15.231  0.7756 -0.0531 -0.5125
16076TIP3    H169643   4.217   6.265  15.203  1.0280 -0.9033 -0.7763
16076TIP3    H269644   4.150   6.142  15.259  0.4499  0.6233  1.9922
16077TIP3   OH269645   4.378   4.834  14.279  0.3498  0.4588 -0.0191
16077TIP3    H169646   4.461   4.796  14.308 -0.2858  0.8845  2.4906
16077TIP3    H269647   4.315   4.763  14.286  0.5871 -0.0913 -2.6906
16078TIP3   OH269648   6.426   3.104  13.385 -0.4578 -0.2192  0.0223
16078TIP3    H169649   6.485   3.085  13.458 -0.1568  1.6138  0.2721
16078TIP3    H269650   6.352   3.044  13.399 -0.9089  0.8399  2.4567
16079TIP3   OH269651   3.638   2.430  11.613 -0.6543  0.3742 -0.1765
16079TIP3    H169652   3.638   2.350  11.666 -1.9476 -0.1928 -1.0015
16079TIP3    H269653   3.692   2.408  11.538 -1.2673  0.1604 -0.5595
16080TIP3   OH269654   1.518   3.454   0.601 -0.0395  0.1941 -0.5548
16080TIP3    H169655   1.538   3.426   0.690 -1.0017  0.2171 -0.3286
16080TIP3    H269656   1.527   3.375   0.548 -1.9822 -0.4071 -0.0356
16081TIP3   OH269657   0.033   4.893   6.136 -0.1621  0.1588  0.2245
16081TIP3    H169658   0.115   4.849   6.159 -0.1304 -0.8920 -1.7769
16081TIP3    H269659   0.016   4.952   6.210  1.7064 -0.5557  1.2675
16082TIP3   OH269660   2.961   0.466   1.819 -0.5428  0.1297  0.0538
16082TIP3    H169661   2.953   0.372   1.802 -2.9928  0.6007 -1.7069
16082TIP3    H269662   2.930   0.477   1.909 -0.0079 -0.7704  0.3553
16083TIP3   OH269663   6.487   4.427   5.733 -0.0093  0.2989  0.3722
16083TIP3    H169664   6.410   4.440   5.789  0.7069  0.5721  1.2941
16083TIP3    H269665   6.546   4.374   5.785 -0.3380 -1.5367 -1.0494
16084TIP3   OH269666   0.226   3.184  11.562 -0.4136  0.3571  0.2409
16084TIP3    H169667   0.177   3.132  11.625 -0.3004  0.0308  0.0602
16084TIP3    H269668   0.176   3.177  11.481 -0.1575  0.1628  0.1007
16085TIP3   OH269669   6.469   6.025  15.022 -0.5201  0.0006 -0.2337
16085TIP3    H169670   6.405   5.956  15.004 -2.1172  1.2867  0.4011
16085TIP3    H269671   6.513   6.040  14.939 -2.9837  1.0361 -1.4072
16086TIP3   OH269672   3.010   4.000  16.926 -0.1641 -0.2450 -0.0844
16086TIP3    H169673   2.953   3.933  16.886 -0.8163  0.4624 -0.3645
16086TIP3    H269674   3.047   4.046  16.852  0.4504 -0.4294  0.1093
16087TIP3   OH269675   6.277   1.537  16.486 -0.2230 -0.3116  0.1066
16087TIP3    H169676   6.289   1.632  16.492  1.2011 -0.3695 -1.5493
16087TIP3    H269677   6.200   1.526  16.430  0.2932 -0.1645 -0.6243
16088TIP3   OH269678   0.722   3.213  16.792  0.0231  0.1571  0.4184
16088TIP3    H169679   0.635   3.204  16.832  0.9988 -0.3990  2.4962
16088TIP3    H269680   0.757   3.295  16.829  0.5357  0.1818 -0.1085
16089TIP3   OH269681   2.850   1.825   1.406 -0.1941 -0.2835  0.1075
16089TIP3    H169682   2.822   1.853   1.493  0.5135  1.0483 -0.0765
16089TIP3    H269683   2.879   1.906   1.363 -0.5118 -0.9299 -1.3517
16090TIP3   OH269684   2.178   3.261  11.997  0.1969  0.1357  0.4563
16090TIP3    H169685   2.131   3.299  11.923 -0.8402  0.4292  1.2479
16090TIP3    H269686   2.173   3.167  11.982  1.2991  0.2429 -0.6251
16091TIP3   OH269687   1.847   4.574   2.836 -0.1812  0.3279 -0.0612
16091TIP3    H169688   1.791   4.620   2.773 -0.9911 -1.2318 -0.4896
16091TIP3    H269689   1.918   4.537   2.783 -0.9880 -1.1809 -0.1106
16092TIP3   OH269690   0.926   6.683  13.004 -0.1524  0.2239  0.2584
16092TIP3    H169691   1.009   6.659  13.047 -0.0918 -0.2271 -0.1108
16092TIP3    H269692   0.860   6.629  13.048 -0.1003 -0.1865 -0.1612
16093TIP3   OH269693   4.344   4.349  12.813  0.1818 -0.5211  0.7420
16093TIP3    H169694   4.389   4.323  12.733  0.5203  1.1400  0.3734
16093TIP3    H269695   4.262   4.389  12.783 -0.9488 -2.3210  1.3502
16094TIP3   OH269696   5.848   6.224   6.204 -0.4495  0.0281 -0.0853
16094TIP3    H169697   5.938   6.198   6.221 -0.2438  0.6263 -0.2788
16094TIP3    H269698   5.833   6.300   6.260 -0.9560 -0.2902  0.2289
16095TIP3   OH269699   1.146   5.648   1.538 -0.0989 -0.2380  0.3895
16095TIP3    H169700   1.100   5.584   1.592 -2.2807  0.2935 -0.7772
16095TIP3    H269701   1.234   5.651   1.574 -0.8020 -1.7329  2.3136
16096TIP3   OH269702   3.513   3.939  13.259  0.0544  0.5832  0.4267
16096TIP3    H169703   3.426   3.937  13.299 -0.6919  0.1310 -1.2230
16096TIP3    H269704   3.522   3.855  13.215  1.7387  0.2120  1.4261
16097TIP3   OH269705   1.655   0.526   5.106  0.4201  0.4314  0.2475
16097TIP3    H169706   1.586   0.465   5.083  2.5981 -1.2708 -2.0369
16097TIP3    H269707   1.611   0.611   5.111 -1.5618 -0.3682 -2.6240
16098TIP3   OH269708   2.873   6.628   4.929 -0.0201  0.2253  0.3485
16098TIP3    H169709   2.860   6.718   4.957 -0.5796  0.4391 -0.5716
16098TIP3    H269710   2.789   6.585   4.945  0.5070 -0.3690  1.6082
16099TIP3   OH269711   0.589   5.258  13.291  0.4255 -0.6310 -0.2651
16099TIP3    H169712   0.610   5.351  13.279 -0.5751 -0.3659 -0.0094
16099TIP3    H269713   0.607   5.241  13.384  0.4204 -0.6455 -0.2655
16100TIP3   OH269714   3.652   2.504  10.497 -0.5523 -0.1634 -0.0403
16100TIP3    H169715   3.728   2.534  10.447  0.4745  0.3812  1.7911
16100TIP3    H269716   3.616   2.584  10.534 -1.7199 -0.4844 -0.4813
16101TIP3   OH269717   0.216   4.532  12.366  0.1215  0.5816 -0.2096
16101TIP3    H169718   0.267   4.472  12.312 -1.3615 -2.7734  1.9212
16101TIP3    H269719   0.143   4.559  12.310  0.9993  0.6746 -1.3181
16102TIP3   OH269720   2.091   1.597   2.894 -0.2277 -0.2991  0.3927
16102TIP3    H169721   2.096   1.595   2.798  1.6896  1.6565  0.4183
16102TIP3    H269722   2.111   1.507   2.920  1.1785 -0.4094 -0.9921
16103TIP3   OH269723   2.778   2.526  15.496  0.1827 -0.2763 -0.2714
16103TIP3    H169724   2.769   2.617  15.525  1.0913 -0.3556  0.2622
16103TIP3    H269725   2.696   2.484  15.524  0.4010  0.0136  0.8246
16104TIP3   OH269726   6.783   1.033   2.868  0.2842  0.2709 -0.3020
16104TIP3    H169727   6.838   1.016   2.792 -0.2005 -1.3663 -0.3095
16104TIP3    H269728   6.821   0.980   2.938 -0.9819 -0.4969 -0.1780
16105TIP3   OH269729   6.251   6.202  13.074 -0.1132  0.0389  0.1410
16105TIP3    H169730   6.165   6.168  13.052 -0.1016 -0.6356  1.0938
16105TIP3    H269731   6.281   6.245  12.994 -1.4036  0.4425 -0.1354
16106TIP3   OH269732   4.506   2.831   4.048 -0.1376 -0.5105  0.2502
16106TIP3    H169733   4.492   2.802   3.957 -0.7232  0.4031  0.0407
16106TIP3    H269734   4.441   2.783   4.099 -0.6994 -0.0331 -0.0088
16107TIP3   OH269735   2.926   3.836  15.604 -0.0977 -0.3708 -0.1494
16107TIP3    H169736   2.832   3.854  15.613  0.3938  2.0073  0.6167
16107TIP3    H269737   2.946   3.858  15.513 -0.2873 -1.0210 -0.3556
16108TIP3   OH269738   0.043   2.144   5.934 -0.1557 -0.0352  0.4149
16108TIP3    H169739   0.024   2.222   5.986 -1.0259 -0.3813  0.6309
16108TIP3    H269740   0.047   2.072   5.998  1.5595 -0.0436  0.3312
16109TIP3   OH269741   3.940   5.879  14.862 -0.2286 -0.3288 -0.1877
16109TIP3    H169742   3.865   5.840  14.817  0.0643  0.6023 -1.5160
16109TIP3    H269743   3.904   5.957  14.906  0.0558  0.4325 -1.2887
16110TIP3   OH269744   3.788   0.430   0.285  0.1272  0.7956 -0.0263
16110TIP3    H169745   3.727   0.362   0.316  0.8384  0.6349  1.0208
16110TIP3    H269746   3.853   0.438   0.354  0.3850  2.1395 -0.4154
16111TIP3   OH269747   4.033   1.830   5.932 -0.0711  0.2452  0.2910
16111TIP3    H169748   4.075   1.756   5.976 -3.0051 -0.5261  1.8926
16111TIP3    H269749   4.042   1.902   5.995  1.2548  0.8464 -0.5504
16112TIP3   OH269750   3.937   4.090  13.499 -0.3518 -0.5833  0.1198
16112TIP3    H169751   3.851   4.126  13.522  0.6650  2.5013 -0.6053
16112TIP3    H269752   3.919   4.027  13.429 -2.1473 -0.9755  0.9179
16113TIP3   OH269753   2.821   1.389   3.239  0.3063 -0.2927  0.2589
16113TIP3    H169754   2.823   1.462   3.301  0.9462  0.7893 -1.0304
16113TIP3    H269755   2.828   1.430   3.153 -0.8462 -1.7754 -0.5541
16114TIP3   OH269756   4.190   5.432  14.472  0.0617 -0.0796  0.2943
16114TIP3    H169757   4.282   5.419  14.451 -0.3227 -2.1294 -0.2633
16114TIP3    H269758   4.156   5.343  14.487 -1.4245  0.7637  2.1544
16115TIP3   OH269759   1.980   6.148  15.606 -0.5046  0.2611 -0.2015
16115TIP3    H169760   1.946   6.221  15.554  0.6988 -0.3856 -1.9352
16115TIP3    H269761   1.903   6.098  15.631 -1.0312  0.1713 -2.0072
16116TIP3   OH269762   1.950   5.775   0.120  0.2452 -0.1205 -0.2057
16116TIP3    H169763   2.046   5.774   0.125  0.2756 -0.2638 -0.7362
16116TIP3    H269764   1.931   5.831   0.044 -0.0530 -1.0582 -0.8291
16117TIP3   OH269765   0.851   5.494  14.142  0.6901 -0.1972  0.2145
16117TIP3    H169766   0.873   5.407  14.175 -0.9088 -1.2468 -1.3781
16117TIP3    H269767   0.764   5.513  14.177 -0.0445 -0.3473 -1.4792
16118TIP3   OH269768   2.781   5.942  11.964  0.1608 -0.2453  0.0352
16118TIP3    H169769   2.707   5.899  12.007 -0.0025 -0.2725 -0.2670
16118TIP3    H269770   2.848   5.948  12.031 -0.1149 -0.2269  0.3087
16119TIP3   OH269771   3.321   2.672  14.672  0.0062  0.2720  0.0327
16119TIP3    H169772   3.254   2.630  14.618  0.4831 -0.6446  0.1251
16119TIP3    H269773   3.292   2.762  14.682 -0.0393  0.4846 -1.8519
16120TIP3   OH269774   3.763   3.833  16.950  0.3990  0.7010 -0.5010
16120TIP3    H169775   3.715   3.753  16.968 -1.1888  1.3496 -1.7312
16120TIP3    H269776   3.819   3.846  17.027  1.4698 -2.1217 -0.7391
16121TIP3   OH269777   5.948   4.196   5.069  0.4570  0.1321  0.2647
16121TIP3    H169778   5.881   4.262   5.085 -2.1266 -2.2340 -0.4187
16121TIP3    H269779   5.914   4.142   4.998  2.9813 -1.2817  0.0417
16122TIP3   OH269780   0.055   6.213  11.159 -0.2435 -0.2856  0.3501
16122TIP3    H169781  -0.019   6.154  11.176 -0.7247 -0.4503 -2.1504
16122TIP3    H269782   0.131   6.156  11.155 -0.1005 -0.2373  1.8551
16123TIP3   OH269783   0.533   2.339   4.034 -0.6955 -0.1354  0.2510
16123TIP3    H169784   0.480   2.392   4.094 -1.5543 -0.9055  0.1822
16123TIP3    H269785   0.545   2.395   3.957 -0.1075  0.6246  0.8809
16124TIP3   OH269786   1.055   1.269   0.599 -0.3208 -0.5460  0.5843
16124TIP3    H169787   1.077   1.177   0.616 -0.2322 -0.5200  0.6100
16124TIP3    H269788   1.117   1.297   0.532 -0.2382 -0.4561  0.6976
16125TIP3   OH269789   6.067   1.047   1.328 -0.2459  0.1749 -0.1149
16125TIP3    H169790   6.069   1.122   1.388  1.2679  0.9950 -1.1530
16125TIP3    H269791   5.981   1.053   1.286  0.1805  1.8467 -0.8026
16126TIP3   OH269792   0.761   6.331  15.113  0.2583 -0.3313  0.2745
16126TIP3    H169793   0.774   6.426  15.120 -0.6564 -0.1195 -0.7200
16126TIP3    H269794   0.821   6.304  15.044 -1.1364 -0.0999 -1.0456
16127TIP3   OH269795   1.977   5.937   5.602 -0.1661 -0.2593 -0.2018
16127TIP3    H169796   1.968   6.005   5.535 -0.9621 -1.7171 -1.6224
16127TIP3    H269797   1.890   5.933   5.643  0.6392  1.4186  1.7321
16128TIP3   OH269798   1.674   2.257   2.125 -0.1142 -0.4403  0.1352
16128TIP3    H169799   1.638   2.288   2.208 -0.7784 -0.5158 -0.1204
16128TIP3    H269800   1.758   2.301   2.118  0.5887 -1.4946  1.5289
16129TIP3   OH269801   1.972   1.831  13.441 -0.5194 -0.1757 -0.2008
16129TIP3    H169802   2.033   1.826  13.514  4.7935 -1.1723 -4.4152
16129TIP3    H269803   1.935   1.920  13.447  3.6787  1.6305  0.8459
16130TIP3   OH269804   0.539   1.159   5.184  0.5024  0.2216  0.2894
16130TIP3    H169805   0.614   1.100   5.180 -0.1302 -0.6316  0.8145
16130TIP3    H269806   0.567   1.237   5.137  1.2755 -0.5790 -0.5893
16131TIP3   OH269807   6.629   0.388  13.805 -0.1467 -0.1395 -0.9592
16131TIP3    H169808   6.598   0.452  13.740 -0.6305  1.2537  0.5960
16131TIP3    H269809   6.550   0.356  13.847  0.1204 -1.5760 -1.5263
16132TIP3   OH269810   2.431   1.125  11.101 -0.6690  0.1932 -0.4273
16132TIP3    H169811   2.343   1.113  11.136 -0.9014  0.5075 -0.8899
16132TIP3    H269812   2.418   1.135  11.007 -0.1573  0.4318 -0.4761
16133TIP3   OH269813   2.614   4.924   5.890  0.3586 -0.4195 -0.1252
16133TIP3    H169814   2.649   4.921   5.979  0.9276  0.4734 -0.3101
16133TIP3    H269815   2.690   4.905   5.834  0.0055 -0.9787 -0.4216
16134TIP3   OH269816   3.198   0.602  16.978 -0.1901 -0.3807 -0.8992
16134TIP3    H169817   3.178   0.669  17.043 -0.2598 -0.8809 -0.3957
16134TIP3    H269818   3.292   0.611  16.962  0.2169 -1.4836  0.6980
16135TIP3   OH269819   0.888   0.154   4.006  0.3466  0.4996  0.7140
16135TIP3    H169820   0.958   0.091   4.020 -0.8836 -1.1367 -0.3907
16135TIP3    H269821   0.902   0.221   4.073  4.3647  1.4481 -0.9737
16136TIP3   OH269822   1.745   2.807   3.497  0.3746  0.1218  0.3328
16136TIP3    H169823   1.654   2.786   3.475 -0.3129  0.5201  2.6680
16136TIP3    H269824   1.756   2.897   3.465 -0.4922  0.5597  1.2235
16137TIP3   OH269825   6.168   2.497   4.427  0.3149  0.5558  0.2186
16137TIP3    H169826   6.185   2.416   4.379  0.2121  0.4396  0.3786
16137TIP3    H269827   6.153   2.469   4.517  1.4034  0.8511  0.4971
16138TIP3   OH269828   6.468   3.923  16.253 -0.6660 -0.4772 -0.5007
16138TIP3    H169829   6.377   3.892  16.246 -1.7716  2.1170  1.3884
16138TIP3    H269830   6.517   3.847  16.283 -2.2958 -1.8077 -1.1172
16139TIP3   OH269831   6.384   0.487  11.307  0.3631  0.5304  0.3185
16139TIP3    H169832   6.476   0.486  11.332  0.5859  1.8444 -0.4417
16139TIP3    H269833   6.384   0.485  11.212 -0.4256 -0.5249  0.3235
16140TIP3   OH269834   3.192   0.146   0.203 -0.3282  0.0226  0.1980
16140TIP3    H169835   3.257   0.194   0.254 -0.0212 -0.1997  0.0095
16140TIP3    H269836   3.119   0.208   0.194 -0.8167 -0.2814  1.7944
16141TIP3   OH269837   6.691   0.811   0.049  0.0605  0.6410  0.3801
16141TIP3    H169838   6.621   0.752   0.077  0.4120 -0.3234 -0.7436
16141TIP3    H269839   6.740   0.830   0.129 -0.3206 -0.2490  0.8235
16142TIP3   OH269840   1.177   0.076  10.839 -0.0892 -0.3724  0.5027
16142TIP3    H169841   1.225   0.106  10.917 -0.2903  0.3691  0.3502
16142TIP3    H269842   1.217   0.125  10.767 -0.2222 -0.7079  0.2050
16143TIP3   OH269843   3.764   5.100   0.472 -0.1606 -0.9680 -0.2736
16143TIP3    H169844   3.827   5.034   0.499  2.7602  1.8825  0.3096
16143TIP3    H269845   3.792   5.125   0.384 -1.6290 -0.9726 -0.7561
16144TIP3   OH269846   0.812   6.620   4.142  0.6366 -0.5391  1.0517
16144TIP3    H169847   0.756   6.687   4.102  2.6779  0.2822 -0.5551
16144TIP3    H269848   0.768   6.597   4.224 -1.7286  0.4809  0.1170
16145TIP3   OH269849   5.723   4.962  15.573 -0.1506 -0.1076 -0.2749
16145TIP3    H169850   5.708   4.987  15.664 -2.0870 -0.5811 -0.4372
16145TIP3    H269851   5.678   4.878  15.563 -0.5959  0.2881 -1.8425
16146TIP3   OH269852   2.988   1.044   5.876  0.3390 -0.2608  0.0344
16146TIP3    H169853   3.068   1.022   5.923  0.9911 -0.4314 -1.1345
16146TIP3    H269854   2.920   0.994   5.921  0.8374  0.0915  1.1963
16147TIP3   OH269855   4.457   1.411  11.476  0.0745  0.1999  0.0621
16147TIP3    H169856   4.461   1.350  11.402 -0.5807  0.4871 -0.2143
16147TIP3    H269857   4.370   1.452  11.469 -0.0823  0.0590  1.1245
16148TIP3   OH269858   3.709   1.127  14.296 -0.0751 -0.5413  0.1095
16148TIP3    H169859   3.624   1.154  14.261 -0.6169 -0.6653  1.3158
16148TIP3    H269860   3.736   1.200  14.352 -0.0759 -1.1461  0.8993
16149TIP3   OH269861   1.635   4.417  11.962 -0.0679  0.2163  0.0809
16149TIP3    H169862   1.636   4.480  11.890 -1.9255 -1.4329 -1.4520
16149TIP3    H269863   1.713   4.363  11.947  0.2071  0.6248  0.0140
16150TIP3   OH269864   1.193   2.432   2.309 -0.1191  0.2254 -0.1493
16150TIP3    H169865   1.252   2.402   2.239  1.1158  0.0655  0.9428
16150TIP3    H269866   1.123   2.478   2.263  1.2131  1.0221 -1.4351
16151TIP3   OH269867   1.309   4.632   5.219  0.0979 -0.3927 -0.0192
16151TIP3    H169868   1.306   4.658   5.127 -0.0172 -1.1993 -0.2452
16151TIP3    H269869   1.224   4.657   5.255 -0.6189 -1.8721 -0.6282
16152TIP3   OH269870   2.904   2.023   4.561  0.0109  0.0156 -0.3226
16152TIP3    H169871   2.897   1.957   4.492 -1.2413 -0.2418  0.0376
16152TIP3    H269872   2.985   2.069   4.542  0.4463 -1.0496 -1.0914
16153TIP3   OH269873   4.605   6.504   3.796  0.1220  0.4254  0.1651
16153TIP3    H169874   4.624   6.575   3.858 -0.0165  1.9023 -1.4493
16153TIP3    H269875   4.552   6.545   3.727  1.3093 -0.9004 -1.5817
16154TIP3   OH269876   1.153   5.825  16.224 -0.3228  0.2962 -0.2509
16154TIP3    H169877   1.222   5.835  16.289  0.9134  1.4086 -1.6975
16154TIP3    H269878   1.176   5.886  16.155 -1.5090 -1.0003 -1.8346
16155TIP3   OH269879   1.535   4.294   4.997 -0.8313 -0.2785 -0.7399
16155TIP3    H169880   1.612   4.237   5.000 -2.5879 -2.7403 -1.1653
16155TIP3    H269881   1.567   4.379   5.028  1.5465 -1.8254  1.2510
16156TIP3   OH269882   3.083   4.070  12.952  0.1910  0.0389 -0.3454
16156TIP3    H169883   3.170   4.063  12.992 -0.0075  1.1901  0.3147
16156TIP3    H269884   3.100   4.101  12.863  0.4592  0.2758 -0.2129
16157TIP3   OH269885   4.841   1.995   1.236  0.3391  0.6283  0.1099
16157TIP3    H169886   4.879   2.050   1.304  0.9944 -0.2807  0.4886
16157TIP3    H269887   4.747   1.996   1.253  0.6049 -0.4803  1.6917
16158TIP3   OH269888   6.169   1.839  14.272 -0.1594 -0.1647  0.2067
16158TIP3    H169889   6.203   1.832  14.183  0.8215 -0.9734  0.6268
16158TIP3    H269890   6.086   1.885  14.263  0.6562  1.1083 -0.9442
16159TIP3   OH269891   3.559   1.091  12.378 -0.1764 -0.0547 -0.0782
16159TIP3    H169892   3.643   1.046  12.385 -0.5442 -0.4189  2.9526
16159TIP3    H269893   3.494   1.021  12.383 -0.6874  0.4372  0.2381
16160TIP3   OH269894   6.268   5.775  16.477 -0.5974  0.2642  0.1464
16160TIP3    H169895   6.184   5.784  16.523  0.0109  0.5764  1.2317
16160TIP3    H269896   6.333   5.773  16.547  0.4512  1.8599 -0.7327
16161TIP3   OH269897   3.483   6.546  17.052  0.5989 -0.0407  0.5883
16161TIP3    H169898   3.397   6.530  17.089  0.3988  0.4820  0.3656
16161TIP3    H269899   3.533   6.467  17.071 -1.0570 -1.9360 -2.6278
16162TIP3   OH269900   6.685   1.083   4.092  0.0131  0.5197  0.6358
16162TIP3    H169901   6.706   0.992   4.114  1.9622  0.9859  0.7403
16162TIP3    H269902   6.609   1.076   4.035  0.6027 -1.2221  0.0199
16163TIP3   OH269903   3.351   3.345  16.930  0.1128  0.1249  0.3199
16163TIP3    H169904   3.272   3.295  16.951  0.2188 -0.7287 -1.2413
16163TIP3    H269905   3.421   3.298  16.976 -0.1023  0.1624  0.6940
16164TIP3   OH269906   1.475   1.720   4.193 -0.2432 -0.1618 -0.8139
16164TIP3    H169907   1.418   1.786   4.154  1.0542  0.3692 -1.8589
16164TIP3    H269908   1.453   1.722   4.286 -1.2404  0.7201 -1.0537
16165TIP3   OH269909   0.453   4.066   2.899  0.3464 -0.3868 -0.2920
16165TIP3    H169910   0.421   4.120   2.827 -1.7091  0.6402  1.3362
16165TIP3    H269911   0.423   3.978   2.879 -3.9698  0.5891  1.3234
16166TIP3   OH269912   4.874   4.155   3.573 -0.4345 -0.3933 -0.3457
16166TIP3    H169913   4.933   4.140   3.647 -1.6793 -2.3209  0.2869
16166TIP3    H269914   4.931   4.160   3.497  0.6496 -0.9570  0.4227
16167TIP3   OH269915   3.414   0.018   3.417 -0.1105  0.2198  0.2309
16167TIP3    H169916   3.398  -0.065   3.373 -0.1235 -0.1527  0.9390
16167TIP3    H269917   3.327   0.058   3.426 -0.0510  0.5346 -0.5420
16168TIP3   OH269918   6.085   4.154   6.098 -0.6820  0.0306 -0.4796
16168TIP3    H169919   6.027   4.083   6.125  0.0928 -0.2730  0.4280
16168TIP3    H269920   6.163   4.143   6.152  0.2389  0.4025 -1.7031
16169TIP3   OH269921   0.283   3.965  12.458 -0.2304  0.1780  0.6565
16169TIP3    H169922   0.224   3.895  12.486 -1.4673  1.1416  0.5059
16169TIP3    H269923   0.343   3.922  12.396 -1.6227 -0.5313 -0.2182
16170TIP3   OH269924   4.174   1.510  16.074  0.6933  0.1141  0.2354
16170TIP3    H169925   4.182   1.487  15.981 -0.1388  2.4048 -0.4328
16170TIP3    H269926   4.101   1.573  16.077  2.6859  2.4411  1.9782
16171TIP3   OH269927   1.534   0.822  12.602 -0.2283 -0.0820 -0.3046
16171TIP3    H169928   1.461   0.846  12.546 -1.0730 -3.4818 -0.7454
16171TIP3    H269929   1.516   0.866  12.685 -2.3551 -0.2438 -0.6625
16172TIP3   OH269930   4.618   1.342   4.270 -0.1693  0.3542  0.2505
16172TIP3    H169931   4.580   1.360   4.356 -0.9046 -0.8262  0.1827
16172TIP3    H269932   4.582   1.410   4.213 -1.4731 -0.2003  0.3862
16173TIP3   OH269933   6.555   2.773   0.069 -0.4014 -0.0320  0.4244
16173TIP3    H169934   6.562   2.858   0.027  0.3479 -1.1497 -1.8033
16173TIP3    H269935   6.471   2.738   0.039  0.3947 -1.0773 -0.6562
16174TIP3   OH269936   5.130   4.593   3.851  0.5912  0.2738  0.2832
16174TIP3    H169937   5.037   4.599   3.829  0.5540  0.0720  0.3826
16174TIP3    H269938   5.133   4.606   3.946  0.5174 -1.1204  0.4895
16175TIP3   OH269939   6.503   4.317  15.247  0.3223 -0.3179 -0.0852
16175TIP3    H169940   6.538   4.402  15.219 -2.7766  1.3850  0.9657
16175TIP3    H269941   6.521   4.313  15.341 -0.8238 -0.1243  0.1560
16176TIP3   OH269942   1.120   1.308  14.601 -0.0152 -0.1582 -0.1194
16176TIP3    H169943   1.129   1.401  14.583 -0.8809 -0.0263  0.0911
16176TIP3    H269944   1.111   1.267  14.515 -0.2309  0.0181 -0.1788
16177TIP3   OH269945   5.147   0.074   3.817  0.1421  0.1735 -0.0136
16177TIP3    H169946   5.159  -0.010   3.861  0.5428  0.0893 -0.2863
16177TIP3    H269947   5.222   0.082   3.759 -0.9983 -0.2867 -1.6025
16178TIP3   OH269948   1.319   0.302   6.128  0.2730 -0.1514 -0.2720
16178TIP3    H169949   1.239   0.343   6.093 -0.2447 -2.2721 -1.6591
16178TIP3    H269950   1.291   0.262   6.210  0.2171  0.2559 -0.0926
16179TIP3   OH269951   2.674   4.685   4.993 -0.4193 -0.2822 -0.1993
16179TIP3    H169952   2.635   4.731   4.919 -1.9081 -0.6044  0.3686
16179TIP3    H269953   2.701   4.754   5.054 -0.5784 -0.0845 -0.3544
16180TIP3   OH269954   4.896   0.787   4.855  0.0147  0.5503 -0.5362
16180TIP3    H169955   4.951   0.743   4.920 -2.9293 -0.0611  1.6488
16180TIP3    H269956   4.946   0.780   4.774  3.2335  0.2099  1.3471
16181TIP3   OH269957   1.679   5.084  10.796 -0.2494  0.3978  0.2213
16181TIP3    H169958   1.713   5.165  10.833 -1.6632  1.4396 -0.6907
16181TIP3    H269959   1.643   5.109  10.711 -1.0232 -1.1094  0.0791
16182TIP3   OH269960   6.291   5.837   3.285 -0.0180 -0.0523 -0.5837
16182TIP3    H169961   6.294   5.801   3.197 -0.2050  2.8458 -1.8134
16182TIP3    H269962   6.212   5.891   3.286  0.2058  0.2718  1.2241
16183TIP3   OH269963   2.355   5.170   0.627  0.5757  0.3606  0.1994
16183TIP3    H169964   2.427   5.120   0.665  1.8003 -0.1586 -2.6670
16183TIP3    H269965   2.288   5.105   0.608  1.2266  0.1179 -1.3570
16184TIP3   OH269966   0.099   5.243   4.087 -0.3318 -0.6853 -0.2657
16184TIP3    H169967   0.027   5.286   4.134  0.0216  0.2293 -0.5554
16184TIP3    H269968   0.076   5.150   4.089  0.2279 -0.8212  2.7335
16185TIP3   OH269969   4.220   3.974  11.117 -0.0708 -0.2517  0.0703
16185TIP3    H169970   4.285   3.928  11.063  0.1969 -0.8146  0.8635
16185TIP3    H269971   4.217   4.062  11.082  1.4656 -0.0987  0.3266
16186TIP3   OH269972   5.965   5.184  14.004 -0.4435 -0.2773  0.1772
16186TIP3    H169973   6.035   5.172  13.941 -1.0300 -1.8852 -0.2111
16186TIP3    H269974   5.996   5.139  14.083 -1.0296 -1.0172 -0.0044
16187TIP3   OH269975   2.711   3.621   2.758 -0.3993 -0.1940 -0.4305
16187TIP3    H169976   2.644   3.681   2.726 -0.6119  0.2919  0.9215
16187TIP3    H269977   2.679   3.534   2.733 -1.4444  0.0517  0.0445
16188TIP3   OH269978   5.290   0.597  16.393  0.1500  0.2089 -0.0582
16188TIP3    H169979   5.346   0.664  16.432  3.5123 -4.1448  3.1240
16188TIP3    H269980   5.212   0.594  16.448  0.8019  0.3152  0.8707
16189TIP3   OH269981   3.028   1.126   3.990 -0.2668 -0.0612  0.6416
16189TIP3    H169982   2.967   1.094   4.057 -0.4153  0.2309  0.6444
16189TIP3    H269983   3.081   1.191   4.036 -2.0460  1.9919 -0.1876
16190TIP3   OH269984   2.982   5.654  15.271 -0.2219  0.4490 -0.1015
16190TIP3    H169985   3.061   5.636  15.324 -0.0334 -1.5044 -0.9896
16190TIP3    H269986   3.013   5.711  15.201  0.4427 -0.3849 -0.5000
16191TIP3   OH269987   4.759   3.507   4.636  0.0203 -0.0779 -0.3985
16191TIP3    H169988   4.806   3.482   4.715 -3.1700 -0.8405  1.3242
16191TIP3    H269989   4.811   3.469   4.564  2.8779  0.5199  1.2752
16192TIP3   OH269990   5.189   1.663  16.116  1.0124 -0.4731 -0.0838
16192TIP3    H169991   5.103   1.624  16.099  0.4484  0.4085  0.7538
16192TIP3    H269992   5.230   1.667  16.029 -0.0481 -0.2820 -0.5851
16193TIP3   OH269993   4.799   4.564   0.466 -0.1877 -0.1257 -0.1198
16193TIP3    H169994   4.818   4.595   0.554  0.8812 -1.6768  0.2085
16193TIP3    H269995   4.707   4.539   0.469 -0.5021  1.0364  0.1877
16194TIP3   OH269996   6.690   5.893   4.671 -0.7411 -0.6754  0.5590
16194TIP3    H169997   6.634   5.911   4.595  0.8115 -3.1828 -1.2312
16194TIP3    H269998   6.628   5.880   4.743 -2.6285 -4.2779 -1.5488
16195TIP3   OH269999   2.476   2.390   0.253  0.7513 -0.5857  0.4131
16195TIP3    H170000   2.555   2.442   0.243 -0.9466  1.9117 -0.6284
16195TIP3    H270001   2.404   2.454   0.247 -1.3782 -2.8909  0.3403
16196TIP3   OH270002   4.055   2.647   4.174 -0.4290 -0.3538  0.2928
16196TIP3    H170003   4.003   2.670   4.250 -1.4884  1.4773 -0.9475
16196TIP3    H270004   4.002   2.673   4.099  1.6070  0.1071 -1.0360
16197TIP3   OH270005   6.181   0.709  15.546 -0.1443  0.4521 -0.1738
16197TIP3    H170006   6.226   0.656  15.612 -2.4119  1.9364  2.6850
16197TIP3    H270007   6.167   0.793  15.588 -2.4785  1.1541 -2.2399
16198TIP3   OH270008   3.408   6.487   2.176  0.0540 -0.3237  0.0544
16198TIP3    H170009   3.459   6.466   2.098 -0.3172  0.3248 -0.3683
16198TIP3    H270010   3.468   6.539   2.230  0.2339 -0.5712  0.0938
16199TIP3   OH270011   0.205   0.322   1.937 -0.2855 -0.5268  0.2800
16199TIP3    H170012   0.186   0.266   1.862  1.5506  1.4294 -1.7243
16199TIP3    H270013   0.149   0.399   1.923  1.0252  0.4185  0.1954
16200TIP3   OH270014   0.350   1.098  15.880 -0.0815 -0.0164  0.5552
16200TIP3    H170015   0.321   1.052  15.958  0.7148  2.8593  2.6389
16200TIP3    H270016   0.444   1.112  15.894  0.7646 -2.2810 -2.4355
16201TIP3   OH270017   3.542   2.407  10.791 -0.8866  0.4328  0.0568
16201TIP3    H170018   3.501   2.363  10.865  0.0296 -1.3812 -0.4819
16201TIP3    H270019   3.568   2.336  10.732  3.0786  1.5021  0.4215
16202TIP3   OH270020   1.827   2.956  16.767  0.0715 -0.1805  0.1164
16202TIP3    H170021   1.877   3.034  16.787  0.8455 -0.6259 -0.0784
16202TIP3    H270022   1.867   2.887  16.821 -1.9362 -0.0035  1.9148
16203TIP3   OH270023   4.820   3.888  14.346 -0.2693  0.1123 -0.4100
16203TIP3    H170024   4.793   3.797  14.335  1.1438 -0.3363 -0.3432
16203TIP3    H270025   4.866   3.889  14.430  1.1428  0.5150 -1.1517
16204TIP3   OH270026   6.599   3.356   4.123 -0.2364 -0.3569 -0.0655
16204TIP3    H170027   6.556   3.432   4.084 -0.7214 -1.1465 -1.1233
16204TIP3    H270028   6.690   3.363   4.095 -0.3254 -0.2740 -0.3414
16205TIP3   OH270029   3.130   5.904  13.557  0.2807 -0.7494  0.7307
16205TIP3    H170030   3.186   5.974  13.524 -0.4954 -0.0891  0.7997
16205TIP3    H270031   3.068   5.886  13.486 -1.0305  0.2873  1.5741
16206TIP3   OH270032   4.050   3.621  12.978 -0.0186 -0.0348 -0.5005
16206TIP3    H170033   3.964   3.583  12.960  0.2840 -1.2650  0.5803
16206TIP3    H270034   4.032   3.692  13.040 -0.1979 -0.6266  0.1288
16207TIP3   OH270035   4.008   5.416   4.081 -0.7850  0.2915 -0.6841
16207TIP3    H170036   4.098   5.411   4.048  0.0852 -0.0611  1.6244
16207TIP3    H270037   3.980   5.505   4.059  0.4173  0.6627 -0.7831
16208TIP3   OH270038   2.719   3.559  15.234  0.5107 -0.3928 -0.7230
16208TIP3    H170039   2.776   3.484  15.220 -0.8826 -1.4891 -0.7286
16208TIP3    H270040   2.700   3.557  15.328  0.6826  0.1045 -0.6781
16209TIP3   OH270041   3.531   3.882   0.886 -0.0523 -0.1814 -0.3928
16209TIP3    H170042   3.459   3.892   0.947 -0.5998  0.9764 -1.1989
16209TIP3    H270043   3.490   3.867   0.801  0.6555 -0.1572 -0.7501
16210TIP3   OH270044   6.098   2.900   2.528  0.4103 -0.2313 -0.2190
16210TIP3    H170045   6.048   2.827   2.566  0.0233 -0.1723 -0.6128
16210TIP3    H270046   6.167   2.917   2.592  0.0420 -0.4405  0.2412
16211TIP3   OH270047   1.655   2.577  15.492 -0.0652 -0.2581 -0.2764
16211TIP3    H170048   1.610   2.661  15.493 -3.4066 -1.9440 -0.2965
16211TIP3    H270049   1.743   2.597  15.460 -1.0941  3.0552 -1.2685
16212TIP3   OH270050   1.196   4.389   1.618 -0.0469 -0.5827  0.1044
16212TIP3    H170051   1.133   4.423   1.554  1.0190  0.3213 -0.5017
16212TIP3    H270052   1.268   4.354   1.565  0.9071  0.2839  0.7963
16213TIP3   OH270053   1.289   5.854  15.035  0.5214 -0.0649  0.5615
16213TIP3    H170054   1.210   5.800  15.025 -0.5644  1.5504  0.1290
16213TIP3    H270055   1.290   5.878  15.127 -0.1259  0.8162  0.3497
16214TIP3   OH270056   4.458   0.555  16.185  0.4450  0.0462 -0.1099
16214TIP3    H170057   4.477   0.631  16.240 -0.3749  1.1423 -1.2826
16214TIP3    H270058   4.379   0.516  16.223  1.8766 -1.3017  1.5519
16215TIP3   OH270059   4.156   5.999  13.770  0.5257  0.3672 -0.7305
16215TIP3    H170060   4.118   6.065  13.712 -0.5819  0.0658 -0.3620
16215TIP3    H270061   4.180   6.048  13.849  1.1015  0.5918 -1.0360
16216TIP3   OH270062   4.113   0.308   1.791 -0.0400  0.2854  0.5530
16216TIP3    H170063   4.026   0.270   1.801 -0.4196  1.7550  3.2259
16216TIP3    H270064   4.098   0.402   1.795  1.6311  0.5596  0.5186
16217TIP3   OH270065   5.096   6.106  13.507 -0.5312 -0.6332 -0.3350
16217TIP3    H170066   5.187   6.079  13.497 -0.3721 -0.0966 -0.3616
16217TIP3    H270067   5.045   6.033  13.474 -0.1161 -1.1877  0.2475
16218TIP3   OH270068   3.301   1.148  11.354 -0.0664  0.8262  0.2657
16218TIP3    H170069   3.375   1.141  11.415  0.5343  1.7229 -0.3656
16218TIP3    H270070   3.340   1.138  11.268 -0.4008  3.2297 -0.1905
16219TIP3   OH270071   2.615   5.601   3.703 -0.4551  0.4291 -0.5729
16219TIP3    H170072   2.562   5.625   3.627  0.0468  0.5861 -0.8766
16219TIP3    H270073   2.575   5.520   3.735 -0.6911  0.3812 -0.9788
16220TIP3   OH270074   3.826   0.344   5.624 -0.3874 -0.5710  0.2269
16220TIP3    H170075   3.916   0.342   5.657 -0.4415  0.1586  0.4319
16220TIP3    H270076   3.825   0.280   5.553  0.0949 -1.1420  0.7328
16221TIP3   OH270077   3.068   4.061  12.361 -0.4590 -0.3116  1.0990
16221TIP3    H170078   3.013   4.013  12.300  1.7637 -1.1392 -0.2655
16221TIP3    H270079   3.101   3.995  12.421 -0.6805  0.1462  1.7362
16222TIP3   OH270080   4.664   2.531  16.953 -0.5669  0.2946 -0.2449
16222TIP3    H170081   4.757   2.512  16.965 -0.5423  0.3033 -0.4222
16222TIP3    H270082   4.623   2.499  17.034 -0.4398  0.0609 -0.2706
16223TIP3   OH270083   1.816   6.550  16.915 -0.1255  0.2791  0.2022
16223TIP3    H170084   1.823   6.601  16.834  0.2035  0.0173  0.0571
16223TIP3    H270085   1.723   6.542  16.931 -0.2076 -0.0045 -0.3779
16224TIP3   OH270086   5.349   1.191  16.003 -0.4225  0.1159  0.0633
16224TIP3    H170087   5.339   1.158  16.092 -1.3455  1.2487  0.3971
16224TIP3    H270088   5.339   1.286  16.011  2.2208  0.5090 -0.8670
16225TIP3   OH270089   6.020   4.252   3.513  0.2119  0.2277  0.3728
16225TIP3    H170090   6.056   4.330   3.555  0.4034  0.9311 -1.0818
16225TIP3    H270091   6.082   4.232   3.443  1.3915 -2.5969  2.1595
16226TIP3   OH270092   2.973   4.694   3.630 -0.2621 -0.5062  0.2755
16226TIP3    H170093   2.895   4.724   3.584  1.1524  1.2233 -1.0318
16226TIP3    H270094   3.017   4.637   3.568  0.6794  0.3166  0.1873
16227TIP3   OH270095   3.144   3.258   6.458  0.1123 -0.4379 -0.3588
16227TIP3    H170096   3.051   3.234   6.463  0.2993 -1.0656  0.2719
16227TIP3    H270097   3.191   3.174   6.459  0.6590 -0.1468 -1.4063
16228TIP3   OH270098   4.693   3.114  13.495  0.0750 -0.1754  0.7327
16228TIP3    H170099   4.644   3.156  13.425 -0.1892 -1.3828  0.1797
16228TIP3    H270100   4.772   3.080  13.452  0.2681 -0.2809  1.1686
16229TIP3   OH270101   2.994   4.670   4.858 -0.7420  0.2280  0.1412
16229TIP3    H170102   3.003   4.753   4.810 -1.0060  0.0371 -0.2414
16229TIP3    H270103   2.968   4.607   4.791  0.0845 -0.3015  0.3196
16230TIP3   OH270104   1.079   3.434  10.845 -0.1094 -0.2483  0.0351
16230TIP3    H170105   1.111   3.409  10.931 -0.5710 -1.6763 -0.2032
16230TIP3    H270106   1.158   3.457  10.796  0.1261  0.8726  0.9287
16231TIP3   OH270107   4.327   2.772  15.133  0.4767  0.6881  0.5359
16231TIP3    H170108   4.248   2.827  15.134 -0.8715 -1.1831  0.3530
16231TIP3    H270109   4.342   2.754  15.040  1.2627  1.2195  0.5557
16232TIP3   OH270110   3.191   4.716   2.664  0.5995 -0.3676  0.0371
16232TIP3    H170111   3.126   4.777   2.699  0.5714  0.5914 -1.6475
16232TIP3    H270112   3.218   4.755   2.581  1.2539 -2.1874 -0.6184
16233TIP3   OH270113   3.865   6.711  15.972  0.7134  0.2134 -0.4772
16233TIP3    H170114   3.954   6.682  15.992  1.2368  0.6088 -2.1407
16233TIP3    H270115   3.872   6.751  15.886 -0.9854  0.7210 -0.3921
16234TIP3   OH270116   0.399   6.775  16.375  0.4719  0.8695 -0.8256
16234TIP3    H170117   0.440   6.689  16.389 -2.9336 -0.4508  1.6228
16234TIP3    H270118   0.396   6.814  16.462 -1.8293  1.6881 -1.2608
16235TIP3   OH270119   1.223   4.336   1.334  0.4653  0.0593  0.3226
16235TIP3    H170120   1.226   4.243   1.354 -0.0912  0.5909  3.1271
16235TIP3    H270121   1.310   4.357   1.302  0.5754 -1.4165 -0.4083
16236TIP3   OH270122   5.852   0.048  16.215  0.1723 -0.4618  0.0620
16236TIP3    H170123   5.801  -0.009  16.273 -0.2643  0.7272  0.8498
16236TIP3    H270124   5.884  -0.011  16.146  0.3254 -1.7993  1.2522
16237TIP3   OH270125   0.190   2.156  11.151 -0.2156 -0.2298 -0.6939
16237TIP3    H170126   0.208   2.097  11.078 -0.0194  1.0652 -1.7096
16237TIP3    H270127   0.271   2.207  11.162  0.4196 -1.6771  1.6402
16238TIP3   OH270128   4.519   3.640   0.531 -0.0688 -0.7495  0.1656
16238TIP3    H170129   4.575   3.678   0.464 -0.5680  0.2457  0.2965
16238TIP3    H270130   4.563   3.559   0.557  0.7193 -0.5497 -0.5296
16239TIP3   OH270131   3.191   2.999  11.149  0.9188 -0.2818 -0.1092
16239TIP3    H170132   3.103   3.012  11.186  0.8631  1.5665 -0.8320
16239TIP3    H270133   3.184   3.032  11.059  1.7529 -2.2751 -0.9395
16240TIP3   OH270134   1.419   4.945   0.914  0.0054 -0.0278  0.2454
16240TIP3    H170135   1.392   4.920   1.003  1.1657  0.6602  0.8069
16240TIP3    H270136   1.515   4.940   0.916  0.0063 -1.4044 -1.3934
16241TIP3   OH270137   5.622   5.808  16.359  0.2270  0.3218 -0.5033
16241TIP3    H170138   5.588   5.746  16.423  1.0035 -1.1556 -1.4744
16241TIP3    H270139   5.668   5.874  16.411 -1.8789  0.9129  0.6425
16242TIP3   OH270140   3.792   1.606   0.812  0.5626  0.4318 -0.0032
16242TIP3    H170141   3.872   1.587   0.861 -0.1417 -1.1883  0.5610
16242TIP3    H270142   3.732   1.535   0.836 -0.5048  0.7525 -1.6226
16243TIP3   OH270143   3.917   1.475   6.343 -0.2938  0.6560  0.0059
16243TIP3    H170144   3.976   1.531   6.394  0.2786  0.2554 -0.2212
16243TIP3    H270145   3.965   1.455   6.263 -0.7213  0.2961 -0.1645
16244TIP3   OH270146   4.032   5.592  12.258  0.0044  0.7151 -0.7502
16244TIP3    H170147   3.964   5.554  12.313 -0.6675  1.9536 -0.7011
16244TIP3    H270148   4.066   5.667  12.308  1.2042  0.2916 -0.8971
16245TIP3   OH270149   1.702   3.823  13.722 -0.1798  0.5398 -0.2249
16245TIP3    H170150   1.729   3.776  13.643 -1.2554  0.0246 -0.3106
16245TIP3    H270151   1.746   3.777  13.794 -0.6054 -0.1238 -0.3809
16246TIP3   OH270152   2.124   3.116   3.832 -0.0965 -0.4937  0.2572
16246TIP3    H170153   2.110   3.206   3.863 -0.4632 -1.1374  1.9920
16246TIP3    H270154   2.155   3.069   3.909  0.3491 -1.8022 -0.7178
16247TIP3   OH270155   5.888   0.765   3.541 -0.1993 -0.1939  0.7729
16247TIP3    H170156   5.915   0.769   3.632  2.0081  0.9048  0.1024
16247TIP3    H270157   5.941   0.832   3.497 -2.1406  0.1813 -1.0862
16248TIP3   OH270158   6.564   6.554  13.083 -0.8079  0.4204 -0.2376
16248TIP3    H170159   6.592   6.626  13.140  0.9640 -0.5448  0.1409
16248TIP3    H270160   6.483   6.522  13.122  0.2824 -0.1194  1.6811
16249TIP3   OH270161   2.852   3.357   3.615  0.2198 -0.2099 -0.1824
16249TIP3    H170162   2.847   3.342   3.521  0.6696 -0.1083 -0.2235
16249TIP3    H270163   2.945   3.365   3.633  0.2732 -2.2540  0.5860
16250TIP3   OH270164   4.931   6.344   3.615 -0.3222 -0.4549  0.1093
16250TIP3    H170165   4.840   6.315   3.603 -0.5133  0.7803 -1.6543
16250TIP3    H270166   4.965   6.352   3.525  1.0799  0.4817  0.7088
16251TIP3   OH270167   0.049   0.355  12.680 -0.1334  0.3650  0.4016
16251TIP3    H170168   0.096   0.378  12.760  1.5754 -0.1098 -0.4522
16251TIP3    H270169   0.116   0.319  12.622 -1.5676 -0.4249 -0.7973
16252TIP3   OH270170   5.382   3.667  11.426  0.5059 -0.0569  0.1719
16252TIP3    H170171   5.293   3.641  11.452  0.0055  2.5846  1.2949
16252TIP3    H270172   5.408   3.601  11.362 -2.6302 -0.4143 -0.8520
16253TIP3   OH270173   2.717   3.165   3.062 -0.0491 -0.3910  0.4325
16253TIP3    H170174   2.624   3.142   3.064  0.0142 -0.8176 -1.3487
16253TIP3    H270175   2.718   3.259   3.048 -0.1941 -0.6154 -1.0866
16254TIP3   OH270176   5.894   6.072  12.005  0.4207  0.0929 -0.0305
16254TIP3    H170177   5.969   6.012  12.005 -0.9894 -1.7193 -2.4883
16254TIP3    H270178   5.913   6.134  11.935 -0.3708 -0.3620 -0.6483
16255TIP3   OH270179   3.875   1.062   2.899 -0.1349 -0.3099 -0.3040
16255TIP3    H170180   3.905   1.141   2.853  0.7311 -0.2544  0.3377
16255TIP3    H270181   3.916   0.990   2.852 -1.0985 -0.4032 -1.0233
16256TIP3   OH270182   0.864   3.315  16.466  0.1655 -0.1894  0.4533
16256TIP3    H170183   0.826   3.231  16.492  1.4057 -0.3245  1.8985
16256TIP3    H270184   0.873   3.308  16.371 -1.1956 -1.0643  0.3616
16257TIP3   OH270185   0.828   6.475  14.664 -0.2466  0.4207 -0.2510
16257TIP3    H170186   0.804   6.480  14.572 -0.1575  3.8155 -0.1361
16257TIP3    H270187   0.923   6.463  14.663 -0.2852  0.1160 -0.5751
16258TIP3   OH270188   1.274   2.046  12.814 -0.0369 -0.6988  0.7956
16258TIP3    H170189   1.324   1.975  12.774  0.1786 -1.2033  1.9184
16258TIP3    H270190   1.332   2.122  12.809 -0.7984 -0.2323 -1.6470
16259TIP3   OH270191   6.646   5.436  11.778 -0.4385 -0.3359  0.0557
16259TIP3    H170192   6.676   5.514  11.730 -4.0596  0.2562 -1.4326
16259TIP3    H270193   6.683   5.447  11.866 -0.2212  2.7029 -0.3316
16260TIP3   OH270194   6.684   2.399  15.008 -0.0136 -0.1460 -0.2447
16260TIP3    H170195   6.600   2.396  15.054 -0.1492  1.2813 -0.3543
16260TIP3    H270196   6.661   2.427  14.919  0.3667 -1.7958 -0.8741
16261TIP3   OH270197   0.777   6.475  14.406  0.1813 -0.1509  0.2199
16261TIP3    H170198   0.744   6.394  14.367 -0.8275 -0.5505  1.8595
16261TIP3    H270199   0.711   6.541  14.385  1.6971  0.6009 -2.3470
16262TIP3   OH270200   3.370   3.549  14.621  1.0632 -0.0053  0.4432
16262TIP3    H170201   3.410   3.594  14.695 -0.3119  3.2551 -0.6983
16262TIP3    H270202   3.424   3.575  14.546  1.0441 -1.4011 -0.0825
16263TIP3   OH270203   0.582   0.980   4.801  0.1349 -0.2376  0.3635
16263TIP3    H170204   0.602   1.069   4.831 -0.7626  0.6410 -1.5798
16263TIP3    H270205   0.505   0.955   4.851 -1.7854  1.4903 -1.6443
16264TIP3   OH270206   2.286   0.917  13.590 -0.2617  0.4502 -0.5550
16264TIP3    H170207   2.245   0.858  13.527  1.6283 -0.8194 -0.6320
16264TIP3    H270208   2.274   0.874  13.675  0.9920  0.0061 -0.5935
16265TIP3   OH270209   3.707   0.673  16.014  0.1709 -0.6096  0.0220
16265TIP3    H170210   3.738   0.584  16.034  0.1678 -1.1221 -2.0842
16265TIP3    H270211   3.612   0.665  16.014  0.1883 -1.1442 -2.2983
16266TIP3   OH270212   3.039   3.118  15.176 -0.9504  0.1643  0.2317
16266TIP3    H170213   2.948   3.093  15.160 -1.2470 -0.2648  2.4437
16266TIP3    H270214   3.068   3.060  15.246  1.4571 -0.5697 -1.3154
16267TIP3   OH270215   4.934   0.227   2.829  0.0040  0.3113  0.1629
16267TIP3    H170216   4.900   0.315   2.813  0.9483  0.6937  0.2542
16267TIP3    H270217   5.001   0.239   2.896 -2.1928 -0.9281  2.7080
16268TIP3   OH270218   4.029   5.463  11.143 -0.2384  0.4274  0.1506
16268TIP3    H170219   4.021   5.550  11.184 -0.2842 -0.8860  3.0082
16268TIP3    H270220   3.938   5.432  11.136 -0.2195  0.5744 -0.8682
16269TIP3   OH270221   3.858   4.613  14.777 -0.2242  0.1508 -0.4131
16269TIP3    H170222   3.854   4.657  14.862  0.9629 -0.0595 -0.2435
16269TIP3    H270223   3.849   4.520  14.797  1.7181 -0.0341 -0.3546
16270TIP3   OH270224   5.177   6.191   3.245 -0.4492 -0.2538  0.1165
16270TIP3    H170225   5.114   6.234   3.186 -1.5635 -0.1973  1.3209
16270TIP3    H270226   5.216   6.263   3.295 -0.0239 -0.3651 -0.0523
16271TIP3   OH270227   4.535   3.689   3.394  0.4739 -0.1990  0.2338
16271TIP3    H170228   4.511   3.687   3.486  0.0910 -0.9815  0.1195
16271TIP3    H270229   4.619   3.736   3.392  1.3104 -1.6233  1.1569
16272TIP3   OH270230   3.324   4.809  13.593  0.2441 -0.2043  0.6361
16272TIP3    H170231   3.263   4.820  13.520  1.7967  0.7027 -0.5612
16272TIP3    H270232   3.317   4.890  13.643  0.0482 -0.3404  0.8307
16273TIP3   OH270233   4.235   3.318   2.983  0.2976  0.1168  0.3584
16273TIP3    H170234   4.146   3.334   3.013  0.0896  1.4678 -0.9791
16273TIP3    H270235   4.284   3.300   3.063 -0.9743  0.2924  1.1860
16274TIP3   OH270236   6.611   3.004  11.956  0.3309 -0.6101  0.4037
16274TIP3    H170237   6.569   3.060  12.022 -0.7774 -1.0173  0.0571
16274TIP3    H270238   6.624   2.920  11.999  1.8337 -0.1603  0.8671
16275TIP3   OH270239   0.944   2.259  14.440  0.2266  0.4416  0.2796
16275TIP3    H170240   0.893   2.204  14.499  0.5787  0.4632  0.6077
16275TIP3    H270241   0.906   2.346  14.449  0.6090  0.5501  0.8660
16276TIP3   OH270242   4.405   4.973  16.493 -0.0330  0.5875  0.4341
16276TIP3    H170243   4.431   5.003  16.406  3.2548 -1.6335  0.5451
16276TIP3    H270244   4.431   5.044  16.551  1.1765  0.5285 -0.0214
16277TIP3   OH270245   1.495   3.541  15.698  0.0891  0.0735 -0.2897
16277TIP3    H170246   1.583   3.505  15.684 -0.0466 -0.9257  1.3096
16277TIP3    H270247   1.508   3.636  15.697  1.1422 -0.0566 -0.3653
16278TIP3   OH270248   1.160   2.950  17.153 -0.2297  0.2939  0.0913
16278TIP3    H170249   1.201   2.896  17.222 -0.5017 -0.4491 -0.3276
16278TIP3    H270250   1.234   2.994  17.111 -0.2025  2.2436  2.0912
16279TIP3   OH270251   5.347   2.813  14.825  0.1082 -0.5871  0.0449
16279TIP3    H170252   5.334   2.719  14.827 -2.2498 -0.2732  1.4673
16279TIP3    H270253   5.392   2.833  14.907 -0.7386 -0.3154  0.4502
16280TIP3   OH270254   4.528   0.531  14.353  0.0669 -0.1901 -0.1705
16280TIP3    H170255   4.520   0.472  14.278 -0.9838 -2.2380  1.4881
16280TIP3    H270256   4.473   0.606  14.331  0.0155 -0.6361 -1.5729
16281TIP3   OH270257   3.026   5.205  13.805 -0.3811  0.6040 -0.4152
16281TIP3    H170258   2.935   5.230  13.791 -0.1648  1.3381 -0.4939
16281TIP3    H270259   3.070   5.285  13.835 -0.2964 -0.3043  2.0349
16282TIP3   OH270260   1.383   2.840  14.576 -0.1500 -0.4313 -0.4473
16282TIP3    H170261   1.369   2.787  14.498  0.3334  0.6391 -1.2888
16282TIP3    H270262   1.476   2.865  14.572  0.4767 -2.2859  1.7189
16283TIP3   OH270263   6.618   0.208   5.044 -0.5823 -0.2159  0.5140
16283TIP3    H170264   6.564   0.231   4.968 -1.0409  0.5151  1.0508
16283TIP3    H270265   6.694   0.266   5.039  0.6048 -1.8142 -0.7035
16284TIP3   OH270266   0.155   5.564   2.471  0.3942  0.5114  0.1301
16284TIP3    H170267   0.187   5.555   2.381  2.3905  0.4544  0.8205
16284TIP3    H270268   0.163   5.657   2.490 -0.0793  0.5317  0.2463
16285TIP3   OH270269   2.273   0.873   3.149 -0.3565  0.1524 -0.0871
16285TIP3    H170270   2.278   0.952   3.203 -1.2945  0.1092  0.0671
16285TIP3    H270271   2.317   0.898   3.067 -0.7209  0.8599 -0.0755
16286TIP3   OH270272   6.372   2.118  12.819  0.3232  0.5688 -0.1654
16286TIP3    H170273   6.398   2.137  12.729  0.1770  0.4641 -0.2303
16286TIP3    H270274   6.348   2.203  12.855  2.0069  0.8804  0.3039
16287TIP3   OH270275   6.512   4.452   3.606  0.3269  0.6449 -0.2213
16287TIP3    H170276   6.448   4.450   3.534  1.1023  1.8828 -0.9428
16287TIP3    H270277   6.458   4.447   3.685 -0.4261 -3.5763 -0.8657
16288TIP3   OH270278   2.161   2.432  11.938  0.0835  0.3946 -0.4480
16288TIP3    H170279   2.192   2.516  11.973 -0.3518  1.1398 -1.8151
16288TIP3    H270280   2.109   2.394  12.009 -1.6524  2.3486 -0.6468
16289TIP3   OH270281   6.324   0.385   5.691  0.0876 -0.3056 -0.0463
16289TIP3    H170282   6.280   0.454   5.740  1.0344 -0.1267  0.5547
16289TIP3    H270283   6.253   0.326   5.665 -0.6810  0.6898 -0.2557
16290TIP3   OH270284   5.480   4.646  12.456 -0.5214 -0.2967  0.5951
16290TIP3    H170285   5.507   4.573  12.401  0.3301 -0.7760  1.6420
16290TIP3    H270286   5.479   4.722  12.396  2.2367 -0.4321  0.3230
16291TIP3   OH270287   0.397   4.974   4.206  0.0108 -0.0796 -0.1096
16291TIP3    H170288   0.391   5.067   4.186  0.2872  0.1912  0.9842
16291TIP3    H270289   0.444   4.971   4.289  1.3680 -1.2803 -0.9042
16292TIP3   OH270290   0.596   2.515  10.786 -0.0116  0.8199  1.0661
16292TIP3    H170291   0.634   2.463  10.856  0.7775  0.9774  0.7675
16292TIP3    H270292   0.552   2.451  10.730  2.2483  0.2487 -0.1324
16293TIP3   OH270293   1.750   1.540   6.677  0.1200 -0.2565 -0.0073
16293TIP3    H170294   1.791   1.484   6.743  2.1938 -0.8283 -1.7568
16293TIP3    H270295   1.745   1.626   6.719  1.8384 -0.5019  0.7527
16294TIP3   OH270296   0.604   0.940   4.535  0.6637  0.0779  0.3825
16294TIP3    H170297   0.597   0.976   4.624 -0.5435 -0.3819  0.4921
16294TIP3    H270298   0.544   0.865   4.536  1.8700 -0.9146 -0.3424
16295TIP3   OH270299   6.677   5.977   0.314  0.2951 -0.1323  0.1559
16295TIP3    H170300   6.635   5.973   0.400  1.1822  1.0064  0.6648
16295TIP3    H270301   6.770   5.986   0.333  0.7746 -2.4451 -0.9546
16296TIP3   OH270302   0.683   2.889  14.501 -0.1811  0.0251  0.1284
16296TIP3    H170303   0.607   2.873  14.557 -0.5764 -1.9086 -0.9285
16296TIP3    H270304   0.692   2.809  14.448  1.1627  1.1628 -1.4231
16297TIP3   OH270305   2.102   0.139   3.351 -0.2553  0.3892  0.5184
16297TIP3    H170306   2.123   0.056   3.393  2.7869  0.6850 -0.3130
16297TIP3    H270307   2.033   0.117   3.288  0.2727 -1.4362  0.5405
16298TIP3   OH270308   4.454   4.447  13.034  0.0564 -0.0152  0.0116
16298TIP3    H170309   4.418   4.387  13.099 -0.4421 -0.2362 -0.4696
16298TIP3    H270310   4.413   4.421  12.952  0.3085  0.5874 -0.3076
16299TIP3   OH270311   6.721   6.240  15.811  0.3552 -0.1015 -0.2962
16299TIP3    H170312   6.626   6.242  15.810  0.3320 -1.4135 -0.9747
16299TIP3    H270313   6.744   6.150  15.787  1.7497  0.0677  0.3403
16300TIP3   OH270314   1.680   6.152   1.893 -0.0443  0.8075  0.2185
16300TIP3    H170315   1.586   6.172   1.888 -0.2692  0.0970  1.5030
16300TIP3    H270316   1.690   6.107   1.976  1.5657  1.4890  0.3987
16301TIP3   OH270317   4.844   3.584   1.182  0.2093  0.1138 -0.4255
16301TIP3    H170318   4.809   3.635   1.108  0.9533 -0.4438 -1.1780
16301TIP3    H270319   4.918   3.535   1.144 -0.2875 -1.2657  0.3594
16302TIP3   OH270320   2.143   4.374   0.662  0.3688 -0.3968 -0.5938
16302TIP3    H170321   2.212   4.337   0.607  1.5089  0.2145  0.4027
16302TIP3    H270322   2.128   4.307   0.729  0.3687 -0.3141 -0.5107
16303TIP3   OH270323   0.726   3.963  12.064  0.2683  0.8923 -0.4816
16303TIP3    H170324   0.645   3.963  12.114 -0.9799  2.1855 -2.4112
16303TIP3    H270325   0.712   3.898  11.995  2.1015 -1.1398  1.0147
16304TIP3   OH270326   0.366   2.948   1.791 -0.4780 -0.6648 -0.4629
16304TIP3    H170327   0.460   2.932   1.786 -0.2493 -0.0059  1.3197
16304TIP3    H270328   0.353   2.985   1.879 -2.1969  0.5766 -1.2235
16305TIP3   OH270329   1.279   3.600  14.176 -0.1363  0.0760 -0.1219
16305TIP3    H170330   1.293   3.534  14.244  0.8824 -1.6331 -1.9552
16305TIP3    H270331   1.267   3.550  14.095 -2.6336  2.0412 -1.0350
16306TIP3   OH270332   6.469   0.357   2.957  0.5044  0.1068  0.7712
16306TIP3    H170333   6.547   0.325   2.913  1.2601 -0.3320  2.3814
16306TIP3    H270334   6.500   0.387   3.043 -1.0693  0.0519  1.3868
16307TIP3   OH270335   4.932   1.392  16.204  0.2623 -0.0451 -0.0977
16307TIP3    H170336   4.910   1.426  16.291  0.1908  1.5111 -0.7058
16307TIP3    H270337   4.896   1.457  16.143  1.3762 -0.4996 -1.2626
16308TIP3   OH270338   4.807   1.190   1.580  0.2629  0.0757 -0.0320
16308TIP3    H170339   4.748   1.118   1.555 -0.3320  1.4730 -2.8944
16308TIP3    H270340   4.876   1.148   1.631 -1.7179 -2.0327  1.0444
16309TIP3   OH270341   2.281   0.278   5.504  0.1384 -0.3514 -0.1979
16309TIP3    H170342   2.362   0.328   5.509  0.2279 -0.3701 -1.2539
16309TIP3    H270343   2.211   0.343   5.515  0.2832 -0.2864  0.3665
16310TIP3   OH270344   5.533   3.339  14.214  0.1833 -0.0273  0.2344
16310TIP3    H170345   5.478   3.261  14.217  0.0628 -0.0305 -1.6967
16310TIP3    H270346   5.477   3.409  14.248 -1.6067  0.2791 -3.1664
16311TIP3   OH270347   5.827   4.950   5.995  0.0546  0.1132 -0.0575
16311TIP3    H170348   5.750   4.919   6.044 -1.2224  2.0757 -0.7797
16311TIP3    H270349   5.873   5.007   6.056 -0.2571  0.6789 -0.3490
16312TIP3   OH270350   4.308   4.929  15.807  0.5463 -0.1918 -0.2998
16312TIP3    H170351   4.363   4.979  15.746  1.9414 -2.4564 -0.9874
16312TIP3    H270352   4.363   4.920  15.885  1.0063 -2.0534 -0.8103
16313TIP3   OH270353   6.776   0.460  17.096 -0.3927 -0.3056 -0.0516
16313TIP3    H170354   6.743   0.447  17.007 -0.0041  2.4599 -0.6351
16313TIP3    H270355   6.726   0.398  17.149 -0.9165 -1.7041 -2.1185
16314TIP3   OH270356   1.627   2.750  12.378  0.4101  0.5485  0.3573
16314TIP3    H170357   1.561   2.805  12.422  0.0229  2.0622 -2.0563
16314TIP3    H270358   1.603   2.753  12.286  2.7980 -0.4118 -0.3196
16315TIP3   OH270359   0.887   0.171  12.938  0.0289  0.0469  1.0241
16315TIP3    H170360   0.877   0.078  12.919  2.0969  0.0279 -0.0672
16315TIP3    H270361   0.929   0.173  13.024 -0.1858 -0.0256  1.1312
16316TIP3   OH270362   6.732   4.883  13.774 -0.1307  0.4805 -0.5464
16316TIP3    H170363   6.658   4.872  13.713 -0.6001 -1.7324  0.3702
16316TIP3    H270364   6.760   4.793  13.794  1.4809  1.2443  0.7420
16317TIP3   OH270365   2.130   5.775  13.305 -0.0922  0.0270 -0.6073
16317TIP3    H170366   2.081   5.714  13.360 -1.1448  1.2998 -0.0811
16317TIP3    H270367   2.216   5.735  13.293 -0.8339 -1.6383 -0.4525
16318TIP3   OH270368   6.029   4.949   1.408  0.6598  0.0967  0.9493
16318TIP3    H170369   5.959   4.996   1.363  0.4186 -0.0330  1.1881
16318TIP3    H270370   5.998   4.859   1.414  1.3038 -0.1815  0.1212
16319TIP3   OH270371   4.669   4.260  16.945 -0.2480 -0.1360 -0.9467
16319TIP3    H170372   4.750   4.310  16.955  0.3982 -1.2120 -0.6347
16319TIP3    H270373   4.604   4.308  16.996  0.0736  1.0078 -1.6134
16320TIP3   OH270374   6.334   2.128   4.915  0.2924  0.2857 -0.1028
16320TIP3    H170375   6.399   2.153   4.849  0.8022 -1.2865 -0.2175
16320TIP3    H270376   6.260   2.096   4.864 -0.8921  2.7176  0.0080
16321TIP3   OH270377   1.021   0.560  12.855  0.1695  0.2971 -0.3060
16321TIP3    H170378   1.026   0.580  12.948 -2.1430  1.8895 -0.4651
16321TIP3    H270379   1.097   0.604  12.816 -0.0009  1.3696  0.5639
16322TIP3   OH270380   6.631   2.719   1.800 -0.2125  0.4193 -0.3376
16322TIP3    H170381   6.662   2.766   1.722  0.7881  1.5330  0.6988
16322TIP3    H270382   6.706   2.668   1.828 -0.7468 -0.4121 -0.4200
16323TIP3   OH270383   3.326   0.119   1.194  0.2965  0.3816  0.1766
16323TIP3    H170384   3.396   0.178   1.168  0.7733 -0.7953 -1.2784
16323TIP3    H270385   3.338   0.041   1.139 -2.2436  0.2158 -0.2127
16324TIP3   OH270386   6.163   4.025  15.261 -0.0351  0.2017 -0.6822
16324TIP3    H170387   6.091   4.009  15.322  0.7887  1.0023  0.5243
16324TIP3    H270388   6.131   4.095  15.205 -0.4644  0.0841 -0.5843
16325TIP3   OH270389   2.891   0.930   6.310  0.2927 -0.0170 -0.5375
16325TIP3    H170390   2.840   0.887   6.379  2.4248  0.4265  1.3935
16325TIP3    H270391   2.900   0.865   6.241 -1.5718 -0.5988 -0.2622
16326TIP3   OH270392   5.582   2.628   4.144 -0.0040 -0.4585 -0.5821
16326TIP3    H170393   5.524   2.586   4.082 -1.4774 -0.0429  0.4812
16326TIP3    H270394   5.546   2.605   4.230  2.4070 -1.6455  0.1686
16327TIP3   OH270395   4.193   6.500   1.132  0.0002  0.6235  0.5412
16327TIP3    H170396   4.178   6.562   1.060  1.5956  1.4094  0.8601
16327TIP3    H270397   4.234   6.553   1.200 -2.2472  0.0770  2.3883
16328TIP3   OH270398   2.146   6.178  12.084 -0.2594  0.1905  0.5328
16328TIP3    H170399   2.071   6.122  12.064 -0.4541 -0.4713  2.9064
16328TIP3    H270400   2.108   6.257  12.122  0.2352 -0.3210  2.1279
16329TIP3   OH270401   5.878   3.882   2.716 -0.4636 -0.1249 -0.4773
16329TIP3    H170402   5.833   3.901   2.798  0.3366 -0.7860  0.1274
16329TIP3    H270403   5.924   3.963   2.694 -1.5725  0.4071 -0.8617
16330TIP3   OH270404   0.844   3.974  15.391 -0.2418 -0.1253 -0.0456
16330TIP3    H170405   0.828   3.978  15.485  0.6042 -0.4716  0.1095
16330TIP3    H270406   0.780   3.910  15.359 -0.0767 -0.5067  0.3866
16331TIP3   OH270407   6.719   3.025  14.586 -0.3555  0.4541  0.3778
16331TIP3    H170408   6.804   3.016  14.542  0.1408  2.2296  0.9489
16331TIP3    H270409   6.666   3.076  14.525 -0.1723  1.5729  1.1484
16332TIP3   OH270410   0.441   0.224   1.787  0.2103  0.0462 -0.0404
16332TIP3    H170411   0.369   0.283   1.808 -1.8257 -2.1921 -0.4683
16332TIP3    H270412   0.502   0.233   1.860 -2.0092 -0.3007  1.9142
16333TIP3   OH270413   2.077   5.819  15.316  0.0630 -0.0225  0.1477
16333TIP3    H170414   2.171   5.818  15.295 -0.1359  0.1052 -0.7794
16333TIP3    H270415   2.062   5.735  15.360  0.7761  0.3267  1.0667
16334TIP3   OH270416   4.906   6.181  14.667  0.5832  0.3968  0.3281
16334TIP3    H170417   4.980   6.240  14.655 -0.1361  1.0324 -1.0554
16334TIP3    H270418   4.919   6.112  14.603  0.2468  0.2338  0.4305
16335TIP3   OH270419   6.590   3.955  14.354 -0.6836  0.1820 -0.0187
16335TIP3    H170420   6.537   3.890  14.401  0.0245  1.3748  2.4941
16335TIP3    H270421   6.630   3.905  14.283 -1.3813 -1.7907  0.9195
16336TIP3   OH270422   5.471   4.250   5.723 -0.0556  0.2978  0.0030
16336TIP3    H170423   5.459   4.310   5.797 -0.6846 -1.1437  1.1058
16336TIP3    H270424   5.550   4.199   5.745  0.3554  0.5674 -0.8187
16337TIP3   OH270425   1.331   3.614  11.544  0.8654  0.2786 -0.6364
16337TIP3    H170426   1.335   3.562  11.624  2.3728 -0.0182 -0.8931
16337TIP3    H270427   1.252   3.583  11.498  1.3550 -1.2510 -0.4461
16338TIP3   OH270428   1.575   4.525   5.458 -0.5345  0.6421 -0.2140
16338TIP3    H170429   1.576   4.527   5.554  1.7112 -2.2942 -0.0751
16338TIP3    H270430   1.650   4.470   5.435 -0.4003  2.1621 -3.7148
16339TIP3   OH270431   6.194   5.257   0.405 -0.0517 -0.0583  0.4520
16339TIP3    H170432   6.139   5.301   0.340 -0.8799 -0.2708  0.9997
16339TIP3    H270433   6.254   5.325   0.435  0.1070  0.1321 -0.2890
16340TIP3   OH270434   2.494   4.082  12.012 -0.4861  0.0270 -0.7313
16340TIP3    H170435   2.562   4.025  11.976  1.2204  0.3290  1.8515
16340TIP3    H270436   2.449   4.028  12.077  0.0013  1.0742  0.5036
16341TIP3   OH270437   2.443   1.485   2.748 -0.2622  0.4899 -0.4759
16341TIP3    H170438   2.524   1.495   2.698 -0.1945 -0.1131 -0.4844
16341TIP3    H270439   2.450   1.399   2.789 -0.4427  0.8662  0.3527
16342TIP3   OH270440   6.730   2.730  14.514  0.6359 -0.5423 -0.1069
16342TIP3    H170441   6.811   2.703  14.557  1.5377  0.1978 -1.3202
16342TIP3    H270442   6.743   2.708  14.422  0.8933  2.8075 -0.9216
16343TIP3   OH270443   6.439   1.658   1.585  0.2266  0.5401 -0.1513
16343TIP3    H170444   6.349   1.683   1.604 -0.2621 -1.2890 -0.0151
16343TIP3    H270445   6.482   1.658   1.671  0.1740  0.6429 -0.1242
16344TIP3   OH270446   6.030   3.754  14.337  0.1590 -0.2673 -0.8349
16344TIP3    H170447   5.966   3.791  14.399 -0.0334 -2.0341  0.0490
16344TIP3    H270448   6.093   3.825  14.323 -1.0981  0.9461 -0.4366
16345TIP3   OH270449   5.088   0.712   3.036 -0.2545 -0.1222  0.3354
16345TIP3    H170450   5.137   0.774   3.090 -0.4636 -0.1199  0.5201
16345TIP3    H270451   5.023   0.673   3.095 -1.5504  1.0578 -0.2776
16346TIP3   OH270452   5.044   1.964  12.742 -0.3696 -0.1950 -0.2800
16346TIP3    H170453   5.033   1.897  12.675  0.6663  0.2710 -0.9275
16346TIP3    H270454   5.100   1.923  12.808  1.3204  0.4573 -1.2941
16347TIP3   OH270455   2.525   0.626   0.090  0.5355 -0.2639  0.5583
16347TIP3    H170456   2.575   0.587   0.019 -0.1041 -0.5608  0.2670
16347TIP3    H270457   2.521   0.719   0.068  0.5137 -0.3230  0.3091
16348TIP3   OH270458   5.513   3.603  12.267 -0.5165 -0.0072  0.2181
16348TIP3    H170459   5.516   3.601  12.171 -0.9786 -0.2846  0.2077
16348TIP3    H270460   5.551   3.519  12.294 -3.9060 -1.6528  0.1858
16349TIP3   OH270461   3.802   4.497  17.078 -0.4714 -0.4862 -0.5726
16349TIP3    H170462   3.738   4.485  17.149  0.2967 -1.9201 -0.0879
16349TIP3    H270463   3.886   4.502  17.123  0.1883 -2.9303 -1.4246
16350TIP3   OH270464   6.266   3.544  15.607 -0.3543  0.1276  0.0684
16350TIP3    H170465   6.317   3.619  15.636  0.3765 -0.8494  1.3412
16350TIP3    H270466   6.311   3.513  15.529 -0.6270  0.9732 -0.4301
16351TIP3   OH270467   0.517   6.456  11.833 -0.7262 -0.2822 -0.3510
16351TIP3    H170468   0.451   6.396  11.869 -1.4033 -0.0383 -1.1857
16351TIP3    H270469   0.552   6.501  11.909 -1.8554 -0.0780  0.0595
16352TIP3   OH270470   2.996   4.586   5.484 -0.4623  0.6701  0.2690
16352TIP3    H170471   3.080   4.562   5.523  0.2465  2.8633  0.1871
16352TIP3    H270472   3.015   4.599   5.391 -1.2145 -0.2548 -0.0236
16353TIP3   OH270473   3.328   5.835  12.688 -0.0887  0.7075  0.1874
16353TIP3    H170474   3.314   5.790  12.605  0.2136  0.5824  0.2030
16353TIP3    H270475   3.284   5.919  12.677  0.0211  0.7272 -0.1340
16354TIP3   OH270476   4.739   6.615   5.786  0.1411  0.6007 -0.1573
16354TIP3    H170477   4.644   6.621   5.777  0.1547  0.5945 -0.3144
16354TIP3    H270478   4.753   6.557   5.861  0.0250 -0.1223 -0.6854
16355TIP3   OH270479   5.502   5.420  11.776  0.4520 -0.0031 -0.3827
16355TIP3    H170480   5.524   5.440  11.685 -0.2970 -0.5874 -0.6995
16355TIP3    H270481   5.580   5.445  11.825  0.6532  0.8521 -1.1160
16356TIP3   OH270482   0.382   6.654   0.390  0.0752 -0.2608 -0.1377
16356TIP3    H170483   0.417   6.618   0.471 -0.4693  1.0020  0.6764
16356TIP3    H270484   0.458   6.658   0.331  0.4717 -1.1900  0.3035
16357TIP3   OH270485   1.288   2.830  11.335 -0.1177 -0.4040 -0.0420
16357TIP3    H170486   1.306   2.840  11.428  0.2257 -1.2382 -0.0172
16357TIP3    H270487   1.283   2.920  11.302  0.4080 -0.1100  0.6569
16358TIP3   OH270488   6.006   0.336  15.569  0.2113 -0.4429 -0.6200
16358TIP3    H170489   6.000   0.400  15.640  1.1343  1.2381 -2.0190
16358TIP3    H270490   5.916   0.331  15.534 -0.3134 -1.5099  0.8296
16359TIP3   OH270491   5.984   6.669  14.885  0.1202 -0.4517  0.2328
16359TIP3    H170492   5.973   6.664  14.980 -1.6689  2.2049  0.2285
16359TIP3    H270493   6.048   6.738  14.871  0.4017 -0.8531 -0.4906
16360TIP3   OH270494   4.140   5.509  12.003  0.3493  0.2846 -0.0520
16360TIP3    H170495   4.163   5.416  11.997  0.1539  0.2942 -1.0861
16360TIP3    H270496   4.072   5.512  12.071  2.4449  0.0948  2.1189
16361TIP3   OH270497   3.806   5.762   4.498  0.4325 -0.0374  0.0507
16361TIP3    H170498   3.718   5.766   4.536  0.2683  0.0254 -0.3295
16361TIP3    H270499   3.861   5.727   4.568 -0.0877 -1.0749 -0.0505
16362TIP3   OH270500   4.937   0.885  14.462 -0.2581 -0.3582  0.2768
16362TIP3    H170501   4.962   0.799  14.498  0.1520 -1.0364 -1.5811
16362TIP3    H270502   4.998   0.899  14.390 -0.7858  1.1925  0.1248
16363TIP3   OH270503   4.724   4.020  16.611 -0.0040  0.0306 -0.6098
16363TIP3    H170504   4.814   3.987  16.618 -0.1944 -0.3914 -0.1079
16363TIP3    H270505   4.673   3.944  16.580 -0.4592 -0.1767  0.6266
16364TIP3   OH270506   5.353   0.895  15.361 -0.1612 -0.1585  0.1913
16364TIP3    H170507   5.283   0.936  15.412  0.0286 -1.4862  1.5890
16364TIP3    H270508   5.406   0.968  15.330 -1.0719  0.7637  0.7657
16365TIP3   OH270509   4.644   0.696   2.297 -0.0101  0.0010 -0.0991
16365TIP3    H170510   4.580   0.694   2.226  0.1877  2.1476 -0.3889
16365TIP3    H270511   4.684   0.783   2.290  4.1296 -1.8710 -0.9508
16366TIP3   OH270512   6.213   5.047  12.583 -0.1141  0.3515  0.2276
16366TIP3    H170513   6.215   4.964  12.631  0.7645 -0.9843 -2.0211
16366TIP3    H270514   6.129   5.046  12.537 -0.1385  0.7311  0.2685
16367TIP3   OH270515   3.429   0.880   5.041  0.0351  0.1480 -0.7987
16367TIP3    H170516   3.455   0.880   4.949 -0.5707  0.3229 -0.9701
16367TIP3    H270517   3.511   0.868   5.089  0.4972  1.1615 -1.3186
16368TIP3   OH270518   1.007   1.614  16.067 -0.2920  0.3005  0.1108
16368TIP3    H170519   0.954   1.592  16.143 -1.1727  0.7213 -0.3747
16368TIP3    H270520   0.984   1.549  16.001 -0.0341  0.3415 -0.0222
16369TIP3   OH270521   1.172   3.312   6.687 -0.1693  0.6291 -0.1204
16369TIP3    H170522   1.165   3.397   6.731  0.4944  0.7176 -0.1886
16369TIP3    H270523   1.086   3.299   6.647  0.0639  1.7707 -1.0321
16370TIP3   OH270524   0.145   4.267   5.184 -0.3306  0.0205  0.2308
16370TIP3    H170525   0.166   4.196   5.124  0.8246  0.9740 -0.5390
16370TIP3    H270526   0.093   4.227   5.253  0.1410 -1.5204 -0.2998
16371TIP3   OH270527   5.748   0.971  16.577  0.3403  0.1680  0.8141
16371TIP3    H170528   5.823   0.948  16.631  0.0736 -2.7454  0.0273
16371TIP3    H270529   5.679   0.910  16.604 -0.4349  0.0238 -1.3442
16372TIP3   OH270530   6.190   0.701   1.970 -0.6113  0.3096 -0.1705
16372TIP3    H170531   6.107   0.656   1.951 -0.4329  0.4870 -1.4090
16372TIP3    H270532   6.164   0.788   1.998 -0.8230  0.5994 -1.2526
16373TIP3   OH270533   6.138   0.744  14.715 -0.1671  0.2790  0.0743
16373TIP3    H170534   6.209   0.684  14.694  0.1126  0.3535  0.7815
16373TIP3    H270535   6.176   0.806  14.777 -0.6970  0.6483  0.0353
16374TIP3   OH270536   3.052   4.607  13.506 -0.1232  0.0563 -0.3691
16374TIP3    H170537   3.043   4.634  13.598 -1.9184  0.2700 -0.5902
16374TIP3    H270538   3.145   4.616  13.488 -0.1304  2.7857  0.6231
16375TIP3   OH270539   0.593   0.063  15.529  0.4267  0.0639 -0.2358
16375TIP3    H170540   0.621   0.024  15.612  1.1619  1.3827  0.1416
16375TIP3    H270541   0.576   0.155  15.549 -0.0402  0.2425 -1.4026
16376TIP3   OH270542   3.584   0.794   4.824  0.3759 -0.1360 -0.0633
16376TIP3    H170543   3.610   0.810   4.733  0.7159 -0.8538 -0.0911
16376TIP3    H270544   3.666   0.787   4.872  0.2118 -0.5497  0.1625
16377TIP3   OH270545   3.885   5.475   3.195  0.3587  0.3132 -0.5932
16377TIP3    H170546   3.947   5.449   3.128  0.0387 -0.1887 -0.6974
16377TIP3    H270547   3.887   5.571   3.194  1.2406  0.3002 -0.4815
16378TIP3   OH270548   3.798   3.700   5.875  0.5663  0.7814  0.3585
16378TIP3    H170549   3.806   3.637   5.803  2.4760  0.6037  0.6989
16378TIP3    H270550   3.796   3.647   5.954 -0.9761  1.0073  0.4871
16379TIP3   OH270551   2.114   2.043  13.176  0.3281 -0.1240 -0.3312
16379TIP3    H170552   2.105   1.950  13.157 -1.5932  0.1168 -0.7537
16379TIP3    H270553   2.064   2.056  13.257  1.5431  0.3412  0.3595
16380TIP3   OH270554   1.420   2.000  16.923 -0.2513 -0.2315 -0.0297
16380TIP3    H170555   1.375   2.075  16.962 -0.0960 -0.6938  1.0449
16380TIP3    H270556   1.381   1.923  16.965 -2.1837 -0.9394 -2.9047
16381TIP3   OH270557   0.140   3.108   4.866 -0.2264 -0.2915  0.4215
16381TIP3    H170558   0.194   3.044   4.819  0.3489 -1.6843  2.8780
16381TIP3    H270559   0.193   3.132   4.942 -1.4938  1.2403  0.8313
16382TIP3   OH270560   1.597   1.061  11.469  0.8051  0.5407 -0.2513
16382TIP3    H170561   1.546   1.000  11.521 -0.3261  0.5320 -1.3399
16382TIP3    H270562   1.590   1.145  11.515  2.4825 -0.1548  1.3195
16383TIP3   OH270563   0.661   1.802   0.671 -0.2750 -0.0224 -0.6395
16383TIP3    H170564   0.607   1.858   0.727  0.2204  0.0965 -0.2700
16383TIP3    H270565   0.744   1.848   0.664 -0.1587 -0.2911 -1.0517
16384TIP3   OH270566   1.218   4.041  13.329  0.4809 -0.3409 -0.1661
16384TIP3    H170567   1.260   4.087  13.256 -0.2247 -0.3637 -0.5893
16384TIP3    H270568   1.267   4.070  13.406  0.4789  0.5904 -0.5081
16385TIP3   OH270569   5.630   0.986   3.384 -0.2731  0.9136  0.2599
16385TIP3    H170570   5.673   0.954   3.305  0.3772  1.3779  0.4257
16385TIP3    H270571   5.696   1.041   3.427  0.0616 -0.8767  2.1075
16386TIP3   OH270572   3.097   1.564   0.177 -0.1854  0.4443 -0.4070
16386TIP3    H170573   3.017   1.596   0.137  0.4316  0.9115 -1.2870
16386TIP3    H270574   3.104   1.614   0.259 -1.7184 -0.8954  0.5540
16387TIP3   OH270575   4.607   0.788  15.512  0.4740 -0.4427  0.0609
16387TIP3    H170576   4.555   0.784  15.432  0.5022 -0.6241  0.0517
16387TIP3    H270577   4.561   0.852  15.567 -0.2245 -1.2233  0.3921
16388TIP3   OH270578   2.012   5.074   3.409 -0.2053  0.4577  0.5911
16388TIP3    H170579   1.975   5.062   3.321 -0.5254  1.1140  0.6400
16388TIP3    H270580   2.107   5.083   3.394 -0.1714 -0.1952  0.3822
16389TIP3   OH270581   0.913   4.050   6.081  0.4311 -0.5436  0.2319
16389TIP3    H170582   0.942   3.993   6.152  0.3906  0.0908  0.7580
16389TIP3    H270583   0.820   4.029   6.071  0.6425 -1.2803 -0.2461
16390TIP3   OH270584   0.265   3.748   2.635 -0.0920  0.2051  0.0603
16390TIP3    H170585   0.211   3.823   2.609 -0.0252  0.1299 -0.2881
16390TIP3    H270586   0.254   3.684   2.565  0.0827  0.0020  0.2153
16391TIP3   OH270587   0.294   5.676   3.090 -0.6906 -0.7038  0.8624
16391TIP3    H170588   0.264   5.587   3.106 -0.6861 -0.6660  1.0886
16391TIP3    H270589   0.328   5.705   3.174  1.2049 -1.2079  0.2763
16392TIP3   OH270590   1.088   1.539  11.790 -0.6515  0.0858 -0.2971
16392TIP3    H170591   1.061   1.588  11.712  0.2271  0.1269 -0.5835
16392TIP3    H270592   1.024   1.469  11.798 -1.6433  0.9953 -0.1648
16393TIP3   OH270593   1.220   4.851  15.194 -0.9092  0.2745  0.2175
16393TIP3    H170594   1.216   4.773  15.250 -0.0102 -1.2931 -1.8122
16393TIP3    H270595   1.136   4.895  15.207 -1.7758 -1.4990  0.7514
16394TIP3   OH270596   4.069   4.972  12.055 -0.0019 -0.6918 -0.0839
16394TIP3    H170597   4.025   5.041  12.005  1.2343  0.1709  0.0042
16394TIP3    H270598   4.157   4.968  12.019  0.9068 -0.0648  1.9771
16395TIP3   OH270599   6.585   1.990   3.141  0.0525 -0.1218  0.4364
16395TIP3    H170600   6.656   1.927   3.154 -0.0623 -0.2365  0.5048
16395TIP3    H270601   6.575   1.994   3.046  1.5892  1.4938  0.3203
16396TIP3   OH270602   5.736   2.602   1.606 -0.3504 -0.2233 -0.3169
16396TIP3    H170603   5.831   2.603   1.604 -0.3382 -0.7011  0.0154
16396TIP3    H270604   5.711   2.690   1.578  0.1916  0.0071 -0.0913
16397TIP3   OH270605   6.379   2.624  16.635  0.3872  0.1853 -0.2527
16397TIP3    H170606   6.370   2.530  16.619 -0.6568 -0.1791  2.2710
16397TIP3    H270607   6.295   2.662  16.607  0.0244  0.0806  0.6939
16398TIP3   OH270608   2.120   3.285  11.363  0.1035  0.2299  0.0663
16398TIP3    H170609   2.038   3.296  11.316  0.6322  1.0915 -0.6842
16398TIP3    H270610   2.150   3.197  11.338  0.5915  0.8349 -1.5780
16399TIP3   OH270611   3.417   4.947  15.863  0.3032 -0.3520  0.0486
16399TIP3    H170612   3.425   4.883  15.793  1.4888 -1.2656  1.0041
16399TIP3    H270613   3.497   4.999  15.858  0.4627 -0.5206  0.8364
16400TIP3   OH270614   1.003   6.653  14.976 -0.6372  0.2999 -0.5491
16400TIP3    H170615   0.996   6.615  15.063 -0.7282 -0.9742 -1.0911
16400TIP3    H270616   1.058   6.730  14.987 -1.1785  0.5121  0.7398
16401TIP3   OH270617   6.696   2.798  14.016 -0.8108 -0.4605 -0.5892
16401TIP3    H170618   6.776   2.746  14.007 -0.8490 -0.1933 -2.6688
16401TIP3    H270619   6.706   2.841  14.101  1.4098 -0.1820 -0.9463
16402TIP3   OH270620   5.153   3.853  14.882  0.1597  0.0667 -0.0131
16402TIP3    H170621   5.162   3.814  14.969 -3.4219  2.1406  1.3864
16402TIP3    H270622   5.188   3.942  14.891 -1.0850  0.6072 -0.4523
16403TIP3   OH270623   0.201   2.378  14.497 -0.5001  0.2356 -0.3854
16403TIP3    H170624   0.256   2.337  14.430 -0.3790  2.0445 -1.4021
16403TIP3    H270625   0.131   2.420  14.447  0.1430  2.4464  0.5505
16404TIP3   OH270626   4.744   1.538  12.315  0.2946 -0.0308 -0.0742
16404TIP3    H170627   4.733   1.587  12.397  0.0380 -1.4271  0.7498
16404TIP3    H270628   4.656   1.505  12.295  0.6729 -1.1078  0.0120
16405TIP3   OH270629   5.409   0.001  12.858 -0.1783 -0.5719 -0.4165
16405TIP3    H170630   5.494  -0.039  12.876 -0.9346 -1.0050  2.4482
16405TIP3    H270631   5.348  -0.073  12.856 -0.8126 -0.0561 -0.2485
16406TIP3   OH270632   3.479   2.804  16.249 -0.6363  0.6885 -0.8981
16406TIP3    H170633   3.515   2.865  16.185  0.6815  0.6449 -0.2094
16406TIP3    H270634   3.515   2.719  16.224  0.0027  0.6971 -0.0173
16407TIP3   OH270635   2.024   4.338  14.731  0.1112  0.4420  0.0545
16407TIP3    H170636   2.069   4.396  14.669  1.9087 -0.5131  0.4479
16407TIP3    H270637   2.033   4.251  14.694  0.2381 -0.0010  1.1191
16408TIP3   OH270638   2.029   0.389  14.991 -0.6735 -0.0462  0.0053
16408TIP3    H170639   2.100   0.448  14.969  0.2619 -0.8958  0.6701
16408TIP3    H270640   2.029   0.324  14.921  0.4833 -1.1501  0.9989
16409TIP3   OH270641   4.779   4.698  13.750 -0.2912  0.3922  0.3161
16409TIP3    H170642   4.779   4.631  13.682 -1.5816 -0.8318  1.4629
16409TIP3    H270643   4.863   4.687  13.795 -0.5460 -0.5768  0.5771
16410TIP3   OH270644   2.372   4.540   3.668 -0.1724  0.4424  0.2877
16410TIP3    H170645   2.388   4.592   3.748  0.7607 -1.6526  1.4987
16410TIP3    H270646   2.278   4.520   3.672 -0.2746  0.9305  0.4893
16411TIP3   OH270647   6.115   6.711  11.349 -0.0081  0.1670 -0.3132
16411TIP3    H170648   6.147   6.801  11.350 -1.8753  0.8847 -1.3830
16411TIP3    H270649   6.045   6.710  11.416  1.8843 -1.2537  1.7133
16412TIP3   OH270650   6.682   4.128   2.121  0.3891  0.0703  0.7418
16412TIP3    H170651   6.730   4.189   2.177  0.6081 -0.2470  0.8993
16412TIP3    H270652   6.746   4.097   2.057 -0.8311  3.6516 -2.3843
16413TIP3   OH270653   4.941   1.232  16.667 -0.3724 -0.0729  0.1972
16413TIP3    H170654   4.847   1.220  16.655 -0.0939 -0.4768 -1.6502
16413TIP3    H270655   4.980   1.150  16.639  0.4561 -0.4695  2.4085
16414TIP3   OH270656   4.514   0.289  11.464 -0.4128  0.9053  0.0001
16414TIP3    H170657   4.498   0.351  11.393 -0.0174 -0.4239 -1.2842
16414TIP3    H270658   4.446   0.223  11.454 -0.0378  0.4310  0.5345
16415TIP3   OH270659   4.314   6.147  17.176  0.3370  0.3059  0.0112
16415TIP3    H170660   4.327   6.232  17.135  0.5714 -0.7604 -2.1860
16415TIP3    H270661   4.299   6.087  17.103 -1.0404 -1.3238  1.5989
16416TIP3   OH270662   6.102   5.367  13.006  0.2802 -0.0816  0.0511
16416TIP3    H170663   6.082   5.460  12.992 -0.3360 -0.4890 -1.8035
16416TIP3    H270664   6.048   5.343  13.081 -1.5724  0.3999 -1.0907
16417TIP3   OH270665   3.907   4.677  13.124 -0.1243 -0.2826  0.0181
16417TIP3    H170666   3.941   4.620  13.055 -0.1474 -0.6986  0.3479
16417TIP3    H270667   3.818   4.644  13.140  0.2055 -0.7459  0.8671
16418TIP3   OH270668   6.236   1.721   4.167  0.7830  0.3597 -0.2626
16418TIP3    H170669   6.147   1.751   4.185  0.4333 -1.1983  0.7358
16418TIP3    H270670   6.224   1.643   4.113  1.6371  1.3932 -1.9996
16419TIP3   OH270671   3.624   0.416  16.663  0.6022 -0.2957 -0.3142
16419TIP3    H170672   3.531   0.405  16.681  0.3746  0.3845 -1.0332
16419TIP3    H270673   3.665   0.425  16.749 -0.0615 -0.0866 -0.0194
16420TIP3   OH270674   3.962   0.448   4.533  0.2916 -0.3484 -0.4524
16420TIP3    H170675   4.048   0.455   4.492 -0.3807  0.7609 -1.7312
16420TIP3    H270676   3.901   0.476   4.464 -1.1579 -2.0117  0.1430
16421TIP3   OH270677   4.717   4.792   4.406  0.1086  0.4602 -0.0508
16421TIP3    H170678   4.738   4.717   4.350  1.3389 -0.2307  1.2886
16421TIP3    H270679   4.634   4.768   4.448 -0.9298  1.0812 -1.7411
16422TIP3   OH270680   0.797   3.324   5.972  0.7059  0.4341 -0.5121
16422TIP3    H170681   0.737   3.331   6.047  1.7153  0.1104  0.3268
16422TIP3    H270682   0.817   3.231   5.966  2.3545  0.7386  0.1761
16423TIP3   OH270683   1.565   1.531  14.715  0.3941  1.0092 -0.1453
16423TIP3    H170684   1.519   1.451  14.741  0.0115  0.9765 -0.8947
16423TIP3    H270685   1.597   1.568  14.797  0.5171  0.1261  0.2122
16424TIP3   OH270686   1.537   6.168  14.061  0.0639  0.2950 -0.5546
16424TIP3    H170687   1.548   6.112  13.984  0.9990  0.8109 -0.8050
16424TIP3    H270688   1.461   6.132  14.106  1.9513 -2.6265  0.5167
16425TIP3   OH270689   2.427   6.495  11.635 -0.3058 -0.3074 -0.4511
16425TIP3    H170690   2.348   6.442  11.649 -2.4471  3.1005  0.9968
16425TIP3    H270691   2.415   6.535  11.549  0.2847 -0.4904 -0.6231
16426TIP3   OH270692   1.319   1.876   4.041  0.2723 -0.2391 -0.1491
16426TIP3    H170693   1.285   1.833   3.963 -0.0836 -2.7731  1.3422
16426TIP3    H270694   1.241   1.908   4.086  0.2364 -1.4356  0.6556
16427TIP3   OH270695   1.310   2.621   4.060 -0.6181  0.2126  0.1753
16427TIP3    H170696   1.304   2.640   4.154 -1.8336 -1.6141  0.4922
16427TIP3    H270697   1.380   2.556   4.053  0.3740  1.3323 -0.3448
16428TIP3   OH270698   3.753   0.074   0.202 -0.6977 -0.5194 -0.5247
16428TIP3    H170699   3.740   0.110   0.114 -0.6269  0.3204 -0.1964
16428TIP3    H270700   3.830   0.120   0.235 -0.3408 -1.3048 -0.2654
16429TIP3   OH270701   6.763   4.688   5.505 -0.1899  0.5343  0.3288
16429TIP3    H170702   6.804   4.604   5.486  0.5070  0.4220  2.2011
16429TIP3    H270703   6.669   4.673   5.493  0.2521  0.7589 -3.8669
16430TIP3   OH270704   1.093   1.840  10.298  0.0291 -0.3610  0.7764
16430TIP3    H170705   1.089   1.916  10.239  1.5562 -2.6181 -2.4112
16430TIP3    H270706   1.004   1.830  10.331 -0.9306  0.8615 -1.3475
16431TIP3   OH270707   5.845   4.499   3.311  0.2662 -0.2682 -0.0181
16431TIP3    H170708   5.864   4.408   3.291 -1.2298 -0.2273 -1.7367
16431TIP3    H270709   5.757   4.498   3.350  0.3889  0.4006  0.2923
16432TIP3   OH270710   4.102   1.541   5.011  0.4874  0.1498  0.2474
16432TIP3    H170711   4.110   1.590   4.930  0.5740 -1.4276 -0.7185
16432TIP3    H270712   4.132   1.601   5.079 -0.5678  1.8394 -0.7554
16433TIP3   OH270713   0.750   4.336   5.502 -0.1859 -0.4323 -1.1184
16433TIP3    H170714   0.720   4.427   5.494 -0.3641 -0.4061 -0.2100
16433TIP3    H270715   0.839   4.344   5.535 -1.4341 -0.6522  2.4681
16434TIP3   OH270716   2.813   0.909  16.134  0.2772 -0.4926 -0.5702
16434TIP3    H170717   2.838   0.924  16.043  3.0438 -0.5493  0.1384
16434TIP3    H270718   2.837   0.817  16.151  1.5202  0.0588  0.7375
16435TIP3   OH270719   2.838   5.075   4.913 -0.2869  0.2931 -0.3882
16435TIP3    H170720   2.771   5.025   4.960  1.2948  0.2644  1.9426
16435TIP3    H270721   2.788   5.140   4.863 -2.2206 -2.0264 -1.5488
16436TIP3   OH270722   4.997   0.148   3.245  0.4123  0.1209 -0.0073
16436TIP3    H170723   5.040   0.113   3.323 -0.4767 -0.0952  0.3978
16436TIP3    H270724   4.914   0.182   3.277 -0.5941 -1.2545 -1.0623
16437TIP3   OH270725   2.429   5.673  13.817 -0.0135 -0.0512  0.0843
16437TIP3    H170726   2.375   5.752  13.816 -1.3085 -0.9298  0.4756
16437TIP3    H270727   2.419   5.636  13.729  0.8672  0.3905 -0.2098
16438TIP3   OH270728   3.644   2.436   5.134 -0.4592 -0.1741 -0.3742
16438TIP3    H170729   3.685   2.482   5.061 -1.6761  3.8871  1.3565
16438TIP3    H270730   3.713   2.430   5.201  0.2599 -2.6825 -1.2990
16439TIP3   OH270731   3.468   4.169  12.254 -0.2111  0.0240 -0.6568
16439TIP3    H170732   3.376   4.146  12.240 -0.7769  1.9519 -0.2854
16439TIP3    H270733   3.485   4.240  12.192  0.5818  0.7159  0.3311
16440TIP3   OH270734   2.602   0.231  13.596 -0.6317  0.0807 -0.1087
16440TIP3    H170735   2.641   0.144  13.592  0.0202  0.3154  0.9599
16440TIP3    H270736   2.539   0.225  13.668  0.4673  0.8995  0.9433
16441TIP3   OH270737   5.752   4.902   0.579 -0.0716 -0.1843  0.2957
16441TIP3    H170738   5.792   4.849   0.648  0.7816 -0.0813 -0.1202
16441TIP3    H270739   5.667   4.928   0.615 -0.5381 -1.8901  0.4797
16442TIP3   OH270740   0.510   0.881   0.785 -0.4621  0.0993 -0.3400
16442TIP3    H170741   0.522   0.964   0.832 -0.2607 -1.3468  2.2540
16442TIP3    H270742   0.525   0.814   0.851 -2.0328 -2.0170 -2.0638
16443TIP3   OH270743   2.581   5.252   1.676  0.3517 -0.0981 -0.1565
16443TIP3    H170744   2.637   5.300   1.737  0.3605 -0.3935  0.0661
16443TIP3    H270745   2.525   5.198   1.731 -0.3259  0.3772 -0.3728
16444TIP3   OH270746   0.162   6.677  17.165  0.4284  0.5020 -0.0019
16444TIP3    H170747   0.170   6.757  17.113 -0.4280  0.8852  0.4513
16444TIP3    H270748   0.232   6.683  17.230  1.3198  0.1612 -0.9115
16445TIP3   OH270749   0.883   4.765  11.175 -0.2105  0.2909  0.1307
16445TIP3    H170750   0.857   4.837  11.118  0.4024  1.3112  1.1138
16445TIP3    H270751   0.910   4.696  11.114 -2.9875  0.0225 -0.8501
16446TIP3   OH270752   3.484   3.179  15.478  0.4352 -0.6138  0.1918
16446TIP3    H170753   3.447   3.232  15.549  0.5973 -0.6414  0.2978
16446TIP3    H270754   3.503   3.095  15.518 -0.7941 -1.0969 -0.2343
16447TIP3   OH270755   4.511   0.495   1.084  0.2836 -0.2411 -0.4976
16447TIP3    H170756   4.512   0.400   1.098 -5.1256 -0.3348  0.1175
16447TIP3    H270757   4.486   0.505   0.993 -0.5366  0.6168 -0.1790
16448TIP3   OH270758   6.492   6.038   4.159  0.0408  0.4503 -0.3040
16448TIP3    H170759   6.586   6.054   4.172 -0.2790  0.3648  2.3593
16448TIP3    H270760   6.474   6.072   4.071  2.2155  2.0867 -0.1553
16449TIP3   OH270761   0.052   1.377  17.065  0.5082 -0.3801  0.0170
16449TIP3    H170762   0.134   1.335  17.040  0.3567 -0.1146 -0.9464
16449TIP3    H270763   0.049   1.457  17.013 -0.5870 -0.6122 -0.2959
16450TIP3   OH270764   2.131   2.474  14.441 -0.2932 -0.0272 -0.6607
16450TIP3    H170765   2.220   2.440  14.430 -0.4652 -0.1458 -1.7195
16450TIP3    H270766   2.115   2.468  14.535  0.5635 -0.6428 -0.5462
16451TIP3   OH270767   3.354   5.025   1.706  0.1810 -0.2897 -0.0811
16451TIP3    H170768   3.369   5.006   1.613 -1.1025  1.3874 -0.6566
16451TIP3    H270769   3.315   4.944   1.740 -1.0555 -0.3054 -1.4559
16452TIP3   OH270770   2.996   2.476   2.731 -0.2292 -0.5929 -0.0567
16452TIP3    H170771   3.077   2.526   2.744 -0.9091  0.5244 -0.1083
16452TIP3    H270772   3.026   2.386   2.717  1.0750  0.0381 -1.4249
16453TIP3   OH270773   0.933   1.097  17.050  0.3945 -0.3837 -0.4525
16453TIP3    H170774   0.960   1.048  17.128  2.7121 -0.8905 -1.5184
16453TIP3    H270775   0.855   1.051  17.019 -1.0147  0.2925  1.9735
16454TIP3   OH270776   1.771   4.166  16.169  0.3037  0.4748 -0.4187
16454TIP3    H170777   1.710   4.103  16.131  1.0336 -0.2432 -0.4307
16454TIP3    H270778   1.744   4.174  16.260  2.3228 -2.5706  0.5323
16455TIP3   OH270779   0.163   1.419  12.655  0.2790  0.2243 -0.0224
16455TIP3    H170780   0.244   1.424  12.605  1.2060 -0.6481  1.3740
16455TIP3    H270781   0.186   1.451  12.742 -0.6310 -0.9302  0.6615
16456TIP3   OH270782   4.375   4.692   3.522 -0.2847  0.3974  0.0433
16456TIP3    H170783   4.439   4.640   3.473 -1.1912 -0.4274 -0.3021
16456TIP3    H270784   4.409   4.696   3.611  1.3711  1.8864 -0.6430
16457TIP3   OH270785   3.693   4.478   4.145 -0.4565  0.1572 -0.0542
16457TIP3    H170786   3.600   4.491   4.128 -0.0620  0.6103 -1.9805
16457TIP3    H270787   3.704   4.383   4.149 -1.0762  0.1146  0.6364
16458TIP3   OH270788   0.164   5.824   2.525  0.5949  0.2372 -0.1888
16458TIP3    H170789   0.096   5.890   2.513 -1.0099 -1.1930  0.8452
16458TIP3    H270790   0.246   5.875   2.530 -0.5445  2.1002  0.1061
16459TIP3   OH270791   3.254   0.425  11.191  0.0021 -0.2566  0.1815
16459TIP3    H170792   3.284   0.339  11.223 -0.4005 -0.3288  0.3727
16459TIP3    H270793   3.161   0.412  11.171  0.7912 -0.9326 -3.5001
16460TIP3   OH270794   2.398   3.172   1.310 -0.3992 -0.3244  0.0979
16460TIP3    H170795   2.438   3.089   1.335  0.2675 -0.6163 -1.8381
16460TIP3    H270796   2.470   3.224   1.277 -1.3033 -0.1379 -1.6221
16461TIP3   OH270797   1.685   6.441   0.228  0.6428 -0.2024 -0.4062
16461TIP3    H170798   1.708   6.433   0.136  1.6799  0.7724 -0.2366
16461TIP3    H270799   1.595   6.408   0.233  1.1590 -1.8327 -1.4661
16462TIP3   OH270800   3.627   3.433  12.379 -0.0223  0.3754  0.3929
16462TIP3    H170801   3.628   3.506  12.316  0.2877 -0.1460 -0.2168
16462TIP3    H270802   3.719   3.419  12.401 -0.0607  0.0363  0.3472
16463TIP3   OH270803   6.201   5.512  13.290  0.1388 -0.2570 -0.4793
16463TIP3    H170804   6.262   5.453  13.334  0.6702  1.1862  0.7921
16463TIP3    H270805   6.117   5.467  13.293  0.2064 -0.3009  1.8576
16464TIP3   OH270806   2.782   2.220   1.104 -0.5502  0.2221  0.4303
16464TIP3    H170807   2.851   2.265   1.154 -0.7857 -0.2914  1.2355
16464TIP3    H270808   2.786   2.130   1.135  0.0147 -0.3626 -1.2843
16465TIP3   OH270809   4.669   5.142  12.551  0.1851  0.0506  0.3104
16465TIP3    H170810   4.708   5.153  12.464 -1.6345  0.4671 -0.4694
16465TIP3    H270811   4.601   5.210  12.556  0.5676  0.3316  2.2447
16466TIP3   OH270812   3.087   5.902  15.230 -0.7494  0.1841  0.3194
16466TIP3    H170813   3.094   5.952  15.312 -0.0005 -1.6178  1.3729
16466TIP3    H270814   3.075   5.969  15.163 -1.4825  1.6915  1.9084
16467TIP3   OH270815   0.249   4.558  13.095  0.6118  0.2840  0.1789
16467TIP3    H170816   0.235   4.463  13.090  0.2514  0.3979 -1.5147
16467TIP3    H270817   0.320   4.569  13.158  2.1222 -1.2872 -1.1722
16468TIP3   OH270818   5.808   2.338   1.988  0.5425 -0.4144  0.3268
16468TIP3    H170819   5.791   2.349   1.895  1.8350  2.5196  0.3998
16468TIP3    H270820   5.890   2.288   1.991  0.9327  0.1864 -0.1344
16469TIP3   OH270821   5.100   2.607  12.243  0.3234  0.2745  0.1537
16469TIP3    H170822   5.011   2.635  12.222  0.7924  0.2307 -2.0275
16469TIP3    H270823   5.101   2.513  12.225  1.3901  0.6729 -2.0270
16470TIP3   OH270824   4.598   3.321   1.232 -0.1748 -0.3570  0.1977
16470TIP3    H170825   4.630   3.264   1.162 -0.0559 -0.6227  0.4708
16470TIP3    H270826   4.596   3.265   1.310 -0.0728  0.0063  0.4611
16471TIP3   OH270827   0.318   4.122   6.026 -0.2266  0.5951  0.1063
16471TIP3    H170828   0.395   4.145   6.078  0.3361  0.7390 -0.7678
16471TIP3    H270829   0.302   4.030   6.046  0.0478  0.6260  0.4653
16472TIP3   OH270830   2.956   0.355  16.360  0.1220  1.0224 -0.3057
16472TIP3    H170831   2.862   0.370  16.350 -0.1479 -0.2733  0.0751
16472TIP3    H270832   2.971   0.361  16.455  0.0910 -0.4887 -0.1884
16473TIP3   OH270833   4.792   1.960  11.708 -0.3317  0.1243  0.3451
16473TIP3    H170834   4.810   2.037  11.655 -0.2769 -0.1337 -0.0149
16473TIP3    H270835   4.724   1.912  11.660  0.6351 -0.7699 -0.1642
16474TIP3   OH270836   0.562   5.853   3.247  0.2979  0.1461 -0.5956
16474TIP3    H170837   0.481   5.903   3.239  0.8637  1.2136  0.2954
16474TIP3    H270838   0.570   5.835   3.341 -0.2522 -2.2166 -0.9492
16475TIP3   OH270839   1.396   4.316   5.953 -0.6908  0.1649  0.2332
16475TIP3    H170840   1.430   4.241   6.003  1.8385  1.4871  0.5687
16475TIP3    H270841   1.392   4.283   5.863  0.0644 -0.5151  0.4324
16476TIP3   OH270842   5.816   0.200   0.355 -0.2053 -0.2616 -0.0930
16476TIP3    H170843   5.815   0.263   0.427  0.9559  0.0696 -0.3571
16476TIP3    H270844   5.881   0.235   0.293 -1.0931 -0.5978 -1.2460
16477TIP3   OH270845   5.219   4.217  13.745 -0.1972  0.1404 -0.5336
16477TIP3    H170846   5.204   4.133  13.788  0.3946  1.1101  1.6307
16477TIP3    H270847   5.314   4.226  13.741 -0.2233 -0.2193 -2.6785
16478TIP3   OH270848   2.201   2.356   3.941 -0.0298 -0.1332 -0.5590
16478TIP3    H170849   2.254   2.309   4.006  0.9506  0.5553 -0.8535
16478TIP3    H270850   2.248   2.344   3.858 -1.9893 -2.1627 -1.4241
16479TIP3   OH270851   2.077   4.187  14.292 -0.1184 -0.5416 -0.1692
16479TIP3    H170852   2.150   4.185  14.230  0.7842 -0.5215  0.8734
16479TIP3    H270853   1.999   4.183  14.237  0.6755 -1.3433 -1.2745
16480TIP3   OH270854   4.275   2.714  14.351 -0.3345 -0.6265 -0.5513
16480TIP3    H170855   4.291   2.809  14.354  0.4802 -0.7992  0.7886
16480TIP3    H270856   4.335   2.682  14.284  0.0600 -0.3287 -0.3410
16481TIP3   OH270857   0.752   5.586  10.931 -0.0241 -0.3167  0.8773
16481TIP3    H170858   0.823   5.556  10.988  1.2234 -0.7062 -0.8665
16481TIP3    H270859   0.794   5.642  10.867 -1.2908 -0.5580 -0.1816
16482TIP3   OH270860   5.955   0.865  11.815  0.4053  0.5264  0.2535
16482TIP3    H170861   5.953   0.943  11.759  0.7226  1.0692  0.9845
16482TIP3    H270862   5.863   0.851  11.840  0.3235  0.5560 -0.0338
16483TIP3   OH270863   6.384   0.254   1.932 -0.4679  0.5228 -0.4876
16483TIP3    H170864   6.372   0.332   1.878 -0.2811  0.9571  0.1067
16483TIP3    H270865   6.476   0.254   1.955 -0.5597  0.3604 -0.1174
16484TIP3   OH270866   6.195   4.947   5.607 -0.0228 -0.7981  0.5379
16484TIP3    H170867   6.131   4.955   5.678 -1.8817 -1.1349 -1.0661
16484TIP3    H270868   6.170   5.016   5.545  2.7266  0.7311  1.0435
16485TIP3   OH270869   1.635   0.440  13.747  0.4353  0.1114 -0.1091
16485TIP3    H170870   1.558   0.478  13.706 -0.5736 -1.5906  0.1385
16485TIP3    H270871   1.709   0.468  13.693 -0.3602  1.6862 -0.3892
16486TIP3   OH270872   1.980   2.644   3.586  0.1180 -0.4750  0.4873
16486TIP3    H170873   1.903   2.687   3.549 -0.8809 -2.0662  0.6184
16486TIP3    H270874   2.027   2.713   3.633 -0.4379  0.8289 -0.8463
16487TIP3   OH270875   0.706   0.447  12.070  0.2688  0.0024  0.1660
16487TIP3    H170876   0.771   0.411  12.131 -0.2713 -3.0801 -0.9613
16487TIP3    H270877   0.758   0.485  12.000  0.8805 -0.8385  0.1503
16488TIP3   OH270878   2.982   4.483  14.461  0.3655 -0.4561 -0.0231
16488TIP3    H170879   3.003   4.415  14.398  0.5534  0.5136 -1.0150
16488TIP3    H270880   3.034   4.559  14.435  0.1766  0.0732  1.0736
16489TIP3   OH270881   3.659   5.614  17.215  0.3208  0.3126  0.2246
16489TIP3    H170882   3.654   5.606  17.119  1.1130  0.0416  0.2099
16489TIP3    H270883   3.728   5.554  17.241  0.0190  0.2884  0.9892
16490TIP3   OH270884   3.732   5.439  15.752 -0.1307  0.4747 -0.6502
16490TIP3    H170885   3.685   5.515  15.716  0.3057  1.1784  0.2321
16490TIP3    H270886   3.688   5.421  15.835  1.3594  1.3567  0.3556
16491TIP3   OH270887   2.665   6.224   3.706  0.5041  0.7670  0.3632
16491TIP3    H170888   2.698   6.250   3.620  0.9264 -0.1376  0.2440
16491TIP3    H270889   2.639   6.133   3.694 -0.3133  0.9206  0.9524
16492TIP3   OH270890   6.065   2.031   4.813  0.3638 -0.1889 -0.5820
16492TIP3    H170891   5.970   2.042   4.810  0.1483 -1.8606 -0.2197
16492TIP3    H270892   6.096   2.055   4.726 -0.2803  1.2014 -0.4456
16493TIP3   OH270893   6.399   6.783   0.980 -0.2691 -0.0961  0.2017
16493TIP3    H170894   6.373   6.739   1.062 -1.9901  3.7250  1.8352
16493TIP3    H270895   6.466   6.846   1.007 -0.9241  1.2840 -1.2791
16494TIP3   OH270896   0.442   2.976   3.065 -0.3671  0.1198 -0.0036
16494TIP3    H170897   0.452   3.059   3.019 -1.7624  0.9510  1.1789
16494TIP3    H270898   0.529   2.936   3.062 -0.5271 -0.1438 -3.9135
16495TIP3   OH270899   1.745   1.599   2.892  0.1095 -0.5719  0.1205
16495TIP3    H170900   1.738   1.683   2.937  0.9691 -0.3252 -0.1866
16495TIP3    H270901   1.790   1.542   2.955  1.2946 -0.2324 -0.4000
16496TIP3   OH270902   2.043   5.951   1.707 -0.2072  0.0816  0.2549
16496TIP3    H170903   2.093   5.998   1.640 -0.4824 -2.1387 -1.5689
16496TIP3    H270904   2.019   5.868   1.666 -2.9112 -0.1336  2.0984
16497TIP3   OH270905   1.487   1.877   2.941  0.1754  0.4904  0.5932
16497TIP3    H170906   1.495   1.945   2.874  0.1198 -0.3678 -0.2842
16497TIP3    H270907   1.576   1.864   2.973  0.4949 -0.4654 -0.6656
16498TIP3   OH270908   3.273   0.414   2.049  0.5319 -0.7430  0.0157
16498TIP3    H170909   3.277   0.367   2.132 -0.1822 -1.2597 -0.2335
16498TIP3    H270910   3.215   0.489   2.067  0.0230 -1.1009 -0.1351
16499TIP3   OH270911   3.847   2.243   4.505 -0.2047  0.3394 -0.3562
16499TIP3    H170912   3.851   2.157   4.546 -0.4459  0.3758 -0.2576
16499TIP3    H270913   3.935   2.280   4.517 -0.1340  0.1517 -0.3048
16500TIP3   OH270914   1.949   1.850   1.474  0.1070 -0.0870  0.9018
16500TIP3    H170915   1.984   1.939   1.464 -1.2598  0.2214 -1.5116
16500TIP3    H270916   2.019   1.793   1.441  0.3248  0.2183  0.8295
16501TIP3   OH270917   3.409   5.751  15.450  0.8709 -0.5040  0.3390
16501TIP3    H170918   3.351   5.681  15.419 -0.4397  0.3366  0.9070
16501TIP3    H270919   3.393   5.756  15.544  0.5339  0.9751  0.2011
16502TIP3   OH270920   1.679   1.221  16.344  0.0687  0.2123  0.3047
16502TIP3    H170921   1.670   1.175  16.261 -0.0121  0.2051  0.3199
16502TIP3    H270922   1.751   1.177  16.389 -0.4622 -0.3438  0.6158
16503TIP3   OH270923   4.053   6.363  10.966 -0.7836  0.1469  0.2708
16503TIP3    H170924   3.964   6.353  10.930  0.1301 -0.4535 -1.8924
16503TIP3    H270925   4.043   6.430  11.034 -2.7534  0.6722 -0.4775
16504TIP3   OH270926   1.661   2.276   5.473 -0.4426 -0.3063  0.1716
16504TIP3    H170927   1.680   2.186   5.446 -0.9183 -0.7636  1.3326
16504TIP3    H270928   1.691   2.329   5.399 -2.2635 -1.5586 -1.5391
16505TIP3   OH270929   1.979   4.241   6.474  0.0174 -0.0618  0.3541
16505TIP3    H170930   1.933   4.160   6.450 -0.7339  0.3444  0.4022
16505TIP3    H270931   2.057   4.211   6.521 -0.9826 -0.7174  1.6068
16506TIP3   OH270932   0.287   5.015   5.873  0.6158 -0.7503 -0.4476
16506TIP3    H170933   0.338   4.991   5.950 -0.0615  0.9476  0.5577
16506TIP3    H270934   0.320   4.959   5.803  1.8344 -1.6984  0.8732
16507TIP3   OH270935   5.635   6.069   6.395 -0.6953  0.0905 -0.1059
16507TIP3    H170936   5.620   6.010   6.321  0.1852 -1.0895  0.6342
16507TIP3    H270937   5.716   6.115   6.373 -0.7655  0.1912 -0.1542
16508TIP3   OH270938   5.938   5.557   4.014  0.3094  0.4147  0.5485
16508TIP3    H170939   5.868   5.533   3.954  0.9910 -1.2559  0.3856
16508TIP3    H270940   5.912   5.519   4.098  0.7514  0.2648  0.6181
16509TIP3   OH270941   4.827   0.653   0.501 -0.2046 -0.0335 -0.2148
16509TIP3    H170942   4.917   0.664   0.532  0.4500  0.3467 -2.1686
16509TIP3    H270943   4.833   0.581   0.438 -0.9343  1.1772 -1.6771
16510TIP3   OH270944   3.157   1.637   3.364 -0.0226  0.4970  0.9549
16510TIP3    H170945   3.219   1.588   3.417  1.4071  0.7259 -0.4654
16510TIP3    H270946   3.211   1.697   3.312 -1.2988 -0.1814 -1.2273
16511TIP3   OH270947   0.079   6.395  16.092 -0.3120  0.1861 -0.5724
16511TIP3    H170948   0.077   6.447  16.011 -0.6326  0.0661 -0.6425
16511TIP3    H270949   0.122   6.452  16.156  0.9118 -0.1253 -1.1072
16512TIP3   OH270950   2.299   4.127   3.748  0.0083 -0.5723  0.9523
16512TIP3    H170951   2.334   4.043   3.778 -0.6745 -1.4094 -0.5094
16512TIP3    H270952   2.309   4.124   3.652 -2.4920 -0.1164  0.6541
16513TIP3   OH270953   5.983   5.848  14.251 -0.2968  0.2527 -0.5062
16513TIP3    H170954   5.953   5.833  14.162  2.1028  1.6380 -1.6040
16513TIP3    H270955   5.972   5.943  14.265 -0.9898 -0.0089  0.7870
16514TIP3   OH270956   4.082   1.923  12.528  0.6374 -0.5264  0.3925
16514TIP3    H170957   4.023   1.862  12.482  1.8348  0.1196 -2.1173
16514TIP3    H270958   4.044   1.933  12.615 -1.8035 -1.7230 -0.4968
16515TIP3   OH270959   0.324   3.297   0.586 -0.7237 -0.2161 -0.4666
16515TIP3    H170960   0.250   3.354   0.566 -0.6755 -0.3120 -0.9145
16515TIP3    H270961   0.395   3.357   0.609 -0.7103 -0.0998 -0.8124
16516TIP3   OH270962   0.559   2.166   5.641 -0.6364  0.2059 -0.4244
16516TIP3    H170963   0.566   2.176   5.546  0.3178  0.8510 -0.2850
16516TIP3    H270964   0.648   2.146   5.670 -0.8762  0.2874  0.3681
16517TIP3   OH270965   3.918   1.017   0.283 -0.4011 -0.1324  0.8348
16517TIP3    H170966   3.979   1.038   0.354  0.4243  0.9879 -0.1717
16517TIP3    H270967   3.958   0.941   0.240  2.0207  2.4546 -1.7394
16518TIP3   OH270968   1.862   0.245  12.220 -0.2620 -0.5228 -0.5467
16518TIP3    H170969   1.805   0.267  12.146 -0.0949 -0.1293 -0.5578
16518TIP3    H270970   1.950   0.263  12.189 -0.2383  0.3046 -0.0174
16519TIP3   OH270971   3.982   1.595  16.342  0.3897  0.1899 -0.4210
16519TIP3    H170972   4.077   1.590  16.342  0.4893  1.7286  0.7951
16519TIP3    H270973   3.961   1.656  16.271  0.3669  0.5064 -0.1465
16520TIP3   OH270974   3.202   4.640  15.438  0.1964 -0.0698 -0.6894
16520TIP3    H170975   3.140   4.603  15.501 -0.8756  1.2323 -0.9706
16520TIP3    H270976   3.270   4.573  15.430 -0.5263 -0.9780  0.5617
16521TIP3   OH270977   0.428   2.427  16.396  0.2104  0.3668  0.2953
16521TIP3    H170978   0.418   2.340  16.358  0.5683  0.5007 -0.1027
16521TIP3    H270979   0.514   2.425  16.439 -0.1243  0.2652  0.9622
16522TIP3   OH270980   6.580   2.648   5.230  1.0044  0.2731  0.7207
16522TIP3    H170981   6.558   2.600   5.310 -0.0038 -0.1189  0.2111
16522TIP3    H270982   6.511   2.714   5.221 -0.2698 -1.2655 -1.1311
16523TIP3   OH270983   3.842   1.913  11.995  0.5057 -0.1008  0.3463
16523TIP3    H170984   3.829   1.822  12.020 -1.3047  0.5885  2.0205
16523TIP3    H270985   3.773   1.931  11.932  1.9465 -0.3641 -1.3516
16524TIP3   OH270986   1.574   1.924   1.641 -0.0435  0.3522  0.5513
16524TIP3    H170987   1.579   1.896   1.550 -0.4846  0.4785  0.4858
16524TIP3    H270988   1.583   1.843   1.691 -2.6349 -0.1360  0.3341
16525TIP3   OH270989   4.343   2.525   5.378  0.3118  0.3029  0.3979
16525TIP3    H170990   4.320   2.614   5.405  0.8998  0.3222  0.8334
16525TIP3    H270991   4.259   2.485   5.356  0.1249  1.2908 -0.7970
16526TIP3   OH270992   5.031   2.120  11.242  0.0386 -0.6946 -0.5484
16526TIP3    H170993   4.972   2.065  11.294  3.1389 -0.4480  3.4192
16526TIP3    H270994   4.991   2.207  11.245  0.4537 -0.5448  2.0417
16527TIP3   OH270995   1.697   0.805   4.608  0.1109 -0.7972 -0.2166
16527TIP3    H170996   1.654   0.766   4.532 -1.6691  1.0017 -0.1976
16527TIP3    H270997   1.663   0.757   4.683 -2.0223  0.6561 -0.1988
16528TIP3   OH270998   2.698   6.148   1.144 -0.1292 -0.1805 -0.3239
16528TIP3    H170999   2.729   6.239   1.138  0.3207 -0.3150 -0.0876
16528TIP3    H271000   2.752   6.100   1.081 -0.0816 -0.3573 -0.1493
16529TIP3   OH271001   0.052   5.898  12.871 -0.2136  0.0279 -0.5163
16529TIP3    H171002   0.019   5.977  12.916 -1.5105 -1.1047  0.5626
16529TIP3    H271003   0.062   5.925  12.780  1.1904  1.9965  0.1803
16530TIP3   OH271004   6.245   4.708   4.860  0.0351 -0.2408 -1.0928
16530TIP3    H171005   6.308   4.741   4.796 -0.1503  0.7018 -0.7983
16530TIP3    H271006   6.178   4.776   4.864 -0.5269 -0.8207 -0.7307
16531TIP3   OH271007   5.531   1.953   2.432 -0.4340 -0.0481 -0.2333
16531TIP3    H171008   5.526   2.040   2.472  1.1755 -0.3812  0.7433
16531TIP3    H271009   5.467   1.956   2.361 -0.8984  1.7017  0.2255
16532TIP3   OH271010   2.402   4.393  16.800 -0.3046 -0.1024  0.0947
16532TIP3    H171011   2.429   4.329  16.865  0.9486  1.0702  0.7726
16532TIP3    H271012   2.423   4.478  16.840  0.5491  0.6353 -1.8413
16533TIP3   OH271013   5.869   4.928  16.541  0.1423  0.0009 -0.2694
16533TIP3    H171014   5.962   4.937  16.522 -0.3392  0.4943 -2.4444
16533TIP3    H271015   5.863   4.846  16.591  1.4219 -1.4889 -2.4750
16534TIP3   OH271016   1.683   3.914   5.604  0.4966 -0.6361  0.4340
16534TIP3    H171017   1.677   3.857   5.527  1.2619  1.1998 -1.0061
16534TIP3    H271018   1.596   3.953   5.611  0.6946 -0.0847 -0.0861
16535TIP3   OH271019   2.094   2.481  15.096 -0.0858  0.2907 -0.2065
16535TIP3    H171020   2.073   2.409  15.155 -1.7223 -0.4066 -1.5959
16535TIP3    H271021   2.112   2.439  15.012 -0.3487  1.4311 -0.8470
16536TIP3   OH271022   0.001   3.308   1.920 -0.4715 -0.5245 -0.2378
16536TIP3    H171023   0.039   3.243   1.862  1.6763 -0.7069  1.3051
16536TIP3    H271024  -0.024   3.380   1.863  2.3158 -0.3586 -1.2903
16537TIP3   OH271025   2.024   6.361   2.934 -0.3315 -0.2694 -0.3629
16537TIP3    H171026   2.033   6.284   2.990 -1.1356 -0.2410 -0.1897
16537TIP3    H271027   2.113   6.382   2.907  0.0939 -0.1341  1.1118
16538TIP3   OH271028   0.343   4.433   2.758 -0.3443 -0.1220 -0.9902
16538TIP3    H171029   0.359   4.523   2.784 -0.6218  0.3502 -2.4140
16538TIP3    H271030   0.417   4.410   2.701 -0.4668 -0.6571 -0.9368
16539TIP3   OH271031   2.564   4.524  16.983 -0.4995  0.1580 -0.4625
16539TIP3    H171032   2.551   4.430  16.995  1.0429  0.1176  1.1306
16539TIP3    H271033   2.501   4.565  17.041 -0.4693  0.0844 -0.3771
16540TIP3   OH271034   0.091   3.285   4.083 -0.5725 -0.7450  0.0512
16540TIP3    H171035   0.057   3.196   4.080 -1.3204 -0.4372 -1.9906
16540TIP3    H271036   0.173   3.281   4.034 -2.4294  0.3608 -3.3449
16541TIP3   OH271037   1.792   5.317  10.882 -0.3620  0.1730  0.1244
16541TIP3    H171038   1.788   5.408  10.852 -0.1153 -0.3739 -1.6079
16541TIP3    H271039   1.765   5.321  10.974  1.0432  2.1833  0.4760
16542TIP3   OH271040   0.704   4.524  13.329 -0.0009  0.4055 -0.6820
16542TIP3    H171041   0.768   4.563  13.389 -1.0427 -1.8605  2.0047
16542TIP3    H271042   0.732   4.432  13.321 -1.7683 -0.1179 -1.0518
16543TIP3   OH271043   2.339   3.025  12.187 -0.4499  0.2155  0.1792
16543TIP3    H171044   2.306   3.104  12.231 -1.0594 -0.8529  1.6647
16543TIP3    H271045   2.429   3.048  12.162 -1.1120  1.9152 -0.7921
16544TIP3   OH271046   3.832   6.190   6.913 -0.2201 -0.2956  0.6604
16544TIP3    H171047   3.781   6.256   6.865 -0.9804  0.8136  2.9114
16544TIP3    H271048   3.770   6.151   6.974  0.9478 -0.9665  1.4473
16545TIP3   OH271049   1.258   1.165  17.111  0.3968  0.2864  0.0736
16545TIP3    H171050   1.214   1.226  17.052  2.7407  1.3358 -0.6734
16545TIP3    H271051   1.241   1.199  17.199 -0.4773  0.5109 -0.1753
16546TIP3   OH271052   1.695   5.636   5.044  0.0554 -0.2753 -0.1561
16546TIP3    H171053   1.689   5.685   4.962 -1.0693  1.6475  1.0397
16546TIP3    H271054   1.620   5.576   5.042  1.3292 -1.8756 -1.5369
16547TIP3   OH271055   5.924   3.210  16.257 -0.1236 -0.1633 -0.4656
16547TIP3    H171056   5.979   3.236  16.183  1.2439  1.3430  1.0447
16547TIP3    H271057   5.941   3.117  16.268 -0.0123 -0.3087 -1.7673
16548TIP3   OH271058   1.059   5.203   2.241 -0.0802 -0.0866 -0.3749
16548TIP3    H171059   1.114   5.131   2.272 -1.4026 -0.5288  1.0139
16548TIP3    H271060   0.977   5.193   2.289 -1.2693  0.7366 -2.1924
16549TIP3   OH271061   2.830   3.054   5.392  0.3557 -0.1907  0.0933
16549TIP3    H171062   2.881   3.110   5.334  0.5746  0.2832  0.7356
16549TIP3    H271063   2.745   3.096   5.398  0.9717  0.8882  1.7271
16550TIP3   OH271064   4.869   1.910   2.706 -0.5993 -1.0271  0.3854
16550TIP3    H171065   4.864   1.827   2.754 -0.3184 -0.5726  1.1993
16550TIP3    H271066   4.856   1.977   2.773 -0.8974 -0.4121 -0.2873
16551TIP3   OH271067   5.024   1.957  16.218 -0.2085 -0.1151 -0.4443
16551TIP3    H171068   4.972   2.036  16.226 -0.1960 -0.1079 -0.4343
16551TIP3    H271069   5.114   1.985  16.237 -0.1170 -0.0203 -1.0005
16552TIP3   OH271070   6.318   1.400  11.573 -0.7541 -0.2595  0.0456
16552TIP3    H171071   6.407   1.421  11.599 -0.2915 -1.8220 -0.2027
16552TIP3    H271072   6.293   1.469  11.512  0.2381  0.2559  0.2287
16553TIP3   OH271073   5.899   3.732  12.351 -0.3352  0.0640 -1.0463
16553TIP3    H171074   5.904   3.657  12.410 -0.9034 -0.7496 -1.9999
16553TIP3    H271075   5.974   3.786  12.374 -0.7860 -0.0275  0.6864
16554TIP3   OH271076   5.677   6.247   0.757 -0.0590 -0.6117 -0.1073
16554TIP3    H171077   5.625   6.293   0.823  0.9511  0.4379 -0.0294
16554TIP3    H271078   5.752   6.213   0.806  1.7083  1.8369 -1.0475
16555TIP3   OH271079   1.849   5.217  14.300 -0.3151 -0.2248  0.1682
16555TIP3    H171080   1.902   5.248  14.374  2.2351  0.4599 -1.8867
16555TIP3    H271081   1.777   5.168  14.341 -0.3796  2.2580  3.1984
16556TIP3   OH271082   4.366   3.548  16.118 -0.0094 -0.1875 -0.3883
16556TIP3    H171083   4.324   3.532  16.202  1.3435 -0.3198  0.2758
16556TIP3    H271084   4.352   3.642  16.102 -0.5616 -0.2358 -0.1768
16557TIP3   OH271085   4.855   3.643   1.877  0.1709  0.1855  0.3222
16557TIP3    H171086   4.944   3.611   1.886  0.2489  0.0059 -1.0405
16557TIP3    H271087   4.848   3.673   1.787 -1.0388  0.5301  0.5100
16558TIP3   OH271088   2.155   3.142   0.620  0.4216 -0.6423 -0.1667
16558TIP3    H171089   2.176   3.110   0.533 -1.2982 -2.3360 -0.0008
16558TIP3    H271090   2.132   3.234   0.608 -0.8618 -1.1529 -1.6712
16559TIP3   OH271091   5.022   1.481   3.409  0.4399 -0.3757 -0.0986
16559TIP3    H171092   5.028   1.390   3.435 -0.4203 -0.3175  0.3146
16559TIP3    H271093   5.108   1.502   3.373  0.7132 -1.2730  0.0380
16560TIP3   OH271094   2.227   2.167  13.935 -0.3233 -0.4494  0.0342
16560TIP3    H171095   2.222   2.072  13.926 -1.0950 -0.5254  1.1851
16560TIP3    H271096   2.319   2.184  13.955 -0.4646 -1.1047  1.3354
16561TIP3   OH271097   5.955   0.880  11.432  0.6537  0.0407 -0.1161
16561TIP3    H171098   5.903   0.809  11.394 -1.6506  1.8929 -0.5426
16561TIP3    H271099   5.892   0.933  11.481  1.6059  3.6703 -2.5543
16562TIP3   OH271100   3.833   6.076  14.211  0.0408  0.0481 -0.6877
16562TIP3    H171101   3.813   6.066  14.118  0.8044  1.2796 -1.0018
16562TIP3    H271102   3.900   6.009  14.228 -1.9098 -1.8814 -0.3988
16563TIP3   OH271103   3.016   1.776  12.417  0.4296 -0.0821  0.1670
16563TIP3    H171104   2.939   1.814  12.374 -0.7824 -1.2828  1.2263
16563TIP3    H271105   2.996   1.683  12.425  2.4685 -0.5972 -0.4976
16564TIP3   OH271106   1.386   4.502   6.130  0.7219 -0.2279 -0.3784
16564TIP3    H171107   1.404   4.588   6.091 -0.2145 -0.0168 -0.3721
16564TIP3    H271108   1.420   4.439   6.066  1.8046  0.1500 -0.1830
16565TIP3   OH271109   2.005   1.776   0.892 -0.0149  0.1175 -0.3598
16565TIP3    H171110   2.084   1.739   0.932  0.6959  2.0755  0.1088
16565TIP3    H271111   1.956   1.813   0.965 -1.3338 -0.9892 -0.6662
16566TIP3   OH271112   0.369   0.256   3.511  0.1942 -0.0474 -0.4052
16566TIP3    H171113   0.356   0.350   3.502  2.0014  0.2823  0.3330
16566TIP3    H271114   0.450   0.247   3.560  0.0805 -1.9977 -0.5308
16567TIP3   OH271115   2.122   5.499   1.830 -0.6441  0.1928 -0.3913
16567TIP3    H171116   2.155   5.449   1.904 -1.3252 -1.1337 -0.9597
16567TIP3    H271117   2.027   5.493   1.838 -0.7300 -0.4069 -1.6361
16568TIP3   OH271118   1.460   4.104   2.609 -0.3818 -0.0510 -0.4607
16568TIP3    H171119   1.398   4.035   2.633  1.0019 -1.0543  0.2747
16568TIP3    H271120   1.426   4.183   2.652 -0.8764 -0.6947  0.3404
16569TIP3   OH271121   6.201   3.004   0.539  0.1824  0.4596 -0.0882
16569TIP3    H171122   6.223   2.918   0.577 -1.5192 -0.8990 -2.0757
16569TIP3    H271123   6.144   3.045   0.604  1.6374  0.4587  1.2376
16570TIP3   OH271124   0.403   6.458   0.021 -0.4384 -0.0177 -0.2463
16570TIP3    H171125   0.327   6.431   0.072 -0.2089  1.6204  0.9890
16570TIP3    H271126   0.471   6.475   0.086  0.0336  1.5184 -1.1084
16571TIP3   OH271127   1.550   4.373  11.400  0.1373 -0.6515 -0.0677
16571TIP3    H171128   1.524   4.340  11.486  0.6081 -0.5763  0.1033
16571TIP3    H271129   1.565   4.295  11.348  0.6727 -0.7071  0.1654
16572TIP3   OH271130   1.193   5.869  14.289  0.2170  0.4573 -0.0998
16572TIP3    H171131   1.202   5.853  14.383 -1.0124  2.0443  0.3032
16572TIP3    H271132   1.149   5.791  14.255  0.6296 -0.1046  0.6518
16573TIP3   OH271133   1.450   6.709  10.990 -0.0979  0.0719 -0.8386
16573TIP3    H171134   1.533   6.722  11.036 -0.3817  1.0888 -0.6129
16573TIP3    H271135   1.383   6.735  11.053 -0.6092 -1.0220 -0.9195
16574TIP3   OH271136   3.953   4.965   3.682  0.5148 -0.2776  0.1361
16574TIP3    H171137   3.982   5.049   3.648 -1.3318 -0.3685 -1.7869
16574TIP3    H271138   3.910   4.986   3.765 -2.3868  1.1211 -1.6274
16575TIP3   OH271139   3.208   0.186  13.987 -0.2370 -0.4003  0.1729
16575TIP3    H171140   3.157   0.255  14.031  2.2767  0.1433  2.3442
16575TIP3    H271141   3.174   0.104  14.022 -0.3609 -0.0843  0.7942
16576TIP3   OH271142   2.464   5.072   1.858 -0.0671 -0.4968 -0.6533
16576TIP3    H171143   2.413   5.011   1.804 -0.0495 -1.2709  0.1857
16576TIP3    H271144   2.534   5.018   1.895  0.5961  0.2762 -0.7593
16577TIP3   OH271145   3.487   6.584  16.018 -0.4151 -0.6156  0.1510
16577TIP3    H171146   3.477   6.667  16.066 -0.0949 -0.0019 -0.8287
16577TIP3    H271147   3.397   6.556  16.000 -0.5187  0.3355 -0.8854
16578TIP3   OH271148   0.495   2.627  11.731 -0.1063  0.5454  0.5526
16578TIP3    H171149   0.475   2.597  11.820 -2.2419 -0.6201 -0.2810
16578TIP3    H271150   0.437   2.575  11.675  0.8722  1.6079 -1.4809
16579TIP3   OH271151   1.300   3.934  15.494  0.3014 -0.1691 -0.4431
16579TIP3    H171152   1.309   3.850  15.449  0.1247 -0.5598  0.2453
16579TIP3    H271153   1.210   3.961  15.477 -0.1497 -0.9104  0.6796
16580TIP3   OH271154   2.725   0.331  15.197 -0.1985  0.1049 -0.4193
16580TIP3    H171155   2.772   0.289  15.269 -0.8154 -2.5471 -1.5211
16580TIP3    H271156   2.669   0.396  15.240  1.3235  0.3554  1.2489
16581TIP3   OH271157   5.125   4.443  13.636  0.1787  0.4294 -0.6398
16581TIP3    H171158   5.166   4.365  13.672 -0.9182  0.1628  0.0621
16581TIP3    H271159   5.091   4.490  13.713 -1.3026  0.3619 -1.2244
16582TIP3   OH271160   3.975   6.235   1.754  0.3652 -0.2653 -0.3845
16582TIP3    H171161   3.951   6.195   1.670 -0.7943  0.6175 -0.4868
16582TIP3    H271162   3.975   6.161   1.816  0.6815 -0.8303 -1.0567
16583TIP3   OH271163   0.656   2.106  11.524  0.6620  0.1077  0.0903
16583TIP3    H171164   0.621   2.194  11.508 -2.1334 -1.0773 -0.6448
16583TIP3    H271165   0.654   2.097  11.619  1.0744  0.8689  0.1795
16584TIP3   OH271166   0.410   2.327  11.143  0.0673 -0.1113  0.1437
16584TIP3    H171167   0.443   2.383  11.214 -0.5815 -0.5331  0.7887
16584TIP3    H271168   0.489   2.300  11.096  0.3767  1.4857 -0.2980
16585TIP3   OH271169   6.105   3.269  11.216  0.1298  0.0030 -0.2869
16585TIP3    H171170   6.027   3.233  11.257  0.1119  0.5079  0.1248
16585TIP3    H271171   6.084   3.272  11.123  0.4622 -1.8762 -0.4457
16586TIP3   OH271172   2.188   2.362  15.764  0.3508 -0.6405  0.0116
16586TIP3    H171173   2.218   2.387  15.676 -1.1525  2.6846  0.3350
16586TIP3    H271174   2.097   2.336  15.751  0.2971 -0.6906  0.4888
16587TIP3   OH271175   2.091   3.095  16.305  0.2420  0.4225  0.7299
16587TIP3    H171176   2.184   3.095  16.286  0.1637 -1.3504  0.2415
16587TIP3    H271177   2.063   3.005  16.289 -1.8284  1.2538 -0.4881
16588TIP3   OH271178   1.528   2.801  12.777 -0.1884 -0.3350  0.1399
16588TIP3    H171179   1.433   2.806  12.793 -0.3613  2.1473 -1.3308
16588TIP3    H271180   1.568   2.835  12.857 -0.6373  1.0534 -0.2184
16589TIP3   OH271181   3.354   4.171  15.844  0.0730  0.1795 -0.8223
16589TIP3    H171182   3.427   4.110  15.854  1.8005  1.9917 -2.1445
16589TIP3    H271183   3.326   4.190  15.934  2.6742  1.1832 -0.1834
16590TIP3   OH271184   1.600   5.166  10.526  0.2786  0.0019  0.1610
16590TIP3    H171185   1.566   5.102  10.464  0.6372 -0.8927  0.8937
16590TIP3    H271186   1.658   5.222  10.473  1.9670 -1.8193  0.0365
16591TIP3   OH271187   3.520   6.710   3.170 -0.2362  0.1899 -0.1478
16591TIP3    H171188   3.445   6.767   3.154  0.8907  2.1679  1.3478
16591TIP3    H271189   3.484   6.635   3.217 -1.3414  0.9479  0.2429
16592TIP3   OH271190   6.314   6.762   3.213  0.1571 -0.1441 -0.0711
16592TIP3    H171191   6.268   6.678   3.216 -0.4484  0.1431 -1.0985
16592TIP3    H271192   6.366   6.759   3.133  0.4994  0.2742  0.1310
16593TIP3   OH271193   4.030   4.521  16.880  0.5472  0.4917  0.1313
16593TIP3    H171194   3.952   4.467  16.888 -0.5946  2.0247 -0.4101
16593TIP3    H271195   4.039   4.563  16.965  1.5927 -0.7266  0.6441
16594TIP3   OH271196   5.532   1.579  16.836  0.1795 -0.1311  0.2153
16594TIP3    H171197   5.509   1.607  16.924 -0.5885  1.3797 -0.4373
16594TIP3    H271198   5.448   1.570  16.791  0.6242  1.3197 -0.9783
16595TIP3   OH271199   5.901   0.722  15.633 -0.0613  0.5138  0.0375
16595TIP3    H171200   5.974   0.685  15.582  1.1271  1.4854  1.0028
16595TIP3    H271201   5.862   0.646  15.677  0.3935 -0.0143 -0.4486
16596TIP3   OH271202   2.844   5.077   5.632 -0.1581 -0.4976  0.3751
16596TIP3    H171203   2.910   5.011   5.654  0.1468  0.0780  1.1890
16596TIP3    H271204   2.807   5.103   5.716 -2.2554 -1.6509 -0.1682
16597TIP3   OH271205   4.315   4.900  13.465 -0.3051 -0.1091  0.4229
16597TIP3    H171206   4.262   4.864  13.393  1.4121 -1.3286 -0.2777
16597TIP3    H271207   4.333   4.990  13.439  1.8465 -1.0681 -1.6556
16598TIP3   OH271208   6.338   2.474  14.010 -0.3483  0.0242 -0.5573
16598TIP3    H171209   6.334   2.551  13.953 -1.8130  0.5496  0.1954
16598TIP3    H271210   6.385   2.504  14.088 -0.6845  0.1011 -0.3792
16599TIP3   OH271211   4.326   3.394  15.074  0.3511 -0.3165 -0.3994
16599TIP3    H171212   4.251   3.395  15.133 -0.4621  1.4704 -1.4373
16599TIP3    H271213   4.290   3.418  14.988  1.9834 -0.1875 -1.0650
16600TIP3   OH271214   2.478   5.638   2.778 -0.2222  0.1082  0.0922
16600TIP3    H171215   2.400   5.690   2.757 -0.9190 -1.4800 -1.3737
16600TIP3    H271216   2.550   5.685   2.736 -0.8189  0.0332 -1.0393
16601TIP3   OH271217   3.725   0.753   4.002  0.7645 -0.0742  0.4463
16601TIP3    H171218   3.655   0.713   4.054 -0.2968 -1.0140 -1.6485
16601TIP3    H271219   3.728   0.701   3.922  1.3919  2.2077 -1.0587
16602TIP3   OH271220   5.607   5.180   0.303 -0.6242 -0.0584 -0.0224
16602TIP3    H171221   5.513   5.191   0.290 -0.9950 -0.6060  1.9367
16602TIP3    H271222   5.641   5.269   0.313 -0.7801  0.1883 -1.6317
16603TIP3   OH271223   6.707   0.073   1.899 -0.2095 -0.0631 -0.3063
16603TIP3    H171224   6.782   0.117   1.858  0.4877  0.5420  1.5254
16603TIP3    H271225   6.709   0.104   1.990 -2.9336  0.2550 -0.3219
16604TIP3   OH271226   0.378   1.047  11.716  0.3278 -0.2887  0.7335
16604TIP3    H171227   0.383   1.100  11.637 -1.3062  1.6879  1.9207
16604TIP3    H271228   0.326   0.970  11.689 -3.7809  2.2772  0.8109
16605TIP3   OH271229   6.494   2.537   2.638 -0.1930  0.0448 -0.1872
16605TIP3    H171230   6.523   2.524   2.729 -0.4591 -0.3012 -0.1531
16605TIP3    H271231   6.440   2.461   2.619 -0.1570  0.1302 -0.6317
16606TIP3   OH271232   2.775   3.205   3.402 -0.5348  0.4443  0.7862
16606TIP3    H171233   2.720   3.229   3.328  0.1830 -1.0114 -0.2268
16606TIP3    H271234   2.752   3.114   3.421  2.0848 -0.4582 -0.1968
16607TIP3   OH271235   4.810   0.585   4.112 -0.7411  0.3877 -0.5482
16607TIP3    H171236   4.756   0.543   4.178  1.1256  1.5587  1.8267
16607TIP3    H271237   4.758   0.660   4.082 -1.0747  0.6032  0.5570
16608TIP3   OH271238   1.864   5.840   5.909  0.3257  0.1197  0.1614
16608TIP3    H171239   1.954   5.806   5.909  0.5599  0.7288  1.6543
16608TIP3    H271240   1.828   5.814   5.993 -0.2605  1.5585  0.3663
16609TIP3   OH271241   1.888   2.766   2.358  0.2500 -0.0563  0.2149
16609TIP3    H171242   1.955   2.707   2.392  1.4904  1.0883 -0.2192
16609TIP3    H271243   1.807   2.716   2.365  0.3163  0.2381  5.3804
16610TIP3   OH271244   4.641   2.112   0.962  0.7987  0.3442 -0.2726
16610TIP3    H171245   4.726   2.080   0.992  2.1111 -0.1749 -4.3323
16610TIP3    H271246   4.653   2.206   0.951  0.8819  0.2626 -0.9009
16611TIP3   OH271247   5.970   6.550   2.380  0.3040 -0.4033  0.8365
16611TIP3    H171248   5.928   6.636   2.382 -0.7909 -0.9094  0.1883
16611TIP3    H271249   6.033   6.556   2.309  0.3722 -0.0623  0.9272
16612TIP3   OH271250   3.509   3.341  16.001 -0.1710 -0.5916 -0.5475
16612TIP3    H171251   3.574   3.339  15.931 -1.6048  0.1466 -1.9407
16612TIP3    H271252   3.427   3.362  15.956 -1.1221 -0.1721  1.3509
16613TIP3   OH271253   4.934   4.965  13.406 -0.0005  0.3618 -0.4169
16613TIP3    H171254   4.874   5.026  13.363  0.7984  0.9908 -0.6610
16613TIP3    H271255   4.890   4.880  13.403  0.0486  0.3967 -2.4974
16614TIP3   OH271256   6.505   2.867   2.018 -0.0001  0.4730  0.2735
16614TIP3    H171257   6.555   2.815   1.954 -2.9891 -0.8937 -1.0198
16614TIP3    H271258   6.503   2.811   2.096  1.1294  0.8866  0.6190
16615TIP3   OH271259   0.888   4.790  14.314 -0.2546 -0.1305 -0.0632
16615TIP3    H171260   0.912   4.782  14.406 -0.5252 -0.7184 -0.0421
16615TIP3    H271261   0.833   4.714  14.296 -1.0164  0.5020 -0.4606
16616TIP3   OH271262   3.608   0.154   2.916 -0.4089  0.0568  0.3749
16616TIP3    H171263   3.593   0.082   2.855 -0.6205 -1.1895  1.8609
16616TIP3    H271264   3.702   0.148   2.937 -0.2708  0.6708 -0.0418
16617TIP3   OH271265   0.191   4.525  16.381 -0.1148  0.0019  0.1306
16617TIP3    H171266   0.223   4.449  16.429  1.5268  0.6522  0.0759
16617TIP3    H271267   0.177   4.493  16.292 -1.2998 -0.7147  0.5623
16618TIP3   OH271268   4.151   4.152  15.880  0.1789 -0.2759 -0.7836
16618TIP3    H171269   4.163   4.140  15.786  0.0180  0.7642 -0.9489
16618TIP3    H271270   4.163   4.246  15.894  2.8430 -0.7768  0.6467
16619TIP3   OH271271   0.163   4.983   5.433 -0.1399  0.0390 -0.2032
16619TIP3    H171272   0.180   4.968   5.526  0.8611  0.8601 -0.2418
16619TIP3    H271273   0.182   4.899   5.391 -1.9474 -0.7397  0.4931
16620TIP3   OH271274   3.913   4.740  15.017 -0.3742  0.3769  0.3019
16620TIP3    H171275   3.997   4.776  15.046 -1.2196  2.5570  0.1181
16620TIP3    H271276   3.850   4.810  15.035 -2.1511 -1.2235  0.4115
16621TIP3   OH271277   4.783   5.005   5.596 -0.6116  0.2428  0.3223
16621TIP3    H171278   4.857   5.051   5.635 -0.8367 -1.2781  2.5959
16621TIP3    H271279   4.808   4.994   5.504  1.4850  0.7165  0.8048
16622TIP3   OH271280   5.867   0.843  14.379  0.3840  0.2317 -0.3567
16622TIP3    H171281   5.935   0.799  14.329  1.0080 -0.1298  0.7946
16622TIP3    H271282   5.806   0.774  14.404  0.8023  0.1782  0.5423
16623TIP3   OH271283   2.236   6.442  12.715 -0.6383  0.2608 -0.2230
16623TIP3    H171284   2.172   6.400  12.657 -0.4626 -0.9839  0.4658
16623TIP3    H271285   2.202   6.531  12.728 -1.5796  0.0002 -0.8510
16624TIP3   OH271286   0.611   6.110  13.228 -0.4551  0.1401  0.2459
16624TIP3    H171287   0.573   6.082  13.312 -0.7309  0.0958  0.1055
16624TIP3    H271288   0.539   6.102  13.165 -0.0740 -0.4325 -0.1223
16625TIP3   OH271289   4.115   1.811   1.845 -1.0823 -0.1427  0.4337
16625TIP3    H171290   4.139   1.904   1.848 -2.4092  0.2356 -0.3523
16625TIP3    H271291   4.166   1.771   1.916 -0.0504  1.0732  0.4030
16626TIP3   OH271292   4.332   1.818  13.667  0.0009 -0.2515 -0.0858
16626TIP3    H171293   4.336   1.750  13.734 -0.6596 -0.9335 -0.7298
16626TIP3    H271294   4.407   1.801  13.610 -0.0277 -0.2847 -0.1128
16627TIP3   OH271295   4.986   6.345  14.002 -0.0564 -0.0207 -0.3322
16627TIP3    H171296   4.989   6.303  13.916  0.2200  1.1291 -0.8950
16627TIP3    H271297   4.894   6.364  14.017 -0.2524 -1.3349  0.1805
16628TIP3   OH271298   2.412   6.692   3.564  0.3205 -0.5885 -0.2636
16628TIP3    H171299   2.379   6.711   3.476 -1.0503  1.8601  0.7362
16628TIP3    H271300   2.352   6.738   3.623  3.7418  1.4745  1.7804
16629TIP3   OH271301   3.364   1.270  15.307  0.4857  0.1283 -0.4992
16629TIP3    H171302   3.368   1.175  15.295  1.0354  0.0195  0.5569
16629TIP3    H271303   3.445   1.302  15.267  0.8198  0.0552  0.1234
16630TIP3   OH271304   2.309   6.422  16.082 -0.0951  0.1725  0.1590
16630TIP3    H171305   2.367   6.384  16.017  0.9171 -1.5692  2.0147
16630TIP3    H271306   2.223   6.422  16.042  0.3158 -1.9420 -0.7363
16631TIP3   OH271307   2.905   1.783  14.754 -0.2852  0.8565 -0.2397
16631TIP3    H171308   2.917   1.834  14.674 -1.0643  1.7419  0.1989
16631TIP3    H271309   2.944   1.837  14.823  0.0610  0.2564  0.0407
16632TIP3   OH271310   0.701   3.773  14.083 -0.0406 -0.0593  0.0435
16632TIP3    H171311   0.780   3.752  14.133 -0.2054 -1.2798 -0.2082
16632TIP3    H271312   0.721   3.744  13.994 -0.5554  0.1646 -0.1457
16633TIP3   OH271313   0.263   0.853   3.253 -0.1521 -0.1432 -0.1634
16633TIP3    H171314   0.323   0.919   3.288 -0.4828 -0.2028  0.5190
16633TIP3    H271315   0.213   0.900   3.186 -2.2096  1.0375  2.1269
16634TIP3   OH271316   5.969   3.560   4.473 -0.0520  0.6881  0.0928
16634TIP3    H171317   5.960   3.639   4.419 -0.0338  0.6644  0.0544
16634TIP3    H271318   6.019   3.499   4.418  0.0206  0.6860  0.1603
16635TIP3   OH271319   4.234   4.988  13.100  0.2771 -0.2611  0.4632
16635TIP3    H171320   4.159   5.045  13.088 -0.5697 -1.3795  0.4187
16635TIP3    H271321   4.203   4.919  13.158  1.5778 -0.1505  1.3207
16636TIP3   OH271322   3.838   2.940   4.145  0.5283  0.0851 -0.6433
16636TIP3    H171323   3.857   2.879   4.074 -0.3633 -0.4854 -0.4002
16636TIP3    H271324   3.744   2.956   4.139  0.4011 -0.1641  0.5594
16637TIP3   OH271325   3.487   4.733  14.574 -0.1739  0.2190 -0.2401
16637TIP3    H171326   3.435   4.790  14.631 -0.7512  0.3255 -0.8651
16637TIP3    H271327   3.422   4.686  14.522  0.3501  0.1574 -0.8460
16638TIP3   OH271328   4.621   3.276  12.491  0.4844 -0.3893  0.2778
16638TIP3    H171329   4.632   3.188  12.526 -0.9251 -0.7853 -0.2547
16638TIP3    H271330   4.591   3.328  12.566  1.3008 -0.3580  0.5867
16639TIP3   OH271331   2.782   0.121  12.962  0.3316 -0.1323  0.0988
16639TIP3    H171332   2.692   0.091  12.949  1.1064 -2.5657  0.1905
16639TIP3    H271333   2.836   0.052  12.924  2.1674  1.4463 -0.2181
16640TIP3   OH271334   1.749   5.094  14.751 -0.6959 -0.4080 -0.1489
16640TIP3    H171335   1.786   5.182  14.755  0.5380 -0.9432  0.4969
16640TIP3    H271336   1.731   5.079  14.659  0.3601  0.0097 -0.4250
16641TIP3   OH271337   0.291   6.104  13.536 -0.2391  0.3136  0.4575
16641TIP3    H171338   0.382   6.113  13.561  0.0243 -1.4742  0.2287
16641TIP3    H271339   0.271   6.011  13.550 -1.2640  0.1228 -1.9064
16642TIP3   OH271340   5.845   4.625  11.897  0.4370  0.2841  0.0907
16642TIP3    H171341   5.893   4.628  11.980  0.6707  0.7401 -0.0644
16642TIP3    H271342   5.885   4.692  11.843 -0.6131  0.9241  0.0909
16643TIP3   OH271343   3.916   6.407   1.205  0.6793 -0.0678 -0.3661
16643TIP3    H171344   3.939   6.475   1.141 -1.2252  2.7937  1.8458
16643TIP3    H271345   3.988   6.409   1.268  0.5406 -0.0053 -0.2105
16644TIP3   OH271346   6.075   4.007  14.602 -0.1137 -0.1925  0.2412
16644TIP3    H171347   6.005   4.057  14.559  0.1625 -0.3140 -0.3609
16644TIP3    H271348   6.155   4.053  14.578  0.1573 -1.0016 -0.4457
16645TIP3   OH271349   5.378   0.795  16.538  0.4884  0.4724 -0.5217
16645TIP3    H171350   5.373   0.890  16.530  0.4400  0.6314  1.2093
16645TIP3    H271351   5.463   0.778  16.579  1.1757 -0.3387 -2.2371
16646TIP3   OH271352   3.038   0.878   0.938 -0.2455 -1.1216 -0.0877
16646TIP3    H171353   3.121   0.858   0.982  0.2069 -0.4740 -0.6320
16646TIP3    H271354   3.029   0.809   0.872 -0.2171 -1.2825  0.0757
16647TIP3   OH271355   6.519   3.149   2.012  0.3336 -0.0821  0.6148
16647TIP3    H171356   6.569   3.160   1.932 -0.6481  0.8438  0.1123
16647TIP3    H271357   6.521   3.055   2.030  0.8684 -0.2413 -0.2945
16648TIP3   OH271358   2.037   0.550  13.304 -0.3952 -0.7319 -0.0769
16648TIP3    H171359   1.955   0.549  13.254 -0.7554 -4.9501  0.3913
16648TIP3    H271360   2.102   0.512  13.244  0.8526  0.8679  0.2085
16649TIP3   OH271361   4.211   0.973   2.805  0.1501 -0.7575  0.4033
16649TIP3    H171362   4.183   0.890   2.845 -0.0992 -1.0769 -0.4102
16649TIP3    H271363   4.169   0.973   2.719  0.0785  0.2609  0.4296
16650TIP3   OH271364   2.724   3.674  16.311  0.0995 -0.2514 -0.0318
16650TIP3    H171365   2.815   3.690  16.287 -0.1429 -1.6293 -1.9779
16650TIP3    H271366   2.722   3.583  16.340 -1.1259 -1.1595 -2.7297
16651TIP3   OH271367   5.540   1.522   3.878 -0.5124  0.9502  0.5594
16651TIP3    H171368   5.450   1.488   3.884 -0.6254  1.4006  1.7085
16651TIP3    H271369   5.592   1.446   3.853 -1.1090  0.4923  0.6685
16652TIP3   OH271370   3.692   5.439  14.207 -0.2201  0.5199  0.0660
16652TIP3    H171371   3.681   5.348  14.233 -2.0078  0.3561 -1.1052
16652TIP3    H271372   3.786   5.450  14.194 -0.1145 -1.5495 -1.1246
16653TIP3   OH271373   3.576   3.420   4.449 -0.2289  0.1207  0.1025
16653TIP3    H171374   3.647   3.453   4.504 -1.4382  2.1063  0.4898
16653TIP3    H271375   3.616   3.408   4.363  0.3720  2.0593  0.0979
16654TIP3   OH271376   3.079   4.418   6.431  0.1763  0.4650 -0.1309
16654TIP3    H171377   3.175   4.416   6.438  0.0997  0.2887  0.8703
16654TIP3    H271378   3.048   4.378   6.512 -0.6993 -2.1360 -1.6798
16655TIP3   OH271379   6.384   0.655   2.801  0.1268 -0.2889 -0.1486
16655TIP3    H171380   6.406   0.710   2.725  1.5908 -0.5448  0.0798
16655TIP3    H271381   6.367   0.569   2.764  0.8395 -0.4133 -0.1924
16656TIP3   OH271382   5.688   4.418   5.481  0.0194  0.4277 -0.3212
16656TIP3    H171383   5.685   4.324   5.468 -0.9293  0.0625  2.2516
16656TIP3    H271384   5.745   4.430   5.558 -2.4466  1.6784  1.3812
16657TIP3   OH271385   4.762   6.474  14.406  0.2107  0.0278  0.1283
16657TIP3    H171386   4.762   6.523  14.324  0.9172 -2.2722 -1.2905
16657TIP3    H271387   4.826   6.520  14.461  0.1310  1.2628 -0.7770
16658TIP3   OH271388   4.651   5.397   5.270  0.4393 -0.5430 -0.3310
16658TIP3    H171389   4.584   5.441   5.321  0.3454  0.5592 -1.3789
16658TIP3    H271390   4.711   5.467   5.244  0.9323 -1.2109 -1.0134
16659TIP3   OH271391   0.043   3.617  14.539 -0.3165 -0.3838 -0.5515
16659TIP3    H171392   0.005   3.542  14.585 -0.9448 -0.7702 -1.6803
16659TIP3    H271393  -0.020   3.688  14.551  1.0725  0.4761  1.9470
16660TIP3   OH271394   6.170   4.911  14.606  0.4776 -0.1887 -0.2678
16660TIP3    H171395   6.197   4.849  14.537 -2.3550 -0.2009 -1.4325
16660TIP3    H271396   6.174   4.997  14.564 -0.0708 -0.0659 -0.0703
16661TIP3   OH271397   5.460   5.595  13.238  0.5406  0.5367 -0.3202
16661TIP3    H171398   5.476   5.630  13.326 -0.9223 -0.3992  0.3418
16661TIP3    H271399   5.365   5.590  13.231  0.6853 -1.4586 -1.1198
16662TIP3   OH271400   6.405   4.279  10.970  0.3806  0.1967 -0.1591
16662TIP3    H171401   6.321   4.324  10.970  0.0431 -0.4192  0.2805
16662TIP3    H271402   6.423   4.260  10.878 -1.0404 -1.6247 -0.0966
16663TIP3   OH271403   0.379   2.063   5.030 -0.2430  0.4902  0.3425
16663TIP3    H171404   0.340   2.122   4.966  0.3383  0.3359 -0.1627
16663TIP3    H271405   0.324   2.071   5.107 -0.4678  1.3008  0.1017
16664TIP3   OH271406   4.828   2.630  12.197  0.8640 -0.2909  0.1516
16664TIP3    H171407   4.803   2.568  12.266 -0.9094  0.1305 -0.0990
16664TIP3    H271408   4.764   2.701  12.204  0.7146 -0.2168 -1.8830
16665TIP3   OH271409   6.575   4.878  12.452  0.0960  0.6240  0.7774
16665TIP3    H171410   6.657   4.913  12.418  0.1400  0.3441  0.5953
16665TIP3    H271411   6.601   4.815  12.519  0.1326 -1.6771 -1.3257
16666TIP3   OH271412   4.952   0.777   4.330  0.4500  0.2969 -0.3786
16666TIP3    H171413   5.026   0.757   4.273  0.6119 -0.5180  0.1032
16666TIP3    H271414   4.912   0.855   4.292  3.6568  2.8755  1.3310
16667TIP3   OH271415   4.122   1.782  14.450 -0.1835 -0.1002  0.6453
16667TIP3    H171416   4.193   1.735  14.406  0.0985  1.2205 -0.3306
16667TIP3    H271417   4.106   1.859  14.395 -1.6782  0.1453  1.4118
16668TIP3   OH271418   0.221   5.602  10.362 -0.2513  0.6764 -0.4543
16668TIP3    H171419   0.242   5.509  10.350 -1.3294  0.4930 -1.0573
16668TIP3    H271420   0.125   5.604  10.369 -0.1056  1.5309  1.6571
16669TIP3   OH271421   6.552   3.809  15.918  0.0376  0.3921 -0.4742
16669TIP3    H171422   6.509   3.737  15.964 -2.3632  0.7055 -2.1102
16669TIP3    H271423   6.513   3.888  15.956 -0.3890  0.7018 -1.5361
16670TIP3   OH271424   3.847   3.643  13.621  0.1725 -0.7867  0.0737
16670TIP3    H171425   3.778   3.585  13.588  0.4057 -1.9265  1.5498
16670TIP3    H271426   3.800   3.719  13.655 -0.1913 -0.5032 -1.0357
16671TIP3   OH271427   6.155   0.930   2.803  0.0942 -0.5120  0.3509
16671TIP3    H171428   6.172   0.851   2.751 -0.5163 -0.8353  0.6436
16671TIP3    H271429   6.162   1.001   2.740  0.2127 -0.8370 -0.0065
16672TIP3   OH271430   3.797   6.326   0.163 -0.7474 -0.0490  0.2208
16672TIP3    H171431   3.717   6.330   0.216 -0.9550  0.7115 -0.1339
16672TIP3    H271432   3.855   6.267   0.211 -0.6405  1.2223  1.7093
16673TIP3   OH271433   2.760   2.076  13.415  0.3606 -0.2471  0.0309
16673TIP3    H171434   2.691   2.123  13.461  0.6714  1.0032 -0.7636
16673TIP3    H271435   2.727   2.066  13.326  0.8429 -0.3877 -0.1337
16674TIP3   OH271436   5.756   2.701  13.409 -0.6077 -0.3861 -0.2519
16674TIP3    H171437   5.813   2.716  13.485  0.5031  0.2661 -1.1879
16674TIP3    H271438   5.773   2.776  13.352 -2.1741 -0.3626 -0.7090
16675TIP3   OH271439   2.179   5.457  11.304  0.7957 -0.9366  0.1135
16675TIP3    H171440   2.259   5.410  11.279  0.3952 -0.9966 -1.0973
16675TIP3    H271441   2.110   5.416  11.252  0.4460  1.0011 -1.0190
16676TIP3   OH271442   4.067   0.731  16.441  0.1150  0.1462  0.5113
16676TIP3    H171443   4.110   0.675  16.376 -1.5400 -0.0223 -0.4714
16676TIP3    H271444   4.019   0.670  16.497 -0.8800  0.4944  0.0502
16677TIP3   OH271445   3.144   4.234   5.056  0.6735 -0.1390  0.3196
16677TIP3    H171446   3.066   4.180   5.038  1.5251 -0.8767 -1.2683
16677TIP3    H271447   3.122   4.281   5.136 -1.4787 -0.2313 -0.1715
16678TIP3   OH271448   3.089   6.484   3.342  0.0016  0.1363 -0.4460
16678TIP3    H171449   2.997   6.461   3.352  0.2573 -0.5726  0.3897
16678TIP3    H271450   3.106   6.548   3.411 -0.2733  1.5293 -1.6584
16679TIP3   OH271451   3.902   1.139  14.570  0.5712  1.2760  0.1515
16679TIP3    H171452   3.992   1.127  14.602  0.1168  0.5531  1.1924
16679TIP3    H271453   3.905   1.109  14.479  1.4502  1.5283  0.0904
16680TIP3   OH271454   2.305   3.979  10.550  0.0578  0.2063 -0.1938
16680TIP3    H171455   2.219   3.984  10.507  1.1161  0.4323 -2.3039
16680TIP3    H271456   2.336   3.890  10.534  0.9222  0.6122 -0.7821
16681TIP3   OH271457   2.543   3.905   0.807 -0.7221  0.2793 -0.4963
16681TIP3    H171458   2.553   3.899   0.902 -1.0405 -0.1603 -0.4897
16681TIP3    H271459   2.611   3.848   0.772  0.1032  1.2924 -0.5571
16682TIP3   OH271460   6.671   4.661  17.037  0.0365  0.5043 -0.1130
16682TIP3    H171461   6.613   4.725  16.996 -0.0721  0.7229  0.3781
16682TIP3    H271462   6.615   4.616  17.100 -0.2854 -1.1229 -1.5253
16683TIP3   OH271463   4.019   0.524   5.144 -0.1952 -0.3327 -0.4793
16683TIP3    H171464   4.032   0.465   5.219  0.1314 -1.0556 -1.0938
16683TIP3    H271465   3.957   0.477   5.088 -2.0343  1.0956  0.2866
16684TIP3   OH271466   3.525   3.303   3.854  0.4757 -0.0417 -0.1556
16684TIP3    H171467   3.446   3.348   3.883 -0.1487 -0.6181 -0.9438
16684TIP3    H271468   3.521   3.306   3.758  1.5132  0.1012 -0.2053
16685TIP3   OH271469   6.522   5.506  16.073 -0.1866 -0.0649 -0.4274
16685TIP3    H171470   6.428   5.500  16.057  0.3252  0.7793 -4.0716
16685TIP3    H271471   6.547   5.592  16.038  2.0805 -0.6006 -0.1894
16686TIP3   OH271472   5.396   4.156   1.867  1.0964  0.4393  0.4132
16686TIP3    H171473   5.366   4.081   1.918 -2.5773 -0.3543 -2.6184
16686TIP3    H271474   5.341   4.229   1.897  0.8667  0.6155 -0.4222
16687TIP3   OH271475   3.760   5.133  11.967  0.6022  0.3739 -0.3596
16687TIP3    H171476   3.811   5.073  11.911 -0.2132 -0.8096  0.1457
16687TIP3    H271477   3.694   5.170  11.908 -0.4125 -1.0572 -0.1576
16688TIP3   OH271478   2.393   5.951   1.948  0.0288 -0.0363  0.3834
16688TIP3    H171479   2.417   5.924   1.859 -0.3526 -0.5896  0.4440
16688TIP3    H271480   2.366   5.870   1.991 -1.3223  0.4730  0.5217
16689TIP3   OH271481   2.174   3.888   4.008  0.0843  0.1287  0.1094
16689TIP3    H171482   2.145   3.972   4.044  0.8418  0.7050 -0.6098
16689TIP3    H271483   2.267   3.901   3.990  0.2359 -0.9087  0.1087
16690TIP3   OH271484   4.235   3.384  16.367  0.3252 -0.0605 -0.0555
16690TIP3    H171485   4.164   3.322  16.347 -0.1265  0.4128  0.0662
16690TIP3    H271486   4.304   3.329  16.404  0.2014 -0.5933 -0.5968
16691TIP3   OH271487   1.469   5.608  16.504 -0.5220  0.4651  0.4238
16691TIP3    H171488   1.404   5.579  16.439  0.0005 -2.2224  1.0416
16691TIP3    H271489   1.547   5.557  16.484  1.8209  4.3132 -0.8895
16692TIP3   OH271490   0.170   2.194  13.389  0.0984 -0.0370 -0.5558
16692TIP3    H171491   0.108   2.183  13.317  0.0582 -2.5340 -0.1816
16692TIP3    H271492   0.235   2.255  13.356  0.1917 -1.3276 -2.8017
16693TIP3   OH271493   2.730   2.502   2.842 -0.6132 -0.4382 -0.2784
16693TIP3    H171494   2.666   2.503   2.771 -1.3336 -0.4479  0.3698
16693TIP3    H271495   2.813   2.479   2.799 -0.7707  0.8685 -1.3268
16694TIP3   OH271496   5.807   5.069  12.017 -0.0225  0.2003 -0.2341
16694TIP3    H171497   5.768   5.155  12.036  0.2855  0.3399 -0.2275
16694TIP3    H271498   5.737   5.020  11.973 -0.1607  0.4959 -0.3475
16695TIP3   OH271499   6.579   6.592  15.525 -0.6701  0.7028 -0.3978
16695TIP3    H171500   6.670   6.589  15.554 -0.0929 -0.6836 -2.2339
16695TIP3    H271501   6.529   6.610  15.604  1.1593  0.9810  0.7281
16696TIP3   OH271502   5.639   2.940   4.374 -0.0870 -0.3723 -0.2702
16696TIP3    H171503   5.590   2.932   4.293  0.1661  1.7420 -0.6474
16696TIP3    H271504   5.716   2.884   4.362 -0.7852 -1.2101 -0.8900
16697TIP3   OH271505   4.831   1.367   5.893  0.0119  0.1443  0.1246
16697TIP3    H171506   4.789   1.379   5.808  0.6791  0.0368 -0.2196
16697TIP3    H271507   4.759   1.376   5.957 -0.5113  0.0654 -0.4524
16698TIP3   OH271508   1.112   5.288  14.855  0.0129  0.0403  0.0557
16698TIP3    H171509   1.155   5.217  14.903 -0.1183  0.5037  0.8523
16698TIP3    H271510   1.019   5.266  14.859 -0.2192  1.2702  1.9773
16699TIP3   OH271511   1.913   2.687   4.834  0.1142  0.1418  0.0934
16699TIP3    H171512   1.925   2.677   4.740  0.5478  1.8164 -0.0402
16699TIP3    H271513   1.994   2.653   4.872  0.2628  0.1785 -0.1852
16700TIP3   OH271514   5.519   4.717   2.876 -0.4394  0.0871  0.2938
16700TIP3    H171515   5.515   4.671   2.960 -1.7228 -2.1246 -0.9109
16700TIP3    H271516   5.555   4.803   2.897  0.5213 -0.8928  2.8935
16701TIP3   OH271517   0.465   6.367  16.314 -0.2254  0.1913  0.7251
16701TIP3    H171518   0.489   6.438  16.254 -0.6619 -1.2351 -1.2073
16701TIP3    H271519   0.547   6.345  16.359  0.2774  0.8306  0.1334
16702TIP3   OH271520   1.026   3.741  11.029  0.7266  0.6307  0.4296
16702TIP3    H171521   0.933   3.729  11.009  0.8295 -0.8653  0.8169
16702TIP3    H271522   1.046   3.830  10.998 -0.7320  0.8168  0.0011
16703TIP3   OH271523   4.168   4.562  11.701  0.0383  0.0238  0.0235
16703TIP3    H171524   4.246   4.550  11.648  1.0170  1.3034  1.1720
16703TIP3    H271525   4.147   4.655  11.694 -2.8601 -0.7149 -2.3014
16704TIP3   OH271526   2.425   2.151  11.423 -0.3895 -0.2191 -0.1030
16704TIP3    H171527   2.473   2.119  11.499  2.4494  3.0354 -0.4235
16704TIP3    H271528   2.478   2.123  11.348 -1.2502 -0.2260 -0.7164
16705TIP3   OH271529   1.930   0.662   0.356 -0.3909  0.3452 -0.3669
16705TIP3    H171530   1.981   0.586   0.329 -0.4264 -0.0656  0.6840
16705TIP3    H271531   1.922   0.716   0.277  0.1339 -0.4571 -0.9694
16706TIP3   OH271532   0.460   3.248  16.885 -0.2203  0.6175 -0.2460
16706TIP3    H171533   0.465   3.155  16.863 -1.2660  0.4617  0.1224
16706TIP3    H271534   0.367   3.263  16.904 -0.1320  1.8354 -0.7217
16707TIP3   OH271535   4.194   1.311  14.240 -0.1081 -0.2366 -0.1856
16707TIP3    H171536   4.127   1.313  14.308 -1.3341  0.0863 -1.3817
16707TIP3    H271537   4.160   1.252  14.173  0.7194  0.0550 -0.8880
16708TIP3   OH271538   2.008   5.052   1.958 -0.2263  0.0836  0.1638
16708TIP3    H171539   1.917   5.022   1.965  0.0050 -0.4297  0.9960
16708TIP3    H271540   2.054   4.978   1.919 -0.1168  0.2582 -0.0372
16709TIP3   OH271541   1.705   3.942   4.868  0.3316  0.0598  0.3282
16709TIP3    H171542   1.642   4.009   4.845 -1.0197 -1.2221  0.1814
16709TIP3    H271543   1.720   3.893   4.787  0.5468 -0.4208  0.6499
16710TIP3   OH271544   6.347   2.143  11.863 -0.2374 -0.1350 -0.1035
16710TIP3    H171545   6.273   2.134  11.803  0.5340 -1.7464 -0.8262
16710TIP3    H271546   6.412   2.193  11.814 -0.5638  0.6865  0.2869
16711TIP3   OH271547   4.322   0.163   5.461  0.1200 -0.3677  0.0322
16711TIP3    H171548   4.285   0.125   5.541 -0.1109  0.5890  0.3829
16711TIP3    H271549   4.414   0.177   5.482 -0.1796  0.9246  0.5253
16712TIP3   OH271550   3.534   0.106   5.957 -0.6738 -0.3755  0.5958
16712TIP3    H171551   3.609   0.090   6.014 -1.3172 -0.0809  1.5395
16712TIP3    H271552   3.563   0.176   5.898 -0.0609 -0.5796  0.6484
16713TIP3   OH271553   2.829   6.034   4.057 -0.4121 -0.1132 -0.2370
16713TIP3    H171554   2.877   5.977   4.117  1.5772 -1.8221 -3.3088
16713TIP3    H271555   2.737   6.023   4.081  0.3300 -0.7721  2.4455
16714TIP3   OH271556   2.214   0.164  15.849 -0.1050  0.7612 -0.5883
16714TIP3    H171557   2.247   0.169  15.760 -1.5400  0.2270 -1.1746
16714TIP3    H271558   2.291   0.174  15.905  1.0600 -0.7534 -1.9003
16715TIP3   OH271559   2.739   5.273  13.815 -0.2323  0.7846 -0.2422
16715TIP3    H171560   2.721   5.182  13.835 -1.4987  0.9387 -0.6075
16715TIP3    H271561   2.706   5.322  13.890  2.2208  0.8285  0.8542
16716TIP3   OH271562   1.609   3.711  16.927 -0.1013 -0.2066 -0.2771
16716TIP3    H171563   1.649   3.790  16.962 -2.3037  0.3856  0.9460
16716TIP3    H271564   1.597   3.654  17.002  1.4371 -1.7415 -1.1411
16717TIP3   OH271565   6.738   3.919   0.810  0.2483  0.0627  0.1567
16717TIP3    H171566   6.661   3.910   0.865 -1.3360  1.9215 -1.6753
16717TIP3    H271567   6.715   3.873   0.729  1.0177  0.7188 -0.4382
16718TIP3   OH271568   0.251   2.908  13.164 -0.6614  0.2878 -0.1361
16718TIP3    H171569   0.318   2.872  13.223 -0.8605 -3.4108 -2.0015
16718TIP3    H271570   0.169   2.897  13.213 -0.5684 -0.7047 -0.1869
16719TIP3   OH271571   0.675   4.630   0.317 -0.3519 -0.5900 -0.0438
16719TIP3    H171572   0.648   4.545   0.281 -1.0105 -0.4556  0.1272
16719TIP3    H271573   0.748   4.608   0.375  0.5711 -0.8301 -1.2794
16720TIP3   OH271574   4.440   2.044  12.084  0.0772  0.4785 -0.0674
16720TIP3    H171575   4.397   2.018  12.165  0.5750 -1.0511 -0.2717
16720TIP3    H271576   4.457   1.961  12.038  0.2629  1.2838 -1.4907
16721TIP3   OH271577   4.731   5.196   1.701 -0.3501  0.2789 -0.4166
16721TIP3    H171578   4.718   5.198   1.796  0.5596 -3.6418 -0.1345
16721TIP3    H271579   4.827   5.197   1.690 -0.4203 -1.2377 -1.2020
16722TIP3   OH271580   6.654   1.286  16.136  0.0748  0.2249  0.3508
16722TIP3    H171581   6.568   1.260  16.170 -0.9105  0.4752 -1.8718
16722TIP3    H271582   6.710   1.292  16.214 -1.3267 -2.1184  1.5924
16723TIP3   OH271583   2.743   2.702   4.314 -0.3003  0.4208 -0.6010
16723TIP3    H171584   2.729   2.764   4.242  0.2260 -0.4761 -1.4847
16723TIP3    H271585   2.780   2.625   4.272  1.1347  0.3268  0.8089
16724TIP3   OH271586   4.478   4.776   4.073 -0.4051  0.1468 -0.0935
16724TIP3    H171587   4.481   4.862   4.116 -1.1862  1.0370 -1.7878
16724TIP3    H271588   4.413   4.726   4.123 -0.3834  0.7283  0.5249
16725TIP3   OH271589   5.234   1.537   0.964 -0.8978 -0.3391  0.3335
16725TIP3    H171590   5.196   1.459   0.923 -0.9301 -0.6575  0.9581
16725TIP3    H271591   5.171   1.607   0.946  0.2421  0.0831 -2.2382
16726TIP3   OH271592   0.164   6.715   5.887  0.1916 -0.6155 -0.0861
16726TIP3    H171593   0.165   6.655   5.812  0.4734  0.9847 -1.4069
16726TIP3    H271594   0.072   6.739   5.897  0.0136 -1.6229  0.7474
16727TIP3   OH271595   6.528   5.104  13.407 -0.4108 -0.4972  0.3827
16727TIP3    H171596   6.614   5.133  13.378  0.2307 -1.2684  1.4564
16727TIP3    H271597   6.499   5.042  13.340  0.4624 -1.2494  0.6878
16728TIP3   OH271598   1.312   2.423  16.739  0.4672  0.3345 -0.1878
16728TIP3    H171599   1.262   2.503  16.726 -1.1461 -0.8480 -1.4995
16728TIP3    H271600   1.335   2.394  16.651  1.8675 -0.1604  0.3160
16729TIP3   OH271601   4.012   3.836  14.205  0.0336  0.1505  0.0206
16729TIP3    H171602   4.056   3.756  14.177 -0.1277  0.4394 -1.0737
16729TIP3    H271603   3.932   3.839  14.152 -0.4885  0.4857  0.8166
16730TIP3   OH271604   3.112   0.953  11.329 -0.4827 -0.1411  0.5760
16730TIP3    H171605   3.182   0.890  11.315 -0.1387  0.2267  0.6448
16730TIP3    H271606   3.155   1.029  11.367 -0.5290  1.0172 -1.6160
16731TIP3   OH271607   1.222   0.591  13.452 -0.3711 -0.0297 -0.6858
16731TIP3    H171608   1.227   0.508  13.404 -0.7620 -0.3031 -0.2605
16731TIP3    H271609   1.135   0.590  13.492  0.5023 -0.5094  1.2556
16732TIP3   OH271610   0.955   0.837   1.011 -0.6326 -0.2346 -0.1111
16732TIP3    H171611   0.935   0.931   1.006 -0.3066 -0.2199 -1.1958
16732TIP3    H271612   0.949   0.806   0.921  0.7444 -0.9627  0.0349
16733TIP3   OH271613   2.232   6.518  12.132 -0.1871  0.6245  0.2737
16733TIP3    H171614   2.303   6.455  12.132 -0.1730  0.6132  2.2319
16733TIP3    H271615   2.210   6.530  12.040  2.5159  0.8155 -0.3908
16734TIP3   OH271616   1.735   3.761  11.751 -0.7992 -0.1957 -0.0241
16734TIP3    H171617   1.702   3.770  11.662 -1.1174  0.6132  0.1740
16734TIP3    H271618   1.742   3.851  11.783  0.1570 -0.4352  0.4569
16735TIP3   OH271619   2.883   2.089   1.334  0.3422  0.4133  0.0934
16735TIP3    H171620   2.811   2.109   1.394 -0.7495  1.7827 -1.6171
16735TIP3    H271621   2.955   2.144   1.364  0.1627  0.2630  0.8124
16736TIP3   OH271622   0.437   2.110   0.056 -0.0507 -0.5682  0.7438
16736TIP3    H171623   0.427   2.053  -0.020  1.2595  0.0487  0.0767
16736TIP3    H271624   0.407   2.196   0.025  0.3924 -0.3387  0.9460
16737TIP3   OH271625   2.943   6.090   5.849 -0.1342  0.3746 -0.3639
16737TIP3    H171626   3.017   6.148   5.834  1.3588 -1.4605 -0.1744
16737TIP3    H271627   2.925   6.099   5.943  0.5136  0.0216 -0.2069
16738TIP3   OH271628   3.345   6.779  14.477  0.1600 -0.5505  0.2412
16738TIP3    H171629   3.266   6.806  14.430  1.6849 -2.1923 -3.5021
16738TIP3    H271630   3.417   6.821  14.429  1.6407  0.5286  3.2892
16739TIP3   OH271631   3.207   0.850  12.599 -0.3206  0.1019  0.2878
16739TIP3    H171632   3.227   0.944  12.607 -2.3174  0.4436  1.7309
16739TIP3    H271633   3.140   0.845  12.531 -0.2140 -0.2752  0.2105
16740TIP3   OH271634   5.046   1.970  14.015 -0.2071 -0.6549  0.1251
16740TIP3    H171635   4.976   1.932  13.961  1.7052 -1.0422 -2.1633
16740TIP3    H271636   5.002   1.998  14.095 -3.2408  0.3698 -1.8274
16741TIP3   OH271637   1.004   0.900  14.571 -0.3168  0.0596 -0.5180
16741TIP3    H171638   1.075   0.955  14.539 -0.0504 -0.1784 -0.3366
16741TIP3    H271639   0.926   0.956  14.566  0.2006  0.9612  1.0631
16742TIP3   OH271640   4.748   0.150  13.670 -0.0571  0.2106 -0.5008
16742TIP3    H171641   4.735   0.205  13.747  0.5915 -1.5315  0.8683
16742TIP3    H271642   4.678   0.177  13.610 -1.1834  0.8779  1.0806
16743TIP3   OH271643   2.201   3.105   1.601  0.1687  0.2170  0.3428
16743TIP3    H171644   2.166   3.175   1.655  0.0676 -0.8357  1.6663
16743TIP3    H271645   2.240   3.150   1.526 -1.0517  1.6026  0.5120
16744TIP3   OH271646   4.090   6.503  11.224 -0.0201 -0.4642  0.1893
16744TIP3    H171647   4.078   6.595  11.247  0.4031 -0.6088  1.0409
16744TIP3    H271648   4.185   6.492  11.222 -0.0701 -1.2800  1.7749
16745TIP3   OH271649   1.894   6.657  12.828 -0.0944 -0.0324 -0.1878
16745TIP3    H171650   1.878   6.621  12.916 -1.5045  1.1375  0.0398
16745TIP3    H271651   1.851   6.595  12.769  0.2778 -0.4567 -0.0261
16746TIP3   OH271652   2.831   3.823  16.794 -0.2977 -0.0520 -0.1516
16746TIP3    H171653   2.809   3.730  16.800 -0.3383 -0.0315 -0.0024
16746TIP3    H271654   2.885   3.829  16.715  0.2919 -0.3192  0.2220
16747TIP3   OH271655   4.278   6.138   5.634 -0.1221  0.2726 -0.8490
16747TIP3    H171656   4.192   6.095   5.643  0.0899  0.0226  0.0584
16747TIP3    H271657   4.257   6.231   5.632 -0.3954  0.2250 -0.3268
16748TIP3   OH271658   5.708   5.664  11.261  0.1364  0.1052 -0.0051
16748TIP3    H171659   5.741   5.737  11.208 -1.8123  0.4679 -0.7610
16748TIP3    H271660   5.775   5.653  11.329  1.5134  1.1903 -1.1213
16749TIP3   OH271661   3.673   3.799  16.680 -0.6931 -0.5872 -0.2488
16749TIP3    H171662   3.694   3.878  16.630 -1.1937 -0.4986 -0.3228
16749TIP3    H271663   3.745   3.790  16.742 -0.8286  0.1399  0.0182
16750TIP3   OH271664   6.213   0.282   2.958  0.1051  0.6554  0.6119
16750TIP3    H171665   6.200   0.233   3.039  0.9957 -1.2512 -0.3525
16750TIP3    H271666   6.306   0.304   2.957 -0.0336  1.2427  0.4243
16751TIP3   OH271667   0.118   3.796   5.841 -0.0790 -0.1669 -0.2013
16751TIP3    H171668   0.111   3.798   5.937 -0.0681 -1.5227 -0.1627
16751TIP3    H271669   0.027   3.789   5.811 -0.0057 -0.9977 -0.2427
16752TIP3   OH271670   3.254   0.153  10.624  0.1197  0.0859  0.2068
16752TIP3    H171671   3.224   0.101  10.699 -1.4406 -0.8441 -1.0407
16752TIP3    H271672   3.304   0.092  10.570  0.1083  0.4275 -0.1894
16753TIP3   OH271673   6.535   4.304  16.780 -0.0720 -0.1332  0.2069
16753TIP3    H171674   6.467   4.281  16.716  2.1467  0.7098 -2.5644
16753TIP3    H271675   6.614   4.315  16.727  2.0209 -0.1700  3.2483
16754TIP3   OH271676   1.385   1.455   0.674  0.0179 -0.5270 -0.0374
16754TIP3    H171677   1.460   1.471   0.618  0.1258 -0.1357  0.2203
16754TIP3    H271678   1.309   1.462   0.616 -0.1180  3.1012  0.4691
16755TIP3   OH271679   4.233   2.258  14.492  0.2034  0.1793  0.4958
16755TIP3    H171680   4.316   2.301  14.469  0.1018  0.2037  0.1756
16755TIP3    H271681   4.174   2.331  14.512 -0.3955  0.2609 -1.4554
16756TIP3   OH271682   2.329   1.081  14.851  0.0625  0.0011 -0.0759
16756TIP3    H171683   2.240   1.117  14.854  0.3648  0.7278  0.3655
16756TIP3    H271684   2.321   1.001  14.798 -0.9044 -0.0896  0.1967
16757TIP3   OH271685   3.899   5.478  17.221  0.2442  0.3221 -0.3409
16757TIP3    H171686   3.941   5.436  17.295  0.4153  0.1894 -0.5121
16757TIP3    H271687   3.952   5.557  17.205 -0.6584  1.1188  0.5974
16758TIP3   OH271688   6.675   3.034   5.597 -0.0801  0.4691  0.3523
16758TIP3    H171689   6.699   3.072   5.682 -0.1160  1.9722 -0.2951
16758TIP3    H271690   6.750   2.981   5.572  1.3916  2.8410 -0.3150
16759TIP3   OH271691   5.767   0.798   5.975 -0.4882 -0.1732 -0.1164
16759TIP3    H171692   5.834   0.765   6.036  0.4797 -1.4098 -1.7832
16759TIP3    H271693   5.722   0.867   6.023 -0.0546 -1.4302  2.1618
16760TIP3   OH271694   6.533   3.340   2.216 -0.2638 -0.8447 -0.4613
16760TIP3    H171695   6.528   3.293   2.133 -0.2219 -1.9468  0.1409
16760TIP3    H271696   6.535   3.270   2.282  0.6647  0.0026  0.4141
16761TIP3   OH271697   4.278   3.743  14.775 -0.3577  0.1330  0.4662
16761TIP3    H171698   4.259   3.684  14.703 -0.0032 -0.6228  0.9803
16761TIP3    H271699   4.206   3.730  14.837 -0.1994  0.1233  0.6502
16762TIP3   OH271700   4.454   0.138  15.808  0.2156 -0.4552 -0.5095
16762TIP3    H171701   4.431   0.122  15.716 -0.0433  1.7852 -0.8512
16762TIP3    H271702   4.539   0.181  15.805 -1.3335  2.8437  0.0533
16763TIP3   OH271703   3.069   4.908  11.574 -0.4577  0.3551  0.4886
16763TIP3    H171704   3.147   4.853  11.561 -0.1391  0.6255  1.2135
16763TIP3    H271705   3.095   4.994  11.541 -0.3344  0.5266  1.0238
16764TIP3   OH271706   2.962   6.452  15.776 -0.1294 -0.2279  0.3201
16764TIP3    H171707   2.917   6.386  15.829  0.0088 -0.3628  0.2674
16764TIP3    H271708   2.891   6.495  15.728 -0.1232 -1.0167 -0.4070
16765TIP3   OH271709   6.522   5.610  13.852 -0.0023  0.1667 -0.1253
16765TIP3    H171710   6.487   5.596  13.940  0.5823  1.1903  0.2753
16765TIP3    H271711   6.494   5.698  13.829  0.1195  0.0185 -0.8415
16766TIP3   OH271712   5.121   0.752  12.649 -0.0456  0.3852 -0.3745
16766TIP3    H171713   5.054   0.810  12.687  1.1934  0.4729  1.7731
16766TIP3    H271714   5.071   0.677  12.615 -1.5673  2.1944 -2.2692
16767TIP3   OH271715   2.645   0.108   0.668 -0.0037  0.1734 -0.0629
16767TIP3    H171716   2.654   0.189   0.618  0.4807  2.4614  3.5484
16767TIP3    H271717   2.553   0.084   0.658 -0.7838  2.6365  0.9270
16768TIP3   OH271718   2.528   5.258  12.934 -0.1544  0.0774 -0.4293
16768TIP3    H171719   2.563   5.302  13.011 -0.1541 -1.6881  0.5917
16768TIP3    H271720   2.570   5.303  12.860  2.0698 -0.0959  0.6849
16769TIP3   OH271721   4.463   6.071  13.678  0.2932 -0.5049 -0.3441
16769TIP3    H171722   4.430   6.128  13.609 -2.5715  0.3093  1.5990
16769TIP3    H271723   4.421   5.987  13.663  1.0967 -0.8543 -0.6501
16770TIP3   OH271724   0.158   5.884  14.481 -0.2370 -0.1018 -0.1018
16770TIP3    H171725   0.129   5.963  14.526 -1.1014 -0.5068  0.0596
16770TIP3    H271726   0.188   5.826  14.551 -3.5028 -1.5421  0.1898
16771TIP3   OH271727   3.816   6.071   4.278  0.0013  0.2330 -0.4447
16771TIP3    H171728   3.893   6.032   4.321 -0.5534 -1.1575 -0.6654
16771TIP3    H271729   3.753   6.081   4.349 -1.0509 -2.4153 -0.9586
16772TIP3   OH271730   2.510   0.971   5.345 -0.1490 -0.2585 -0.1250
16772TIP3    H171731   2.423   1.006   5.329 -0.5777  0.3572  3.1170
16772TIP3    H271732   2.567   1.020   5.285 -2.0492 -1.0353 -2.6402
16773TIP3   OH271733   0.298   0.033   1.125  0.2082  0.0465 -0.0660
16773TIP3    H171734   0.354   0.054   1.050  0.3875  0.3140  0.1469
16773TIP3    H271735   0.210   0.027   1.087  0.1423  1.2450 -0.1084
16774TIP3   OH271736   1.690   6.267  16.934 -0.0324  0.3909  0.0335
16774TIP3    H171737   1.729   6.182  16.956  1.1498  0.7336 -0.7113
16774TIP3    H271738   1.624   6.246  16.868  0.5084  0.0980 -0.4129
16775TIP3   OH271739   0.887   1.189   3.791  0.0930 -0.6193 -0.1043
16775TIP3    H171740   0.968   1.146   3.816  0.5895  1.3415  1.8425
16775TIP3    H271741   0.822   1.157   3.854 -0.3804 -1.2033 -0.8677
16776TIP3   OH271742   1.530   5.681  16.974  0.2630  0.5859 -0.4544
16776TIP3    H171743   1.537   5.723  16.889  1.0266 -1.3140 -1.3647
16776TIP3    H271744   1.620   5.654  16.994 -0.1300 -0.1526  0.3339
16777TIP3   OH271745   3.100   3.638  15.680 -0.0011 -0.0483  0.1347
16777TIP3    H171746   3.084   3.733  15.681 -2.2462 -0.3716 -1.9349
16777TIP3    H271747   3.022   3.601  15.639  1.1035 -2.7723  0.4147
16778TIP3   OH271748   0.597   6.548  11.135 -0.3273  0.4317 -0.2440
16778TIP3    H171749   0.564   6.503  11.058  1.0576  0.5240 -0.9160
16778TIP3    H271750   0.649   6.621  11.100  0.6463  0.2394  0.7528
16779TIP3   OH271751   2.715   3.616   3.392 -0.2638  0.4294  0.1704
16779TIP3    H171752   2.647   3.675   3.360  2.0704  3.3588  0.3524
16779TIP3    H271753   2.790   3.633   3.336  0.9870 -1.2001  1.2972
16780TIP3   OH271754   3.128   2.493   4.364 -0.5782 -0.0021 -0.2138
16780TIP3    H171755   3.133   2.421   4.301 -2.6124 -0.3245 -0.0304
16780TIP3    H271756   3.166   2.458   4.444  0.7490 -0.0362 -0.8382
16781TIP3   OH271757   6.071   2.965   2.951 -0.1254  0.0994  0.2699
16781TIP3    H171758   6.095   3.002   3.036  1.1005 -0.2555  0.0863
16781TIP3    H271759   6.003   2.900   2.971  1.1337 -0.9790  1.1520
16782TIP3   OH271760   0.558   2.303   3.178 -0.1445  0.7411  0.2776
16782TIP3    H171761   0.638   2.337   3.217  0.9807 -0.2294 -1.1366
16782TIP3    H271762   0.488   2.355   3.217  0.7408 -1.2583  4.9291
16783TIP3   OH271763   3.106   1.240   1.588  0.0941 -0.4650 -0.5617
16783TIP3    H171764   3.128   1.219   1.497  1.8299 -0.0822 -0.2361
16783TIP3    H271765   3.114   1.157   1.634  2.4158 -0.0512 -0.1584
16784TIP3   OH271766   4.977   1.869  11.488  0.3526 -0.3082  0.3196
16784TIP3    H171767   5.024   1.928  11.547  0.4491 -1.1781  1.1290
16784TIP3    H271768   4.968   1.788  11.538  1.2014 -1.3565 -1.1873
16785TIP3   OH271769   3.731   2.535   3.635 -0.6072  0.4057 -0.9975
16785TIP3    H171770   3.710   2.625   3.658 -0.8132  0.1745 -0.2651
16785TIP3    H271771   3.653   2.503   3.590 -0.8378  0.3433 -0.5509
16786TIP3   OH271772   0.621   0.935  15.047 -0.2709 -0.4711 -0.3233
16786TIP3    H171773   0.652   0.854  15.008  0.8481 -0.2345  0.0541
16786TIP3    H271774   0.673   1.004  15.004  0.5796 -0.1693  1.1538
16787TIP3   OH271775   2.980   3.697  12.436 -0.2639  0.3579  0.5165
16787TIP3    H171776   2.945   3.608  12.443 -0.2645  0.5385  3.6427
16787TIP3    H271777   3.033   3.696  12.356 -0.2157 -2.4709  0.5313
16788TIP3   OH271778   1.624   0.979  17.088  0.1252  0.6289 -0.3344
16788TIP3    H171779   1.533   0.954  17.072  0.0321  0.1397  0.8672
16788TIP3    H271780   1.617   1.066  17.128  0.1069  0.0539  0.9242
16789TIP3   OH271781   4.646   0.791  14.199 -0.1686 -1.4679  0.0997
16789TIP3    H171782   4.704   0.789  14.123  0.8711  0.2044  0.8248
16789TIP3    H271783   4.654   0.703  14.237  3.5385 -0.6765  1.3743
16790TIP3   OH271784   6.541   3.992   6.247  0.0180 -0.1749 -0.0797
16790TIP3    H171785   6.560   3.913   6.298  0.2753 -0.8161 -1.1505
16790TIP3    H271786   6.446   3.999   6.249 -0.0116 -0.5458 -0.0367
16791TIP3   OH271787   1.749   3.307   2.273 -0.1283 -0.0232 -0.3929
16791TIP3    H171788   1.751   3.229   2.327 -1.7371  0.3518  0.2611
16791TIP3    H271789   1.814   3.366   2.312  0.8230 -0.8772 -0.6726
16792TIP3   OH271790   1.722   6.083  16.109 -0.3973  0.8850 -0.0182
16792TIP3    H171791   1.726   6.175  16.136 -0.3022  1.0957 -0.7233
16792TIP3    H271792   1.781   6.078  16.033  0.2143  0.0707  0.4980
16793TIP3   OH271793   2.284   3.167   2.150  0.5886 -0.3311  0.2517
16793TIP3    H171794   2.223   3.178   2.223  0.4692 -2.1840  0.4746
16793TIP3    H271795   2.234   3.192   2.073  0.9634  2.3976  0.8650
16794TIP3   OH271796   1.129   2.541  12.078 -0.3885 -0.0072  0.4021
16794TIP3    H171797   1.077   2.480  12.026 -0.9535  0.5333  0.3322
16794TIP3    H271798   1.088   2.543  12.164 -0.0667 -0.1147  0.5604
16795TIP3   OH271799   2.489   3.429  15.717 -0.1812  0.4593  0.1631
16795TIP3    H171800   2.582   3.409  15.709 -0.3312 -0.1360 -0.1293
16795TIP3    H271801   2.448   3.345  15.738 -0.7641  0.5347 -0.6277
16796TIP3   OH271802   1.825   4.797  14.617 -0.4026 -0.2552  0.5901
16796TIP3    H171803   1.787   4.866  14.563 -1.8025  0.7174  2.7077
16796TIP3    H271804   1.780   4.717  14.589  2.8822 -0.7739 -3.4612
16797TIP3   OH271805   2.489   2.930  14.315  0.2487  0.4757  0.1224
16797TIP3    H171806   2.428   2.971  14.253  0.4490 -0.0699 -0.4454
16797TIP3    H271807   2.487   2.987  14.392  0.0338  1.1916 -0.4046
16798TIP3   OH271808   0.230   2.513   3.947  0.1288  0.4930 -0.3411
16798TIP3    H171809   0.280   2.518   3.865  0.8573 -2.3792 -0.1257
16798TIP3    H271810   0.277   2.571   4.007  1.2133  0.4491 -1.1275
16799TIP3   OH271811   0.076   3.434  11.772  0.4390 -0.6047 -0.3445
16799TIP3    H171812   0.085   3.402  11.862  1.0040  0.1312 -0.1370
16799TIP3    H271813   0.010   3.377  11.733  0.9781 -1.6116  0.2106
16800TIP3   OH271814   3.689   4.876  12.863 -0.5399  0.7280 -0.4352
16800TIP3    H171815   3.665   4.802  12.918 -0.1947  0.2902 -0.8693
16800TIP3    H271816   3.611   4.894  12.812 -1.1062  1.6119  0.7155
16801TIP3   OH271817   6.216   5.917   1.260 -0.2606  0.4817 -0.3398
16801TIP3    H171818   6.176   5.985   1.205 -0.6307 -0.4704 -1.2555
16801TIP3    H271819   6.151   5.901   1.329 -1.0715 -0.4083 -1.2988
16802TIP3   OH271820   3.203   3.979  15.301  0.0467 -0.6637  0.2426
16802TIP3    H171821   3.224   3.887  15.314 -0.1167 -0.4636  2.1277
16802TIP3    H271822   3.287   4.021  15.282  0.2838 -1.0237  0.5013
16803TIP3   OH271823   5.776   3.723   1.755 -0.4075  0.2484 -0.0712
16803TIP3    H171824   5.784   3.678   1.671  0.6333 -1.5190  0.9207
16803TIP3    H271825   5.682   3.730   1.770 -0.5980 -1.8044 -0.1771
16804TIP3   OH271826   6.333   6.581  13.232 -0.5523  0.3201 -0.6656
16804TIP3    H171827   6.284   6.659  13.207 -0.5266  0.2919 -0.8086
16804TIP3    H271828   6.267   6.520  13.265 -0.2600  1.4190  2.0492
16805TIP3   OH271829   1.717   5.950   4.691  0.2878  0.4777  0.1363
16805TIP3    H171830   1.638   6.004   4.682 -1.4180 -1.9404  0.1171
16805TIP3    H271831   1.777   6.003   4.743 -1.9152  1.7726  1.4215
16806TIP3   OH271832   4.572   3.065   3.795 -0.0225 -0.5843  0.0509
16806TIP3    H171833   4.565   2.981   3.750 -2.0371  1.1066 -2.9885
16806TIP3    H271834   4.513   3.057   3.870 -2.4264 -0.9585 -1.8179
16807TIP3   OH271835   3.647   3.474  16.199  0.1488  0.3261 -0.6814
16807TIP3    H171836   3.627   3.408  16.132 -0.3697 -0.0801 -0.1275
16807TIP3    H271837   3.722   3.438  16.247 -1.1719 -0.6357  0.6844
16808TIP3   OH271838   2.172   5.275  12.352 -0.3436 -0.0714 -0.5472
16808TIP3    H171839   2.186   5.206  12.288 -0.2579 -1.5511  1.0359
16808TIP3    H271840   2.259   5.309  12.371 -0.1735 -0.9559  0.2375
16809TIP3   OH271841   1.500   0.087   6.141  0.1100 -0.6001 -0.3767
16809TIP3    H171842   1.540   0.073   6.226 -0.9538 -1.0966  0.0592
16809TIP3    H271843   1.454   0.171   6.150  0.2576 -0.4985 -0.5649
16810TIP3   OH271844   2.159   2.186  12.439 -0.6283 -0.0714 -0.6172
16810TIP3    H171845   2.113   2.269  12.449 -0.2980  0.0823 -0.3515
16810TIP3    H271846   2.251   2.211  12.427 -0.1344 -0.4624  1.9901
16811TIP3   OH271847   5.542   2.081  14.330  0.1072 -0.7948 -0.2643
16811TIP3    H171848   5.545   2.155  14.270 -1.4200 -0.2654  0.2698
16811TIP3    H271849   5.472   2.025  14.296  0.1135 -1.1443  0.2785
16812TIP3   OH271850   0.223   3.918  13.172 -0.0072  0.1648 -0.0294
16812TIP3    H171851   0.274   3.876  13.242 -0.2450 -0.3758 -0.1832
16812TIP3    H271852   0.168   3.849  13.137  1.0735  0.0978 -1.6702
16813TIP3   OH271853   6.612   4.443  16.427 -0.3072 -0.2453 -0.5687
16813TIP3    H171854   6.675   4.515  16.424  2.2304 -2.4061 -0.8495
16813TIP3    H271855   6.639   4.391  16.503 -2.2381 -0.8063 -0.2354
16814TIP3   OH271856   1.381   1.054  11.206 -0.2456  0.2715  0.4041
16814TIP3    H171857   1.400   1.044  11.112 -0.2325  0.3766  0.3960
16814TIP3    H271858   1.462   1.027  11.249  0.1871  1.4231  0.3406
16815TIP3   OH271859   5.751   6.625   5.103 -0.5773 -0.1491  0.2733
16815TIP3    H171860   5.657   6.618   5.086 -0.7352 -0.7733  1.3606
16815TIP3    H271861   5.773   6.714   5.078 -1.4518 -0.0180 -0.0516
16816TIP3   OH271862   1.594   5.819  16.046 -0.2461 -0.5043  0.0634
16816TIP3    H171863   1.685   5.825  16.073 -0.0218  0.5692 -0.8993
16816TIP3    H271864   1.545   5.862  16.115  0.2362  1.3857 -0.7573
16817TIP3   OH271865   1.403   0.208  12.551  0.2430 -0.0711 -0.2000
16817TIP3    H171866   1.432   0.254  12.472 -1.3869 -1.1580 -1.4749
16817TIP3    H271867   1.474   0.148  12.572  0.3325 -0.3784 -1.3519
16818TIP3   OH271868   1.788   5.995   1.441  0.0858  0.3611 -0.1758
16818TIP3    H171869   1.712   5.943   1.468  0.6854 -1.5751 -2.0950
16818TIP3    H271870   1.781   6.002   1.346  1.6325  1.2690 -0.2460
16819TIP3   OH271871   2.039   4.279   2.519  0.3658 -0.2540  0.0198
16819TIP3    H171872   2.022   4.287   2.613  0.7583  2.2150 -0.0730
16819TIP3    H271873   1.985   4.205   2.491 -0.8918 -0.1029  1.9178
16820TIP3   OH271874   5.377   5.292  13.738 -0.5538 -0.4455 -0.2315
16820TIP3    H171875   5.281   5.295  13.737 -0.5600 -0.0491 -3.3115
16820TIP3    H271876   5.398   5.206  13.776 -2.1497 -0.9655 -0.5046
16821TIP3   OH271877   2.769   0.965  13.170 -0.2375 -0.1476  0.6160
16821TIP3    H171878   2.706   0.920  13.114 -1.2371  0.9355  0.8541
16821TIP3    H271879   2.854   0.927  13.147 -0.4391  1.2409 -2.6166
16822TIP3   OH271880   1.796   4.515   5.200  0.0151 -0.0428 -0.1945
16822TIP3    H171881   1.859   4.585   5.185 -0.9154  0.8240 -0.1240
16822TIP3    H271882   1.722   4.536   5.142  0.0788 -1.4192 -0.7999
16823TIP3   OH271883   1.869   1.207  14.391  0.4339  0.0675  0.1907
16823TIP3    H171884   1.921   1.271  14.341 -0.4250  1.3946  0.9643
16823TIP3    H271885   1.933   1.162  14.445  1.0111  0.5021 -0.1159
16824TIP3   OH271886   6.333   5.921  12.207 -0.0748  0.1268 -0.0526
16824TIP3    H171887   6.281   5.859  12.257 -2.0170  2.8489  1.4837
16824TIP3    H271888   6.422   5.886  12.209 -0.9695 -2.1687  1.3728
16825TIP3   OH271889   5.995   0.908   2.300 -0.3729  0.0472 -0.0056
16825TIP3    H171890   5.931   0.937   2.235  1.4609  1.2754 -1.3027
16825TIP3    H271891   5.959   0.826   2.334 -1.5137 -0.4808 -2.3855
16826TIP3   OH271892   4.885   3.422  12.444 -0.5190 -0.1560  0.6864
16826TIP3    H171893   4.827   3.347  12.456  0.3568 -0.8968  0.3646
16826TIP3    H271894   4.901   3.424  12.349  1.1892 -0.9047  0.9353
16827TIP3   OH271895   1.612   0.919   0.159  0.1734  0.1368 -0.3199
16827TIP3    H171896   1.656   0.886   0.081 -1.2403  0.4605 -1.2678
16827TIP3    H271897   1.595   0.841   0.211  1.5369 -0.0306 -0.1017
16828TIP3   OH271898   2.871   4.216  16.403  0.3282 -0.5592  0.0497
16828TIP3    H171899   2.866   4.231  16.309 -0.9100 -0.1066  0.1818
16828TIP3    H271900   2.781   4.200  16.430  0.6735 -0.6947  1.1534
16829TIP3   OH271901   5.190   0.205   0.399 -0.7976 -0.4223 -0.1771
16829TIP3    H171902   5.123   0.164   0.453 -1.7765  0.6437 -0.5634
16829TIP3    H271903   5.248   0.249   0.462 -0.2486 -1.6164  0.1770
16830TIP3   OH271904   5.368   2.276  14.971  0.3919  0.3872 -0.1714
16830TIP3    H171905   5.437   2.223  14.930  0.1544 -1.0621  1.2364
16830TIP3    H271906   5.295   2.215  14.981  0.0644  1.0269  1.3431
16831TIP3   OH271907   5.658   1.512   0.338 -0.4688  0.1228  0.1662
16831TIP3    H171908   5.593   1.556   0.392 -1.1277 -0.7843  0.1199
16831TIP3    H271909   5.701   1.451   0.398  1.5523  1.9273  0.6354
16832TIP3   OH271910   5.968   6.671  12.903 -0.0248 -0.4802 -0.0718
16832TIP3    H171911   6.039   6.670  12.839 -0.6302 -0.0507 -0.7648
16832TIP3    H271912   5.978   6.754  12.949 -1.5593  0.7437 -1.8817
16833TIP3   OH271913   1.466   3.196   4.298  0.4681 -0.2012  0.0800
16833TIP3    H171914   1.466   3.171   4.206 -0.0929  0.2733 -0.0525
16833TIP3    H271915   1.386   3.248   4.309 -0.3684 -1.6814  1.2114
16834TIP3   OH271916   1.300   5.681  16.706  0.2248 -0.3102  0.3825
16834TIP3    H171917   1.271   5.590  16.713  1.5961 -0.7087  0.9359
16834TIP3    H271918   1.380   5.677  16.653 -1.4322  0.9408 -2.3482
16835TIP3   OH271919   1.978   1.328  16.135  0.0172  0.2690  0.0341
16835TIP3    H171920   1.962   1.391  16.065 -1.9324 -1.4685 -1.1507
16835TIP3    H271921   2.009   1.249  16.090 -0.6505 -0.6683  1.1873
16836TIP3   OH271922   6.116   6.122   6.249 -0.5877  0.8886  0.0870
16836TIP3    H171923   6.189   6.066   6.275 -1.1959  0.8665  1.7456
16836TIP3    H271924   6.150   6.171   6.174  0.5711 -0.3186 -0.2039
16837TIP3   OH271925   4.551   2.907   5.653  0.0037 -0.3692  0.1580
16837TIP3    H171926   4.566   2.887   5.746  0.7119  0.5200  0.2425
16837TIP3    H271927   4.474   2.964   5.653 -0.5062 -1.0510  0.1241
16838TIP3   OH271928   1.204   1.018  13.868  0.3844 -0.5220  0.0542
16838TIP3    H171929   1.142   1.088  13.893  1.3324  0.4430 -0.2588
16838TIP3    H271930   1.152   0.959  13.814  0.1550  1.2369 -1.7185
16839TIP3   OH271931   0.222   4.348  15.493 -0.0661  0.5531 -0.1179
16839TIP3    H171932   0.307   4.318  15.461  0.3662 -0.0217  1.5038
16839TIP3    H271933   0.161   4.278  15.468  0.4642 -0.4276  1.2161
16840TIP3   OH271934   2.004   1.614  14.342 -0.2001  0.6224 -0.0736
16840TIP3    H171935   1.925   1.666  14.324 -0.5942 -0.1925 -0.7732
16840TIP3    H271936   1.999   1.542  14.279  2.7371  2.2781 -2.3442
16841TIP3   OH271937   3.789   1.692  13.629  0.0899 -0.3221  0.0914
16841TIP3    H171938   3.836   1.671  13.710  1.5812 -1.5649 -1.0560
16841TIP3    H271939   3.815   1.623  13.568 -2.0762 -0.1548 -1.0453
16842TIP3   OH271940   3.480   3.504   4.803  0.2950  0.5540  0.3286
16842TIP3    H171941   3.425   3.548   4.868  0.8723 -1.3787  2.1624
16842TIP3    H271942   3.550   3.568   4.785 -0.1994  1.3454  1.1541
16843TIP3   OH271943   0.824   5.170   3.984 -0.2117 -0.1485  0.1506
16843TIP3    H171944   0.758   5.231   4.016  2.7875  3.5571 -0.4633
16843TIP3    H271945   0.828   5.102   4.051 -2.9343  0.7860  1.3331
16844TIP3   OH271946   6.152   3.744   3.684 -0.8321 -0.3835  0.8608
16844TIP3    H171947   6.064   3.780   3.681 -0.2173  1.0278 -1.1840
16844TIP3    H271948   6.208   3.818   3.709 -0.1823 -1.1830  1.8158
16845TIP3   OH271949   0.835   1.016  16.712 -0.4946 -0.0586  0.3115
16845TIP3    H171950   0.747   1.029  16.747 -0.3901  2.0794 -0.1384
16845TIP3    H271951   0.885   1.090  16.747  0.3866  0.3838 -1.8141
16846TIP3   OH271952   2.196   1.546   2.643  0.3460 -0.0987  0.4071
16846TIP3    H171953   2.279   1.524   2.686  1.8611 -0.3610 -2.4888
16846TIP3    H271954   2.185   1.478   2.576 -0.8017  1.4760 -1.0461
16847TIP3   OH271955   0.710   5.434  16.855 -0.6202 -0.2473  0.0743
16847TIP3    H171956   0.656   5.359  16.833 -2.5137  1.3302 -0.8592
16847TIP3    H271957   0.727   5.477  16.771 -0.2567  0.7937  0.6614
16848TIP3   OH271958   3.414   4.405  11.818  0.0365 -0.1916  0.5660
16848TIP3    H171959   3.437   4.498  11.813  0.0412 -0.1211  1.7194
16848TIP3    H271960   3.337   4.396  11.761  1.1182  0.1479 -0.9923
16849TIP3   OH271961   4.379   0.029  12.910  0.2061 -0.0269  0.2600
16849TIP3    H171962   4.370  -0.016  12.826  0.1428  0.5028 -0.0218
16849TIP3    H271963   4.474   0.034  12.924  0.2643  1.1861 -0.5010
16850TIP3   OH271964   6.612   3.644  16.718  0.3099 -0.5671 -0.0131
16850TIP3    H171965   6.586   3.566  16.669  1.6293 -0.2468 -1.2646
16850TIP3    H271966   6.706   3.652  16.702  0.3996  0.6310  1.0461
16851TIP3   OH271967   4.775   2.398  13.243  0.1111 -0.4351 -0.1593
16851TIP3    H171968   4.821   2.371  13.322 -1.1160 -0.6493  0.5090
16851TIP3    H271969   4.779   2.493  13.243 -0.8546 -0.3790  0.7832
16852TIP3   OH271970   4.463   0.569   2.104 -0.0124  0.0313  0.0927
16852TIP3    H171971   4.496   0.487   2.067  0.6995  0.3668 -0.0271
16852TIP3    H271972   4.392   0.543   2.162  0.0154 -0.6466 -0.1762
16853TIP3   OH271973   1.763   3.072  10.748 -0.0440  0.2288  0.2198
16853TIP3    H171974   1.771   3.144  10.686 -1.0050  0.4334  0.3180
16853TIP3    H271975   1.706   3.107  10.817 -1.6006 -1.0585 -0.3963
16854TIP3   OH271976   2.769   0.052  17.075  0.0505  0.1098 -0.1026
16854TIP3    H171977   2.701   0.002  17.030 -0.8741  0.5362  0.8052
16854TIP3    H271978   2.823  -0.015  17.118 -1.1409 -0.1190  1.0469
16855TIP3   OH271979   1.918   2.802  10.551 -0.3295 -0.2171  0.4413
16855TIP3    H171980   1.950   2.712  10.549 -0.1236 -0.1456  0.4943
16855TIP3    H271981   1.995   2.855  10.573  0.0762  0.2041 -1.8602
16856TIP3   OH271982   1.571   0.158   0.702  0.4063  0.3963 -0.3276
16856TIP3    H171983   1.605   0.098   0.636 -0.1836  1.1412 -1.3224
16856TIP3    H271984   1.493   0.196   0.661 -0.4960  0.1718  1.1563
16857TIP3   OH271985   4.770   2.598   2.639  0.0261 -0.2966 -0.2078
16857TIP3    H171986   4.830   2.670   2.654 -1.1777  0.4918  0.9468
16857TIP3    H271987   4.821   2.519   2.658  0.4458  0.3953  1.5897
16858TIP3   OH271988   3.682   1.761   1.931 -0.0570  0.2393  0.1006
16858TIP3    H171989   3.612   1.775   1.995  1.0519 -1.1248  1.6508
16858TIP3    H271990   3.733   1.689   1.967  1.5319  0.5162 -1.5488
16859TIP3   OH271991   6.743   0.114  12.130 -0.3625  0.2597  0.6049
16859TIP3    H171992   6.657   0.119  12.172 -0.1407 -1.2988  1.2722
16859TIP3    H271993   6.723   0.097  12.038 -0.7723 -0.4984  0.8256
16860TIP3   OH271994   6.558   1.147   2.132  0.4070  0.1152 -0.3620
16860TIP3    H171995   6.593   1.235   2.148  0.9441 -0.0945 -0.3979
16860TIP3    H271996   6.491   1.161   2.065 -1.2811  0.8757  1.4221
16861TIP3   OH271997   2.969   4.262   3.581  0.1972 -0.0145  0.1300
16861TIP3    H171998   3.020   4.339   3.555  0.6844 -0.6506 -0.8293
16861TIP3    H271999   2.893   4.262   3.522  0.2433 -0.3167  0.0701
16862TIP3   OH272000   4.325   5.728  14.424  0.1651  0.7336 -0.6590
16862TIP3    H172001   4.275   5.782  14.484  0.1322  0.3629 -0.3468
16862TIP3    H272002   4.261   5.695  14.362  0.0492  0.3904 -0.3576
16863TIP3   OH272003   4.534   1.940   1.994 -0.7340 -0.1610  0.5995
16863TIP3    H172004   4.492   1.971   2.074 -0.8287 -2.0386  1.3131
16863TIP3    H272005   4.549   2.019   1.942 -3.4048  0.7858  1.1527
16864TIP3   OH272006   2.435   4.883   1.634 -0.2430 -0.2461 -0.3697
16864TIP3    H172007   2.415   4.901   1.542  1.9130 -0.0392 -0.8325
16864TIP3    H272008   2.518   4.835   1.631 -1.4192 -2.5059  1.3322
16865TIP3   OH272009   4.019   5.922  16.052  0.0339 -0.0619  0.0171
16865TIP3    H172010   4.015   5.831  16.079  1.2351 -0.8724 -2.3457
16865TIP3    H272011   3.935   5.939  16.010  0.5239 -0.7043 -1.2706
16866TIP3   OH272012   1.025   0.410   0.882 -0.2042  0.0647  0.0827
16866TIP3    H172013   0.971   0.372   0.952 -1.4551  1.0051 -0.3485
16866TIP3    H272014   1.088   0.465   0.928 -1.2431  0.9544  0.4619
16867TIP3   OH272015   5.806   4.250   0.875 -0.0886  0.7230  0.3080
16867TIP3    H172016   5.754   4.265   0.795  0.2209  0.7579  0.1153
16867TIP3    H272017   5.848   4.335   0.892  0.6242  0.4392 -0.0431
16868TIP3   OH272018   1.292   6.059   4.168  0.2005 -0.0432  0.0783
16868TIP3    H172019   1.270   5.972   4.135 -0.6882  0.7210 -1.3816
16868TIP3    H272020   1.245   6.066   4.251 -0.3495 -0.6572 -0.1767
16869TIP3   OH272021   6.088   1.299   0.741  0.3290  0.5898  0.1493
16869TIP3    H172022   6.172   1.337   0.765 -0.3081  1.0253  1.7060
16869TIP3    H272023   6.047   1.364   0.685  1.2136  0.1717 -1.0147
16870TIP3   OH272024   3.544   5.915  16.496  0.5493  0.0076  0.4487
16870TIP3    H172025   3.590   5.971  16.558  0.0784  0.7315  0.1526
16870TIP3    H272026   3.614   5.871  16.448  0.9263  0.4035  0.6335
16871TIP3   OH272027   2.279   4.462   2.460 -0.0413 -0.0416  0.1261
16871TIP3    H172028   2.262   4.373   2.432 -1.5912  0.8684 -1.9444
16871TIP3    H272029   2.275   4.458   2.556  0.0777 -2.1954  0.0675
16872TIP3   OH272030   4.062   0.831   1.368 -0.3010 -0.6786  0.4075
16872TIP3    H172031   4.025   0.817   1.281  1.1329  0.0931 -0.3383
16872TIP3    H272032   4.062   0.927   1.379  1.3376 -0.6620  0.4312
16873TIP3   OH272033   5.003   1.317   0.144  0.3161  0.3588 -0.5295
16873TIP3    H172034   4.943   1.294   0.073  0.9947 -0.4142 -0.8644
16873TIP3    H272035   4.983   1.408   0.164 -1.7546 -0.2123  0.1326
16874TIP3   OH272036   5.006   4.515  11.012 -0.0651  0.8046  0.8770
16874TIP3    H172037   4.964   4.497  11.096 -0.6819 -0.7963  0.2407
16874TIP3    H272038   4.940   4.492  10.946  0.3573  2.1803 -0.0470
16875TIP3   OH272039   4.597   5.124  14.344  0.0611 -0.1923 -0.2616
16875TIP3    H172040   4.570   5.194  14.403 -1.9865 -2.7759  1.9914
16875TIP3    H272041   4.521   5.111  14.287 -1.1158 -3.0879  1.8412
16876TIP3   OH272042   5.462   3.460   4.063 -0.0811 -0.3062  0.4021
16876TIP3    H172043   5.523   3.393   4.094  0.0444 -0.1045  0.5899
16876TIP3    H272044   5.464   3.527   4.131  0.0086  0.0220  0.0767
16877TIP3   OH272045   1.630   0.065  12.659 -0.4637 -0.4053  0.0467
16877TIP3    H172046   1.725   0.078  12.667 -0.2913 -0.6181 -1.4780
16877TIP3    H272047   1.620  -0.030  12.648 -0.8544 -0.3892  0.2593
16878TIP3   OH272048   4.503   5.603  15.397 -1.0090  0.6780 -0.0634
16878TIP3    H172049   4.467   5.588  15.484 -1.3009 -0.9559 -0.4431
16878TIP3    H272050   4.533   5.694  15.398 -2.4162  1.1369  1.2289
16879TIP3   OH272051   1.220   3.560   4.871 -0.4624 -0.3136 -0.1492
16879TIP3    H172052   1.292   3.622   4.886 -1.0948  0.5801 -0.7114
16879TIP3    H272053   1.213   3.511   4.952 -1.5509  2.0545  1.2348
16880TIP3   OH272054   5.276   2.435  17.152  0.7635 -0.4966 -0.5163
16880TIP3    H172055   5.284   2.348  17.189 -0.8884 -0.5800 -0.3292
16880TIP3    H272056   5.253   2.421  17.060  1.1351 -0.2571 -0.6512
16881TIP3   OH272057   6.419   2.869  11.458 -0.0327  0.0331 -0.2445
16881TIP3    H172058   6.492   2.838  11.404 -0.5286 -0.7621 -0.4759
16881TIP3    H272059   6.455   2.874  11.546 -0.3537 -2.8099  0.0925
16882TIP3   OH272060   5.524   1.812   1.201 -0.0270 -0.1572  0.6311
16882TIP3    H172061   5.573   1.761   1.136 -1.3332  1.0952 -1.3796
16882TIP3    H272062   5.444   1.762   1.214 -0.1586  0.0455  0.6004
16883TIP3   OH272063   1.210   4.454   0.547  0.3569 -0.0942  0.0581
16883TIP3    H172064   1.225   4.542   0.582  4.1429 -1.7292  2.8859
16883TIP3    H272065   1.274   4.445   0.476  0.3966 -0.7966  0.1814
16884TIP3   OH272066   6.196   1.576   5.404  0.1704  0.1061 -0.1786
16884TIP3    H172067   6.110   1.597   5.369  0.0669  2.1233  1.2353
16884TIP3    H272068   6.203   1.481   5.394 -1.9154  0.0075 -0.9664
16885TIP3   OH272069   0.576   5.016  14.099 -0.4135 -0.1062 -0.4166
16885TIP3    H172070   0.540   4.929  14.084 -0.2931  0.0913 -1.9113
16885TIP3    H272071   0.510   5.076  14.063 -0.5872  0.4326  0.7723
16886TIP3   OH272072   5.673   0.729   5.292  0.3481  0.0169  0.0242
16886TIP3    H172073   5.600   0.669   5.306  0.8180 -0.6904 -0.5345
16886TIP3    H272074   5.652   0.805   5.346  0.6894 -1.4281  2.2748
16887TIP3   OH272075   4.530   2.061   5.098 -0.2529 -0.0506 -0.0686
16887TIP3    H172076   4.436   2.048   5.113 -0.1496 -2.4896 -1.2476
16887TIP3    H272077   4.571   1.987   5.142  1.0590  0.5030 -0.3434
16888TIP3   OH272078   2.189   5.623   4.733 -0.1030 -0.3108  0.4679
16888TIP3    H172079   2.207   5.697   4.792  0.1344 -0.7568  0.9614
16888TIP3    H272080   2.166   5.551   4.792  1.0946 -1.0383  0.0699
16889TIP3   OH272081   4.507   0.996   5.453 -1.4455 -0.1060  0.0804
16889TIP3    H172082   4.501   0.902   5.470 -0.2164 -0.2430 -0.2243
16889TIP3    H272083   4.600   1.012   5.437 -1.6448  1.1637  0.1352
16890TIP3   OH272084   0.015   0.827   2.283  0.8411 -1.0871  0.1485
16890TIP3    H172085   0.006   0.862   2.372 -1.9729 -0.6694 -0.2575
16890TIP3    H272086   0.057   0.897   2.234 -0.1065 -0.2610  0.5100
16891TIP3   OH272087   0.432   4.651   3.907  0.5275  0.6402 -1.0268
16891TIP3    H172088   0.339   4.667   3.925  0.9226  2.3835 -0.4822
16891TIP3    H272089   0.432   4.606   3.823 -0.7666  1.4516 -1.4810
16892TIP3   OH272090   1.071   4.777   2.432 -0.0332 -0.0445 -0.4726
16892TIP3    H172091   1.015   4.746   2.362 -0.2646  0.7326 -0.6367
16892TIP3    H272092   1.011   4.803   2.502  0.1466  0.1129 -0.3735
16893TIP3   OH272093   4.116   3.617  16.263  0.2161  0.3351 -0.3249
16893TIP3    H172094   4.127   3.584  16.175  1.3462 -0.9267  0.2782
16893TIP3    H272095   4.126   3.540  16.320  1.3930  1.4254  0.9975
16894TIP3   OH272096   3.518   4.436   4.888  0.0367  0.6175  0.4521
16894TIP3    H172097   3.501   4.476   4.802  1.8595  1.3780  0.4185
16894TIP3    H272098   3.471   4.352   4.885 -0.6055  1.0052 -0.9684
16895TIP3   OH272099   0.222   2.764  11.093  0.0559  0.5565  0.0290
16895TIP3    H172100   0.153   2.822  11.061 -0.8836 -1.4536 -1.7496
16895TIP3    H272101   0.278   2.749  11.016  1.5044  0.7985  1.0194
16896TIP3   OH272102   4.527   0.294  17.183 -0.0516 -0.2929  0.5417
16896TIP3    H172103   4.500   0.361  17.246  2.4542  0.8699  0.4534
16896TIP3    H272104   4.592   0.242  17.230  1.8663  0.6017 -1.0610
16897TIP3   OH272105   6.672   6.609  12.431  0.8366 -0.2440 -0.1429
16897TIP3    H172106   6.648   6.516  12.428  1.0364 -0.2401 -2.3833
16897TIP3    H272107   6.591   6.654  12.453  0.4567 -0.8301 -0.3454
16898TIP3   OH272108   2.322   3.544   5.768 -0.8138  0.3975 -0.4740
16898TIP3    H172109   2.382   3.606   5.809 -0.2172  0.3738 -1.3015
16898TIP3    H272110   2.364   3.520   5.685 -1.3424 -0.6131 -0.4668
16899TIP3   OH272111   3.420   2.984   3.758  0.9886 -0.1720 -0.1178
16899TIP3    H172112   3.332   3.014   3.782  0.8419  0.3280 -1.2315
16899TIP3    H272113   3.459   2.954   3.840 -0.1101 -0.1009  0.4370
16900TIP3   OH272114   4.694   5.677   2.527  0.3052 -0.2240 -0.1999
16900TIP3    H172115   4.761   5.685   2.594 -0.8832 -1.0504  1.1159
16900TIP3    H272116   4.670   5.768   2.507 -0.4948  0.0158  1.7204
16901TIP3   OH272117   2.887   0.577  11.824  0.3333  0.3884  0.0730
16901TIP3    H172118   2.929   0.517  11.763  0.0701 -0.9883  1.2212
16901TIP3    H272119   2.960   0.618  11.871  0.5062  0.8521 -0.5915
16902TIP3   OH272120   5.458   6.023   5.869 -0.3145  0.7689  0.4489
16902TIP3    H172121   5.449   5.955   5.936 -0.1986  1.5334  1.2377
16902TIP3    H272122   5.374   6.069   5.869  0.2312  1.7817  1.1754
16903TIP3   OH272123   4.504   1.887  11.511  0.0028 -0.8568  0.1644
16903TIP3    H172124   4.513   1.824  11.439  0.5507 -1.7778  1.0248
16903TIP3    H272125   4.502   1.973  11.468  1.0760 -1.3472 -0.8927
16904TIP3   OH272126   6.579   3.730  16.413 -0.2954 -0.4497 -0.1827
16904TIP3    H172127   6.524   3.662  16.374 -1.7345 -0.1032  1.2274
16904TIP3    H272128   6.619   3.689  16.489 -1.3037  0.3279  0.7757
16905TIP3   OH272129   5.609   4.136  16.069 -0.5120 -0.0013 -0.2922
16905TIP3    H172130   5.692   4.105  16.033  0.4638  0.9513  1.1128
16905TIP3    H272131   5.591   4.077  16.143 -0.1014  0.9770  0.5990
16906TIP3   OH272132   2.023   5.863  12.442  0.4317 -0.0403 -0.2229
16906TIP3    H172133   2.007   5.773  12.470  0.3492  0.5635  1.7895
16906TIP3    H272134   1.958   5.880  12.374  0.6194 -1.5660 -0.7927
16907TIP3   OH272135   4.163   0.418  10.966 -0.0324 -0.0703 -0.7925
16907TIP3    H172136   4.160   0.397  10.873 -0.1968 -1.9518 -0.3819
16907TIP3    H272137   4.206   0.342  11.006  1.3430  1.3464  0.4912
16908TIP3   OH272138   0.649   4.606   2.824 -0.2750 -0.0611 -0.4362
16908TIP3    H172139   0.620   4.586   2.913 -0.7463  0.1362 -0.5489
16908TIP3    H272140   0.601   4.684   2.799  0.0630  0.0468 -0.7652
16909TIP3   OH272141   5.795   1.594   2.149 -0.2273 -0.2714  0.4427
16909TIP3    H172142   5.727   1.529   2.168 -0.0147 -0.7599 -0.4496
16909TIP3    H272143   5.794   1.602   2.054  1.6329 -1.0072  0.3498
16910TIP3   OH272144   3.606   1.943   4.597  0.1885 -0.9151  0.7109
16910TIP3    H172145   3.568   1.966   4.682  4.0727 -1.7020  2.8249
16910TIP3    H272146   3.698   1.968   4.605  0.5846 -0.7626 -3.4212
16911TIP3   OH272147   2.567   0.057   3.106 -0.5104 -0.2859 -0.2078
16911TIP3    H172148   2.621  -0.022   3.100 -2.5142 -1.6341 -1.1043
16911TIP3    H272149   2.605   0.107   3.178  1.1008 -1.8368  0.0430
16912TIP3   OH272150   4.346   6.702   2.681  0.6907 -0.4980 -0.5859
16912TIP3    H172151   4.316   6.687   2.592 -1.7726 -0.6293  0.2220
16912TIP3    H272152   4.273   6.746   2.724  2.7348  1.7253  0.7372
16913TIP3   OH272153   1.753   6.384   1.186  0.5743  0.0430 -0.5698
16913TIP3    H172154   1.702   6.309   1.155  0.5104  0.0227 -0.4132
16913TIP3    H272155   1.780   6.360   1.274  0.8257  0.0677 -0.6383
16914TIP3   OH272156   0.018   5.971  12.186 -0.0866 -0.0813  0.1863
16914TIP3    H172157   0.097   5.980  12.133 -0.5258 -1.7809 -0.7852
16914TIP3    H272158  -0.004   6.061  12.211  1.9003  0.4508  0.1272
16915TIP3   OH272159   4.264   3.550  15.458 -0.2669  0.6400 -0.5025
16915TIP3    H172160   4.238   3.491  15.388  0.3732 -0.3347  0.0757
16915TIP3    H272161   4.263   3.637  15.417  0.6571  0.0240 -1.8811
16916TIP3   OH272162   4.798   5.508  16.858 -0.4262 -0.1336  0.5175
16916TIP3    H172163   4.793   5.578  16.793 -0.2151 -0.5677  0.0324
16916TIP3    H272164   4.840   5.435  16.812  0.5936 -0.1245  1.4289
16917TIP3   OH272165   4.390   5.900   2.119  0.1055  0.6828 -0.1123
16917TIP3    H172166   4.354   5.872   2.203 -1.5736  2.3270 -0.2405
16917TIP3    H272167   4.315   5.896   2.058  0.7890  1.5234 -1.0274
16918TIP3   OH272168   0.182   5.625   2.212  0.1330 -0.4019  0.2748
16918TIP3    H172169   0.110   5.687   2.222  0.0641 -0.9357  3.8431
16918TIP3    H272170   0.154   5.566   2.142 -1.6770  1.0532 -0.2428
16919TIP3   OH272171   3.213   6.568   1.976  0.1211  0.1148  0.1313
16919TIP3    H172172   3.299   6.579   2.015  0.4080  0.1651 -0.5150
16919TIP3    H272173   3.163   6.644   2.006  0.4282  0.3035  0.1687
16920TIP3   OH272174   6.442   3.965  15.056  0.7085 -0.4627  0.2106
16920TIP3    H172175   6.385   4.042  15.045  1.6206  0.5143  2.0196
16920TIP3    H272176   6.526   3.992  15.020  1.0417 -0.5732  0.8893
16921TIP3   OH272177   5.373   0.344   3.424 -0.4166 -0.4103  0.0595
16921TIP3    H172178   5.400   0.352   3.515 -1.5929  0.0297  0.3797
16921TIP3    H272179   5.280   0.367   3.424 -0.4104 -0.3093 -1.2609
16922TIP3   OH272180   1.770   0.078   5.389  0.6027  0.5586  0.0590
16922TIP3    H172181   1.833   0.022   5.435  1.0515  0.6929 -0.3790
16922TIP3    H272182   1.825   0.132   5.332  0.0134 -0.0188 -1.0618
16923TIP3   OH272183   3.737   4.065  12.327 -0.2537  0.6180 -0.3887
16923TIP3    H172184   3.758   4.006  12.254 -0.1808 -0.4922  0.5053
16923TIP3    H272185   3.653   4.104  12.304  0.0676  0.7465 -1.3562
16924TIP3   OH272186   6.456   1.665   2.401 -0.1224 -0.0823  0.7470
16924TIP3    H172187   6.383   1.655   2.340 -0.0659  1.0130  0.4974
16924TIP3    H272188   6.529   1.697   2.348 -0.5117  2.4053  1.6268
16925TIP3   OH272189   6.282   0.487   2.097  0.0729 -0.1227  0.0979
16925TIP3    H172190   6.276   0.567   2.045  0.2545 -0.8984 -1.1611
16925TIP3    H272191   6.287   0.417   2.031  1.1670 -1.0694  1.1692
16926TIP3   OH272192   1.841   5.451  15.140 -0.1167  1.0599  0.4624
16926TIP3    H172193   1.816   5.359  15.135  1.1542  0.6023  1.8162
16926TIP3    H272194   1.759   5.499  15.151 -1.0306  0.3626 -2.8504
16927TIP3   OH272195   0.340   1.596  16.552 -0.4022  0.3271 -0.6369
16927TIP3    H172196   0.338   1.614  16.458 -1.5241 -0.9549 -0.8670
16927TIP3    H272197   0.427   1.625  16.580  0.5556 -0.8075 -2.3875
16928TIP3   OH272198   0.686   4.712   0.811 -0.3736 -0.5225  0.2080
16928TIP3    H172199   0.764   4.674   0.851 -0.7369  0.9819  2.4451
16928TIP3    H272200   0.625   4.639   0.802  1.0630 -1.5978 -1.0269
16929TIP3   OH272201   0.834   4.140  11.160  0.6870  0.0301 -0.5421
16929TIP3    H172202   0.803   4.111  11.074  0.0509  0.0545 -0.3236
16929TIP3    H272203   0.929   4.131  11.156  0.6612  0.0604 -1.2621
16930TIP3   OH272204   1.640   6.662  15.384  0.1627 -0.5726 -0.1534
16930TIP3    H172205   1.692   6.582  15.376 -1.6351 -2.1922  2.9824
16930TIP3    H272206   1.663   6.697  15.471 -0.1831  1.4979 -0.8662
16931TIP3   OH272207   0.088   0.309  15.358  0.6399  0.5191 -0.2890
16931TIP3    H172208   0.082   0.251  15.282 -0.8171 -0.9710  0.9251
16931TIP3    H272209   0.026   0.379  15.339  1.0082  0.6744 -0.9197
16932TIP3   OH272210   4.963   1.364   5.295  0.1862  0.1736  0.1396
16932TIP3    H172211   4.929   1.368   5.206 -0.9132  1.4449  0.5911
16932TIP3    H272212   4.907   1.300   5.340  2.2611 -2.2691 -0.6921
16933TIP3   OH272213   2.067   0.847   1.622  0.2439 -0.1335  0.2032
16933TIP3    H172214   2.068   0.786   1.548 -0.3873 -0.4493  0.4493
16933TIP3    H272215   2.138   0.908   1.604 -0.3699  0.2220 -1.0134
16934TIP3   OH272216   4.854   0.177  12.357  0.4513  0.3085  0.8620
16934TIP3    H172217   4.940   0.202  12.391  1.7915 -1.5178 -1.1080
16934TIP3    H272218   4.850   0.216  12.270 -0.6228  0.1751  0.8395
16935TIP3   OH272219   5.633   1.619  13.203  0.1376 -0.5287  0.2032
16935TIP3    H172220   5.643   1.672  13.283 -1.0651 -1.7262  1.1835
16935TIP3    H272221   5.622   1.529  13.236 -2.0137 -0.8246 -1.2130
16936TIP3   OH272222   6.420   2.037   0.657  0.4219 -0.1031  0.3312
16936TIP3    H172223   6.391   2.009   0.744 -0.2740  0.3033  0.2307
16936TIP3    H272224   6.339   2.056   0.610  0.9077  3.8679  0.9511
16937TIP3   OH272225   0.972   2.099  11.958 -0.2081  0.1957  0.0065
16937TIP3    H172226   1.045   2.076  12.016 -0.0550 -0.0208 -0.2693
16937TIP3    H272227   0.907   2.030  11.973  0.7043 -1.0380 -1.6261
16938TIP3   OH272228   0.028   4.371   1.964 -0.4997  0.3943  0.1152
16938TIP3    H172229   0.011   4.437   2.031  0.1117  0.6778 -0.0054
16938TIP3    H272230   0.107   4.327   1.994 -2.2598 -1.9567  1.4687
16939TIP3   OH272231   0.097   1.626   0.480 -0.2477  0.1702 -0.1234
16939TIP3    H172232   0.141   1.696   0.529  2.7885 -2.1984  0.6906
16939TIP3    H272233   0.101   1.654   0.389 -0.7782  1.9108  0.3633
16940TIP3   OH272234   3.133   4.098  11.043  0.3557  0.2820 -0.2264
16940TIP3    H172235   3.223   4.114  11.013  0.4793 -1.6584 -0.9403
16940TIP3    H272236   3.087   4.067  10.965 -0.9505  1.2569  0.1395
16941TIP3   OH272237   5.824   3.158   4.353  0.8028 -0.2813  0.3911
16941TIP3    H172238   5.819   3.202   4.437  0.4428  0.7550 -0.1675
16941TIP3    H272239   5.753   3.092   4.356 -0.9645  1.5416 -0.1085
16942TIP3   OH272240   4.229   1.145  11.617 -0.0636  0.4594 -0.3534
16942TIP3    H172241   4.323   1.135  11.632  0.0689  1.2484 -0.6261
16942TIP3    H272242   4.223   1.177  11.527 -0.5836  0.6942 -0.2334
16943TIP3   OH272243   2.589   4.201  15.081  0.1040  0.3672  0.3866
16943TIP3    H172244   2.530   4.206  15.156 -1.1820 -1.4607 -0.4702
16943TIP3    H272245   2.573   4.283  15.033 -0.1055  0.8879  1.3302
16944TIP3   OH272246   1.393   3.115   0.907  0.5156  0.5488 -0.0521
16944TIP3    H172247   1.308   3.111   0.862 -0.1328  0.7406  1.1224
16944TIP3    H272248   1.433   3.196   0.877  0.0789  0.6841 -0.2656
16945TIP3   OH272249   1.313   0.739   6.856 -0.3075  0.1045  0.1580
16945TIP3    H172250   1.220   0.724   6.871 -0.3436  1.2531  1.1635
16945TIP3    H272251   1.351   0.651   6.852 -1.3572 -0.3616  0.2064
16946TIP3   OH272252   1.453   5.457  13.131 -0.2416 -0.3134 -0.2745
16946TIP3    H172253   1.445   5.517  13.056 -0.3183 -0.5885 -0.4883
16946TIP3    H272254   1.421   5.507  13.206  1.4208  0.5523 -0.1187
16947TIP3   OH272255   0.910   4.106  10.704  0.2443  0.5724 -0.1521
16947TIP3    H172256   0.919   4.075  10.614 -2.3695  0.2425 -0.3305
16947TIP3    H272257   0.988   4.072  10.749  2.4617  2.1840 -2.6488
16948TIP3   OH272258   0.440   5.475  16.942  0.3531 -0.0891  0.1768
16948TIP3    H172259   0.531   5.500  16.958 -0.0418  1.3838  0.2760
16948TIP3    H272260   0.445   5.402  16.881  1.5547  1.0819 -1.1582
16949TIP3   OH272261   5.615   3.211   3.465  0.0120  0.0474  0.4111
16949TIP3    H172262   5.571   3.217   3.550  1.8604  1.2136  1.3345
16949TIP3    H272263   5.618   3.301   3.433 -0.8432 -0.4153 -0.9900
16950TIP3   OH272264   3.948   2.690  11.533 -0.3436 -0.0848  0.1740
16950TIP3    H172265   4.027   2.644  11.560  0.0802  1.3082  1.3253
16950TIP3    H272266   3.876   2.631  11.557  0.3695 -1.7994 -1.7940
16951TIP3   OH272267   1.095   1.672   4.896 -0.1088  0.7259  0.0881
16951TIP3    H172268   1.053   1.730   4.832  0.8608  0.8245 -0.4789
16951TIP3    H272269   1.182   1.710   4.909  0.0024  0.2197  0.8165
16952TIP3   OH272270   3.038   0.516  12.775 -0.0657 -0.0016 -0.1369
16952TIP3    H172271   2.966   0.563  12.816  0.6788  0.7594  0.3369
16952TIP3    H272272   3.092   0.487  12.849  0.1662 -0.4762 -0.4901
16953TIP3   OH272273   1.122   4.300   3.910 -0.3242 -0.4424  0.1771
16953TIP3    H172274   1.174   4.275   3.833  1.6225  1.4851  0.8263
16953TIP3    H272275   1.182   4.290   3.984 -1.6391 -0.5625  1.2363
16954TIP3   OH272276   0.277   0.391  11.785  0.2494 -0.2107 -0.2182
16954TIP3    H172277   0.214   0.455  11.752 -0.3659 -0.9552 -0.5123
16954TIP3    H272278   0.264   0.314  11.729  2.7307  0.2764 -1.5165
16955TIP3   OH272279   1.914   3.560  15.448 -0.3848  0.5518  0.2264
16955TIP3    H172280   1.941   3.493  15.385  1.3002 -0.3944  1.8869
16955TIP3    H272281   1.980   3.629  15.438 -0.8291  0.9526  0.0790
16956TIP3   OH272282   4.075   1.853  13.141 -0.1866  0.2146  0.9023
16956TIP3    H172283   4.082   1.768  13.185  1.1458 -1.3642 -2.1925
16956TIP3    H272284   3.995   1.847  13.090  0.8476  0.0615 -0.7569
16957TIP3   OH272285   2.053   3.804   1.397 -0.4396 -0.3598 -0.4244
16957TIP3    H172286   2.105   3.881   1.374  0.5837 -0.7693  0.5152
16957TIP3    H272287   2.103   3.760   1.465 -0.5687 -2.3714 -1.5902
16958TIP3   OH272288   1.416   3.969   4.501 -0.6370  0.0980 -0.1312
16958TIP3    H172289   1.402   3.924   4.418 -0.2620 -1.2242  0.5121
16958TIP3    H272290   1.334   3.959   4.549 -1.0203  1.2696 -0.5124
16959TIP3   OH272291   2.833   6.031  17.098  0.3722 -0.2428 -1.1497
16959TIP3    H172292   2.925   6.041  17.074  0.0527  1.2212 -1.8295
16959TIP3    H272293   2.805   5.950  17.056  0.7202  0.5697 -2.9996
16960TIP3   OH272294   3.778   0.316   4.708  0.4121  0.3161  0.6311
16960TIP3    H172295   3.834   0.355   4.641 -2.0699  1.8543 -0.5922
16960TIP3    H272296   3.745   0.235   4.668  1.0670 -0.1579  1.0362
16961TIP3   OH272297   5.734   3.917   4.022  0.0670  0.3669 -0.1822
16961TIP3    H172298   5.650   3.893   4.059 -0.0875  1.3748  0.1349
16961TIP3    H272299   5.730   4.012   4.013  0.5090  0.2506 -1.7856
16962TIP3   OH272300   5.584   1.866  12.322 -0.5463  0.4858  0.3084
16962TIP3    H172301   5.632   1.793  12.282 -0.9305  0.9816 -1.0782
16962TIP3    H272302   5.545   1.829  12.401  2.2467  0.1101  1.5595
16963TIP3   OH272303   0.825   4.362  12.926 -0.6177 -0.1706  0.0858
16963TIP3    H172304   0.735   4.394  12.933 -0.0522  0.9508  2.7672
16963TIP3    H272305   0.871   4.430  12.877 -1.1587 -0.6581 -1.1267
16964TIP3   OH272306   2.010   4.770   1.033  0.1429 -0.3172 -0.4213
16964TIP3    H172307   2.046   4.858   1.037 -1.6255  0.3581  1.6226
16964TIP3    H272308   2.073   4.720   0.980  1.9198  1.7899 -0.3460
16965TIP3   OH272309   4.598   3.053  12.676  0.0071  0.6572 -0.5582
16965TIP3    H172310   4.612   2.961  12.656  1.8087  0.5370  1.1433
16965TIP3    H272311   4.549   3.053  12.758 -0.3410  1.2313 -0.7546
16966TIP3   OH272312   5.519   0.465  14.818  0.1271  0.6981  0.0957
16966TIP3    H172313   5.593   0.417  14.782  0.1133  1.6392 -1.2142
16966TIP3    H272314   5.447   0.402  14.819  0.6304  0.1209  0.2969
16967TIP3   OH272315   0.895   4.268  13.737  0.2949 -0.9347  0.8232
16967TIP3    H172316   0.845   4.338  13.696  2.2672  0.0116  0.0085
16967TIP3    H272317   0.831   4.198  13.750 -1.0490 -0.0713 -0.9743
16968TIP3   OH272318   4.797   1.478  11.053  0.0566 -0.5309 -0.0255
16968TIP3    H172319   4.866   1.540  11.028 -1.4760  1.2568  0.0693
16968TIP3    H272320   4.844   1.402  11.087  2.0255 -0.2101 -1.9365
16969TIP3   OH272321   2.296   6.682   2.895  0.2084 -0.2382  0.2303
16969TIP3    H172322   2.379   6.667   2.849 -1.0786 -1.0187 -1.8757
16969TIP3    H272323   2.285   6.604   2.950  0.4392 -0.5491 -0.1594
16970TIP3   OH272324   5.610   0.670  13.585  0.9683  0.2815  0.2420
16970TIP3    H172325   5.682   0.726  13.555  1.1581 -1.2813 -2.3931
16970TIP3    H272326   5.531   0.713  13.555  1.0569 -0.2371 -0.7631
16971TIP3   OH272327   1.046   6.534  15.227  0.1025 -0.2677 -0.2511
16971TIP3    H172328   1.139   6.514  15.219 -0.0176 -0.7519 -0.4874
16971TIP3    H272329   1.012   6.468  15.288  0.0245  0.2676  0.2983
16972TIP3   OH272330   5.406   2.513   1.024  0.5076  0.8560  0.3793
16972TIP3    H172331   5.445   2.454   0.960  2.2625  1.4429  0.8888
16972TIP3    H272332   5.416   2.600   0.986  0.8649  1.1312  1.0905
16973TIP3   OH272333   1.752   3.904   1.782 -0.9025  0.3088 -0.1330
16973TIP3    H172334   1.804   3.841   1.831 -0.3855  1.3085  0.6246
16973TIP3    H272335   1.662   3.886   1.807 -0.8651 -0.8757 -0.8047
16974TIP3   OH272336   0.797   2.025  11.290  0.4178  0.5497  0.2458
16974TIP3    H172337   0.763   2.089  11.227  0.6787 -1.2384 -1.7544
16974TIP3    H272338   0.758   2.052  11.374 -2.0743  1.4019 -1.1377
16975TIP3   OH272339   3.916   0.910   0.704 -0.3559 -0.9008 -0.0676
16975TIP3    H172340   3.969   0.957   0.768  0.8897  0.7190 -2.2213
16975TIP3    H272341   3.975   0.895   0.630 -1.7767 -2.6439 -0.8785
16976TIP3   OH272342   6.643   2.230  12.064 -0.2444 -0.0616  0.2443
16976TIP3    H172343   6.566   2.269  12.104 -2.0146 -0.3562 -2.7135
16976TIP3    H272344   6.672   2.295  12.000  1.3215 -0.4209  0.5684
16977TIP3   OH272345   1.161   0.648   0.995  0.2849 -0.7437  0.3361
16977TIP3    H172346   1.208   0.707   0.936  1.3637 -0.5708  1.3490
16977TIP3    H272347   1.085   0.698   1.024  1.8595  0.6649  2.1883
16978TIP3   OH272348   5.258   4.024  11.273 -0.1815 -0.8547  0.2381
16978TIP3    H172349   5.261   4.120  11.277 -2.9088 -0.7818  1.2382
16978TIP3    H272350   5.348   3.999  11.253  1.1901  1.8003  2.6725
16979TIP3   OH272351   6.589   2.763  12.124  0.0224 -0.6727  0.3890
16979TIP3    H172352   6.599   2.691  12.063  1.5414  0.1217 -0.3362
16979TIP3    H272353   6.496   2.786  12.121  0.0184 -0.8990 -1.3145
16980TIP3   OH272354   0.335   5.260   4.230 -0.5150  0.0199 -0.4843
16980TIP3    H172355   0.335   5.252   4.325 -0.4167 -0.2339 -0.5041
16980TIP3    H272356   0.243   5.274   4.206 -0.5919 -0.3244 -0.3859
16981TIP3   OH272357   4.403   4.143   1.937  0.3037  0.0430  0.1854
16981TIP3    H172358   4.348   4.066   1.948 -0.6850  0.5074 -1.3939
16981TIP3    H272359   4.445   4.155   2.023 -2.2079 -0.1964  1.4875
16982TIP3   OH272360   5.679   6.676  12.832 -0.8706 -0.4194  0.3118
16982TIP3    H172361   5.745   6.644  12.893  0.3993 -1.0804 -1.3570
16982TIP3    H272362   5.645   6.597  12.790  0.3886  0.1828 -1.9222
16983TIP3   OH272363   0.827   2.544   4.117  0.0625 -0.3081 -0.4259
16983TIP3    H172364   0.830   2.464   4.169 -1.3730 -0.2834 -0.2818
16983TIP3    H272365   0.838   2.615   4.180  2.2290 -0.4095 -0.6669
16984TIP3   OH272366   3.041   2.341   1.689  0.9616 -0.4516  0.4124
16984TIP3    H172367   3.092   2.421   1.697  1.5734 -0.9082  1.2075
16984TIP3    H272368   2.992   2.335   1.771 -0.7591  0.2416 -0.5542
16985TIP3   OH272369   3.778   2.789   4.400  0.2626 -0.2572 -0.3279
16985TIP3    H172370   3.701   2.832   4.437  0.5671  0.0891 -0.0870
16985TIP3    H272371   3.779   2.816   4.308  1.5375  1.8757  0.2538
16986TIP3   OH272372   2.372   3.017   6.644 -0.0006  0.5500 -0.1847
16986TIP3    H172373   2.301   3.071   6.680  0.4610  1.0114  0.0452
16986TIP3    H272374   2.404   3.067   6.568 -1.0153 -0.4492 -1.2879
16987TIP3   OH272375   1.470   3.037  15.706  0.2691 -0.6093  0.5317
16987TIP3    H172376   1.484   3.082  15.789  0.4380 -1.6938  1.0969
16987TIP3    H272377   1.381   3.002  15.712 -0.7106  1.5521 -0.8208
16988TIP3   OH272378   2.447   3.909  13.206 -0.6884 -0.3711  0.4805
16988TIP3    H172379   2.450   3.905  13.110 -1.2153 -1.5215  0.4986
16988TIP3    H272380   2.445   4.003  13.226  1.7405 -0.0718 -0.5399
16989TIP3   OH272381   3.171   1.675   0.612 -0.2404 -0.4048 -0.6788
16989TIP3    H172382   3.136   1.631   0.689 -0.2579 -0.4397 -0.7067
16989TIP3    H272383   3.243   1.619   0.582 -0.3946 -0.5217 -0.8353
16990TIP3   OH272384   2.691   2.896   2.912 -0.0084 -0.8757  0.3782
16990TIP3    H172385   2.771   2.850   2.940  1.1582  0.0408 -1.3331
16990TIP3    H272386   2.699   2.983   2.950  0.0125 -0.6660 -0.0950
16991TIP3   OH272387   3.537   0.020  11.475  1.0330 -0.6921  0.0024
16991TIP3    H172388   3.468   0.076  11.511  1.0117 -1.4999  1.2481
16991TIP3    H272389   3.589   0.079  11.420  2.1534  1.0159  2.7999
16992TIP3   OH272390   0.609   2.002   1.643 -0.2277 -0.3610 -0.4697
16992TIP3    H172391   0.586   1.909   1.639 -0.1843 -0.3085 -1.9038
16992TIP3    H272392   0.578   2.030   1.729  0.6594 -1.9498  0.4062
16993TIP3   OH272393   2.759   2.030  14.870 -0.6223  0.6053  0.0751
16993TIP3    H172394   2.810   2.049  14.949 -0.1499 -0.2717 -0.0144
16993TIP3    H272395   2.674   2.001  14.904 -0.1122 -0.6578  0.2844
16994TIP3   OH272396   0.027   0.223   5.922  0.0437  0.3147  0.0004
16994TIP3    H172397   0.029   0.133   5.889  1.1533  0.4007 -0.1963
16994TIP3    H272398  -0.065   0.247   5.923 -0.2860 -0.9401  0.3482
16995TIP3   OH272399   0.113   6.546  12.867  0.1588 -0.7303  0.7109
16995TIP3    H172400   0.126   6.506  12.781 -2.5538 -0.0322 -0.0657
16995TIP3    H272401   0.104   6.471  12.927 -0.5377 -1.2330 -0.0247
16996TIP3   OH272402   6.401   0.890   0.201 -1.1162 -0.3938 -0.1466
16996TIP3    H172403   6.452   0.884   0.283 -2.3417 -0.3908  0.6297
16996TIP3    H272404   6.440   0.963   0.154 -1.3993  0.6200  1.1576
16997TIP3   OH272405   0.104   5.487  11.197 -0.2553  0.1974  0.0311
16997TIP3    H172406   0.125   5.472  11.105 -0.0463 -2.0293  0.4194
16997TIP3    H272407   0.011   5.468  11.203 -0.3326  0.6389  0.2254
16998TIP3   OH272408   1.539   4.111  13.556  0.4297  0.3048 -0.0601
16998TIP3    H172409   1.483   4.047  13.599 -0.3400  0.5079 -0.7575
16998TIP3    H272410   1.595   4.144  13.627 -0.4139  0.1959  0.6701
16999TIP3   OH272411   0.425   6.240   0.785 -0.3580 -0.0259  0.0319
16999TIP3    H172412   0.440   6.261   0.877  1.5171 -0.3151 -0.1990
16999TIP3    H272413   0.476   6.160   0.770  0.6275  0.9025 -1.6619
17000TIP3   OH272414   5.486   5.264   5.609 -0.5319  0.2494  0.7686
17000TIP3    H172415   5.565   5.318   5.610 -0.3863  0.0397  0.7221
17000TIP3    H272416   5.461   5.261   5.517  0.9777 -1.9460  0.3809
17001TIP3   OH272417   2.359   2.406   3.706  0.1750  0.6350 -0.6195
17001TIP3    H172418   2.323   2.487   3.670  1.8342  0.8533 -1.8503
17001TIP3    H272419   2.364   2.347   3.631  2.2188  0.5621 -0.4467
17002TIP3   OH272420   4.560   2.444  16.118  0.0006  0.2641  0.7495
17002TIP3    H172421   4.469   2.460  16.146  0.0649 -1.5493  2.0590
17002TIP3    H272422   4.589   2.372  16.173  2.3035  0.9143  0.4096
17003TIP3   OH272423   1.700   2.881   3.202 -0.0267 -0.1909  0.4777
17003TIP3    H172424   1.623   2.921   3.241  0.1181  1.2900 -0.7078
17003TIP3    H272425   1.712   2.927   3.119  1.8856 -0.6824  0.4428
17004TIP3   OH272426   5.057   5.462  16.419 -0.4542 -0.1090 -0.0629
17004TIP3    H172427   5.026   5.467  16.509  1.2395  0.2675  0.5044
17004TIP3    H272428   5.144   5.502  16.420  0.3364 -1.6989 -1.5082
17005TIP3   OH272429   4.769   2.167  15.953 -0.3010 -0.1314  0.0346
17005TIP3    H172430   4.820   2.167  15.872  1.0115  1.4006  0.8437
17005TIP3    H272431   4.684   2.130  15.927  0.3841 -0.4902 -1.8364
17006TIP3   OH272432   2.245   3.334   5.984 -0.1003 -0.4074 -0.0020
17006TIP3    H172433   2.301   3.392   5.932 -0.4703  0.0896  0.1525
17006TIP3    H272434   2.272   3.246   5.958  2.8441 -0.2576  2.2305
17007TIP3   OH272435   3.253   6.181  13.736 -0.2998  0.4099  0.5101
17007TIP3    H172436   3.281   6.112  13.796  0.5947 -0.1564 -0.5492
17007TIP3    H272437   3.281   6.151  13.650 -0.2693  1.9098 -0.0126
17008TIP3   OH272438   3.618   0.903  13.424 -0.1376  0.2674 -0.4554
17008TIP3    H172439   3.675   0.828  13.410 -0.3037 -0.0569  0.6081
17008TIP3    H272440   3.637   0.961  13.350  1.3974  0.0562 -0.2491
17009TIP3   OH272441   4.227   5.469  12.642 -0.2137  0.3660  0.3084
17009TIP3    H172442   4.215   5.411  12.566  1.6033 -0.8562  0.9284
17009TIP3    H272443   4.227   5.557  12.604 -1.0823 -0.1282 -0.8901
17010TIP3   OH272444   3.245   3.978  14.213  0.2786  0.1030 -0.6179
17010TIP3    H172445   3.173   4.040  14.225 -1.1895 -1.7314  0.6010
17010TIP3    H272446   3.287   3.974  14.299  0.9135  0.0853 -0.9334
17011TIP3   OH272447   5.447   5.793  11.786  0.4115 -0.2626  0.2237
17011TIP3    H172448   5.397   5.717  11.814  0.3130 -0.0156  0.7227
17011TIP3    H272449   5.381   5.861  11.772  0.4426 -0.4272 -0.7543
17012TIP3   OH272450   0.360   1.802  16.096  0.2742 -0.1493  0.3495
17012TIP3    H172451   0.296   1.873  16.093 -0.5429 -0.8908  0.0114
17012TIP3    H272452   0.433   1.833  16.043 -0.4038  0.1173 -0.4423
17013TIP3   OH272453   6.204   0.956  14.548  0.2883 -0.0725  0.4275
17013TIP3    H172454   6.173   0.889  14.610 -0.1611  1.8883  2.3901
17013TIP3    H272455   6.290   0.980  14.582 -1.2233  3.2100  2.1674
17014TIP3   OH272456   3.106   4.001   0.288 -0.8072 -0.1989  0.0665
17014TIP3    H172457   3.165   4.076   0.277 -1.7155  0.6175  0.6306
17014TIP3    H272458   3.164   3.926   0.297  0.1523  0.6191  0.8708
17015TIP3   OH272459   1.982   5.624  11.436 -0.2199 -0.0328  0.5993
17015TIP3    H172460   2.018   5.535  11.427 -1.7416 -0.6604  0.6161
17015TIP3    H272461   2.042   5.679  11.386  1.5407 -0.8478  1.7573
17016TIP3   OH272462   0.738   2.866   3.872  0.2784 -0.1328 -0.4384
17016TIP3    H172463   0.814   2.808   3.875  0.3501 -0.1840 -2.4129
17016TIP3    H272464   0.774   2.954   3.869  0.2033 -0.0509  1.1350
17017TIP3   OH272465   3.068   0.709   5.230 -0.3120  0.0618 -0.4016
17017TIP3    H172466   3.074   0.803   5.214  1.2927  0.0859  0.2390
17017TIP3    H272467   3.150   0.687   5.275  0.1254 -1.9664 -2.1311
17018TIP3   OH272468   3.482   1.567  13.318 -0.3302 -0.0877  0.0065
17018TIP3    H172469   3.545   1.554  13.389  0.2863  0.0084 -0.5173
17018TIP3    H272470   3.397   1.551  13.359  0.1310 -1.8299  0.3446
17019TIP3   OH272471   2.480   2.138   4.378  0.0827 -0.3519  0.6133
17019TIP3    H172472   2.540   2.189   4.432  0.2900 -0.1715  0.2154
17019TIP3    H272473   2.500   2.047   4.400  0.0471 -0.2760  0.9632
17020TIP3   OH272474   0.649   1.893   1.272  0.3624  0.1577  0.7047
17020TIP3    H172475   0.692   1.869   1.354  0.2362  0.2153  0.7860
17020TIP3    H272476   0.575   1.947   1.298  1.6602  2.1211  0.4143
17021TIP3   OH272477   0.829   0.785  14.852 -0.9384 -0.3637 -0.1298
17021TIP3    H172478   0.894   0.754  14.914 -0.3642 -0.1647 -0.6359
17021TIP3    H272479   0.866   0.866  14.817 -1.0561 -0.7306 -1.0915
17022TIP3   OH272480   2.240   5.378   6.412 -0.2876 -0.3843 -0.5343
17022TIP3    H172481   2.251   5.285   6.394 -2.5943 -0.5734 -1.0843
17022TIP3    H272482   2.186   5.381   6.491 -0.3197  0.5012 -0.5869
17023TIP3   OH272483   6.246   2.326  13.381 -1.2047  0.0681 -0.1314
17023TIP3    H172484   6.177   2.261  13.392 -1.8130  0.7563  0.1786
17023TIP3    H272485   6.273   2.349  13.470 -0.2955 -0.4797 -0.2536
17024TIP3   OH272486   3.382   5.124   2.079 -0.0088  0.1433 -0.3225
17024TIP3    H172487   3.334   5.041   2.073  0.7003 -0.3616  0.7117
17024TIP3    H272488   3.338   5.182   2.017 -1.1264 -0.7062 -0.3457
17025TIP3   OH272489   1.528   3.332   5.150 -0.4272  0.3857  0.3638
17025TIP3    H172490   1.556   3.244   5.175 -1.3864  0.2268  0.8817
17025TIP3    H272491   1.584   3.355   5.076 -1.8248 -1.6344 -1.3712
17026TIP3   OH272492   3.505   1.029   1.629 -0.3731  0.3081  0.2821
17026TIP3    H172493   3.438   0.998   1.568 -0.6496  0.6210  0.4228
17026TIP3    H272494   3.564   0.954   1.641 -0.2262  0.2908 -0.4894
17027TIP3   OH272495   1.890   2.046  14.450  0.1743 -0.3309  0.1551
17027TIP3    H172496   1.951   1.981  14.484 -0.0028  0.0838  1.2817
17027TIP3    H272497   1.809   1.997  14.434  0.5479 -0.7164 -0.5709
17028TIP3   OH272498   4.376   3.611   2.551 -0.2586 -0.2454 -0.2795
17028TIP3    H172499   4.339   3.557   2.621  0.7101  0.6533  0.9522
17028TIP3    H272500   4.363   3.559   2.472 -2.0920 -0.9249  0.4406
17029TIP3   OH272501   2.804   2.018   6.005 -0.6969  0.9316 -0.2738
17029TIP3    H172502   2.740   1.998   6.073 -1.2013  0.9084 -0.7537
17029TIP3    H272503   2.802   1.942   5.947  1.7632 -0.3263  1.2067
17030TIP3   OH272504   1.748   4.924   0.164 -0.0900  0.1635 -0.3183
17030TIP3    H172505   1.745   4.837   0.124  0.0902 -0.0100  0.0524
17030TIP3    H272506   1.662   4.935   0.204  1.0460 -1.2446  2.6322
17031TIP3   OH272507   5.141   3.781  15.148 -0.0413 -0.6576  0.2024
17031TIP3    H172508   5.158   3.774  15.242 -0.1254  3.8823  0.6764
17031TIP3    H272509   5.078   3.712  15.129 -0.5470 -1.1990  3.6327
17032TIP3   OH272510   6.645   5.941  13.608 -0.0188  0.0349  0.0310
17032TIP3    H172511   6.695   5.996  13.548 -3.3096 -0.0372 -2.9177
17032TIP3    H272512   6.607   6.002  13.671  2.2434  0.2638  1.2489
17033TIP3   OH272513   4.323   1.658  12.699  0.0134 -0.2559  0.3831
17033TIP3    H172514   4.271   1.627  12.774 -0.6889  0.3148  0.1337
17033TIP3    H272515   4.389   1.715  12.738 -0.1989 -0.1542  0.5941
17034TIP3   OH272516   0.075   2.143  15.561 -0.7838  0.6268 -0.1368
17034TIP3    H172517   0.079   2.183  15.474 -1.5176  3.2861  1.0066
17034TIP3    H272518   0.123   2.203  15.617 -0.6698 -0.8591  1.3781
17035TIP3   OH272519   4.529   4.657  14.729  0.2855 -0.5442  0.2090
17035TIP3    H172520   4.465   4.705  14.782  1.2118  0.7543  0.1559
17035TIP3    H272521   4.517   4.565  14.755 -0.7984 -0.1789  1.0390
17036TIP3   OH272522   3.252   5.899  11.605  0.5065 -0.2257 -0.4172
17036TIP3    H172523   3.247   5.963  11.676  0.0573  0.6442 -1.2251
17036TIP3    H272524   3.309   5.830  11.639  1.7793  1.0582  0.0970
17037TIP3   OH272525   0.451   4.454   4.104 -0.2196 -0.0718 -0.1964
17037TIP3    H172526   0.489   4.379   4.058 -1.7072 -1.0056  0.0723
17037TIP3    H272527   0.475   4.530   4.050  1.9398 -0.6313 -0.0662
17038TIP3   OH272528   5.344   5.480  16.769 -0.8348 -0.2794  0.4255
17038TIP3    H172529   5.281   5.545  16.799 -0.7399 -0.7080  1.5770
17038TIP3    H272530   5.423   5.498  16.819 -0.4959 -0.6494  0.0314
17039TIP3   OH272531   3.175   1.769   4.537 -0.4520 -0.3307  0.7537
17039TIP3    H172532   3.258   1.723   4.525  0.4311  0.6603  2.7735
17039TIP3    H272533   3.109   1.707   4.505  1.0136 -1.3265 -0.4352
17040TIP3   OH272534   2.756   5.779  10.625 -0.0449  0.4303  0.1583
17040TIP3    H172535   2.784   5.708  10.567  2.4757  1.2790  0.2948
17040TIP3    H272536   2.832   5.836  10.633 -0.8567  1.2244  2.9731
17041TIP3   OH272537   1.475   4.643   1.041 -0.0906  0.1201  0.4201
17041TIP3    H172538   1.445   4.589   0.968 -1.0882 -1.5651  2.0464
17041TIP3    H272539   1.565   4.665   1.019 -0.9306  1.2019 -2.2116
17042TIP3   OH272540   2.738   3.923  11.911 -0.2066  0.5462  0.0527
17042TIP3    H172541   2.794   3.853  11.877 -2.0317 -1.7274  1.5098
17042TIP3    H272542   2.721   3.979  11.835  0.8199 -0.9366 -1.3141
17043TIP3   OH272543   1.193   5.825   4.491  0.5874  0.4094  0.5234
17043TIP3    H172544   1.116   5.829   4.548 -0.2973 -1.2554 -0.5046
17043TIP3    H272545   1.259   5.878   4.536  0.2326 -1.6239  3.5771
17044TIP3   OH272546   1.635   0.016   0.457  0.1748 -0.1813  0.0903
17044TIP3    H172547   1.565   0.052   0.402  1.7637  2.4758 -0.2702
17044TIP3    H272548   1.687  -0.038   0.396 -0.2413 -0.2972 -0.1642
17045TIP3   OH272549   0.252   5.138  15.455 -0.4557 -0.5648  0.2091
17045TIP3    H172550   0.188   5.068  15.467 -0.9973 -0.2014 -0.5105
17045TIP3    H272551   0.206   5.204  15.403  0.6184 -0.4672 -0.6381
17046TIP3   OH272552   5.843   4.219  12.633 -0.4722 -0.4873 -0.0348
17046TIP3    H172553   5.798   4.303  12.644 -0.2267 -0.3751  0.1227
17046TIP3    H272554   5.779   4.163  12.589 -0.2254  0.1399 -1.1927
17047TIP3   OH272555   5.576   4.980   0.136 -0.1078  0.2280 -0.3284
17047TIP3    H172556   5.599   5.052   0.195 -3.4708  0.1488  1.1792
17047TIP3    H272557   5.586   4.901   0.190 -0.0587 -0.1248 -0.8517
17048TIP3   OH272558   4.907   1.603   5.541 -0.0738 -0.5742 -0.3450
17048TIP3    H172559   4.835   1.570   5.486  0.8330 -0.3643 -1.6947
17048TIP3    H272560   4.913   1.696   5.520 -0.2576 -0.3129  0.7461
17049TIP3   OH272561   3.156   5.322  16.811  0.0372 -0.0482 -0.5883
17049TIP3    H172562   3.069   5.363  16.807 -0.3061 -0.5987  0.7837
17049TIP3    H272563   3.149   5.259  16.884  0.4117 -2.8669 -2.9141
17050TIP3   OH272564   0.915   0.765   1.473  0.5920  0.2083 -0.1414
17050TIP3    H172565   0.822   0.789   1.473  0.7113  0.7392  1.5040
17050TIP3    H272566   0.916   0.673   1.446 -0.3327  0.4244 -0.9570
17051TIP3   OH272567   1.554   2.833  16.851  0.2683 -0.2500  0.0512
17051TIP3    H172568   1.484   2.768  16.851  0.5175 -0.5156  0.5557
17051TIP3    H272569   1.565   2.857  16.943  2.0249 -1.4915  0.1867
17052TIP3   OH272570   0.123   3.758   3.724  0.0685 -0.0858  0.1403
17052TIP3    H172571   0.193   3.823   3.718  1.7630 -1.8721  0.2913
17052TIP3    H272572   0.043   3.809   3.716  1.3422  2.1325  1.1211
17053TIP3   OH272573   4.852   3.943   1.657  0.6093 -0.1020  0.1770
17053TIP3    H172574   4.862   4.023   1.605 -0.2552 -0.1778 -0.1019
17053TIP3    H272575   4.766   3.950   1.697 -0.2285 -1.7463 -1.2939
17054TIP3   OH272576   0.074   6.764  14.243 -0.4761  0.7919  0.2695
17054TIP3    H172577   0.120   6.845  14.221 -0.4969  0.2761 -1.7820
17054TIP3    H272578   0.122   6.696  14.197 -2.3612  0.0496 -0.6900
17055TIP3   OH272579   3.377   1.746  14.656  0.6413  0.0881 -0.7125
17055TIP3    H172580   3.401   1.722  14.566  1.4914 -1.9397  0.0233
17055TIP3    H272581   3.457   1.733  14.706  0.2124  1.3584  0.3316
17056TIP3   OH272582   2.833   6.623  14.325  0.1769  0.6079  0.2903
17056TIP3    H172583   2.909   6.571  14.300 -1.5235 -1.7687 -0.2317
17056TIP3    H272584   2.826   6.690  14.257 -0.9473 -2.1356 -2.4702
17057TIP3   OH272585   1.651   4.414   2.504  0.4879 -0.1372 -0.1798
17057TIP3    H172586   1.556   4.413   2.490  0.5515  0.3417 -0.6660
17057TIP3    H272587   1.679   4.325   2.480  0.2990  0.0207 -1.0303
17058TIP3   OH272588   4.206   4.085   0.490  0.1040  0.4569  0.0572
17058TIP3    H172589   4.234   4.017   0.552  1.9920  0.4787 -0.7355
17058TIP3    H272590   4.138   4.133   0.537  2.8024  1.6938  2.9397
17059TIP3   OH272591   2.717   1.632  15.543 -0.3208  0.3149  0.2400
17059TIP3    H172592   2.777   1.707  15.535 -0.4043  0.3219 -0.3317
17059TIP3    H272593   2.775   1.557  15.556 -0.2138  0.4012  0.2693
17060TIP3   OH272594   4.022   3.599  16.869  0.2407  0.2647 -0.0680
17060TIP3    H172595   3.990   3.526  16.923  2.9972 -2.3065 -1.7792
17060TIP3    H272596   4.109   3.618  16.903  0.5979  0.9983 -1.3555
17061TIP3   OH272597   3.625   0.429  17.138 -0.1055 -0.8984 -0.8826
17061TIP3    H172598   3.583   0.415  17.053 -0.2901 -0.7808 -0.8122
17061TIP3    H272599   3.553   0.423  17.201 -0.4348  1.5766 -0.9423
17062TIP3   OH272600   3.273   0.683   5.439  0.3563 -0.0928 -0.8848
17062TIP3    H172601   3.304   0.742   5.508  0.9701 -2.4217  0.9259
17062TIP3    H272602   3.352   0.661   5.390  0.2883 -0.0947 -0.9921
17063TIP3   OH272603   6.258   6.584   6.634 -0.9389 -0.4567  0.1166
17063TIP3    H172604   6.311   6.664   6.635  1.8137 -2.1799 -0.3007
17063TIP3    H272605   6.255   6.556   6.725  0.1431 -1.1025 -0.0269
17064TIP3   OH272606   2.550   5.183   5.697 -0.3765  0.1119  0.2299
17064TIP3    H172607   2.504   5.100   5.707  0.0666 -0.4948 -2.2846
17064TIP3    H272608   2.635   5.169   5.739 -0.4944 -0.5435  0.2466
17065TIP3   OH272609   1.636   1.099  13.751 -0.1188  0.2163 -0.1386
17065TIP3    H172610   1.587   1.021  13.724 -0.5244  0.7284 -0.8947
17065TIP3    H272611   1.727   1.080  13.727 -0.2159 -0.0273 -0.3137
17066TIP3   OH272612   3.734   5.710   6.961 -0.1055  0.6827  0.3458
17066TIP3    H172613   3.813   5.701   6.908  0.8403  0.8657  1.7086
17066TIP3    H272614   3.713   5.804   6.958  0.5956  0.8665  1.2243
17067TIP3   OH272615   5.071   0.489  10.838  0.5148 -0.4614 -0.2748
17067TIP3    H172616   5.036   0.400  10.830 -0.1623 -0.1981 -0.2574
17067TIP3    H272617   4.997   0.541  10.870  1.4363 -0.2708  1.6153
17068TIP3   OH272618   1.186   3.355   4.354  0.2164  0.7625 -0.2323
17068TIP3    H172619   1.184   3.435   4.301  0.4796  2.0185  1.6167
17068TIP3    H272620   1.217   3.384   4.439 -0.3559 -1.2128  0.6642
17069TIP3   OH272621   0.484   6.200  15.995  0.6556 -0.3121 -0.4336
17069TIP3    H172622   0.498   6.184  16.088  2.7142  1.0248 -0.4918
17069TIP3    H272623   0.524   6.124  15.951 -1.9151 -1.8575 -0.2012
17070TIP3   OH272624   5.190   5.118  15.214 -0.5729 -0.7361 -0.5577
17070TIP3    H172625   5.203   5.109  15.119  0.4114  0.4960 -0.5441
17070TIP3    H272626   5.277   5.138  15.248 -1.3731  1.4325  0.2906
17071TIP3   OH272627   5.761   6.479  16.159 -0.3276 -0.2036 -0.0657
17071TIP3    H172628   5.776   6.486  16.065  0.0976 -1.0537 -0.0690
17071TIP3    H272629   5.849   6.480  16.197 -0.3909 -1.9785  0.1614
17072TIP3   OH272630   0.562   5.104  12.240 -0.2438  0.0064  0.2092
17072TIP3    H172631   0.523   5.188  12.265  0.1595  0.3674 -0.3661
17072TIP3    H272632   0.500   5.066  12.177 -0.0463  0.2236 -0.1150
17073TIP3   OH272633   4.172   1.689  11.954 -0.3453  0.4029  0.0018
17073TIP3    H172634   4.080   1.664  11.949  0.1814 -1.5521 -0.2066
17073TIP3    H272635   4.171   1.785  11.953 -2.3508  0.3939 -0.2404
17074TIP3   OH272636   1.572   3.131  11.557 -0.0064 -0.3586  0.2038
17074TIP3    H172637   1.566   3.180  11.638  2.6371 -0.0514  0.2597
17074TIP3    H272638   1.550   3.041  11.581  1.7474 -0.4696  1.5092
17075TIP3   OH272639   0.456   2.413   4.674 -0.1913 -0.1325  0.2001
17075TIP3    H172640   0.377   2.359   4.676  0.3506 -0.9170  0.7746
17075TIP3    H272641   0.478   2.427   4.767 -1.8513  3.3428  0.1186
17076TIP3   OH272642   5.248   2.701  15.921  0.4991  0.3142 -0.1237
17076TIP3    H172643   5.341   2.679  15.930  0.9455  1.8646 -0.7404
17076TIP3    H272644   5.207   2.620  15.891  1.9505  0.0401 -1.4694
17077TIP3   OH272645   1.339   6.208  16.776 -0.0510  0.5196  0.1545
17077TIP3    H172646   1.259   6.247  16.739  0.3001  0.8107 -0.3040
17077TIP3    H272647   1.317   6.115  16.786 -0.8565  0.8102  1.1541
17078TIP3   OH272648   3.928   2.320  11.719 -0.1108  0.5909  0.3442
17078TIP3    H172649   3.882   2.397  11.752  0.7175  1.2659 -0.0629
17078TIP3    H272650   3.858   2.259  11.693 -0.7638  1.0439  1.0233
17079TIP3   OH272651   5.231   0.919   4.889 -0.4739  0.4644 -0.0301
17079TIP3    H172652   5.289   0.916   4.965  0.1559  0.2507 -0.5038
17079TIP3    H272653   5.182   0.837   4.893  0.6116 -0.2385 -0.6460
17080TIP3   OH272654   6.390   2.233   5.815 -0.6696  0.1618  0.4189
17080TIP3    H172655   6.433   2.148   5.805 -1.7111 -0.5765  1.9182
17080TIP3    H272656   6.313   2.227   5.759 -0.7595  0.1005  0.5483
17081TIP3   OH272657   4.760   6.127   0.111  0.0360 -0.2478  0.0069
17081TIP3    H172658   4.754   6.206   0.056  0.2779  0.3766  0.8744
17081TIP3    H272659   4.674   6.087   0.104 -0.3634  0.5591  0.2598
17082TIP3   OH272660   6.543   2.989   4.971 -0.1549  0.2410  0.5363
17082TIP3    H172661   6.560   3.083   4.976 -0.9260  0.3969  0.2406
17082TIP3    H272662   6.502   2.976   4.885  0.9563 -0.5286  0.1122
17083TIP3   OH272663   1.292   6.121  13.129 -0.0636 -0.3712  0.9318
17083TIP3    H172664   1.359   6.163  13.076 -0.6759 -2.8003 -1.9111
17083TIP3    H272665   1.209   6.155  13.094 -0.4204  2.1295  3.9922
17084TIP3   OH272666   5.899   3.173  11.361 -0.6797  0.3909 -0.2558
17084TIP3    H172667   5.844   3.108  11.318  0.0032  0.7441 -1.6722
17084TIP3    H272668   5.945   3.124  11.429 -1.0597 -0.3447 -0.5254
17085TIP3   OH272669   2.262   4.119  16.862  0.3815 -0.0585 -0.0531
17085TIP3    H172670   2.341   4.117  16.809  0.1069  0.8017 -0.5033
17085TIP3    H272671   2.198   4.166  16.808 -0.4764 -0.8406  0.2591
17086TIP3   OH272672   4.477   1.565   4.678  0.1098 -0.0409 -0.2901
17086TIP3    H172673   4.552   1.616   4.708 -0.5812  0.7773  0.0646
17086TIP3    H272674   4.432   1.624   4.617  0.0078 -0.7000 -0.8583
17087TIP3   OH272675   1.453   1.460  11.089  0.5637  0.2431 -0.4290
17087TIP3    H172676   1.382   1.487  11.031  1.3916  1.5668 -0.8251
17087TIP3    H272677   1.482   1.540  11.132  1.7570 -0.3130 -0.1837
17088TIP3   OH272678   2.489   4.077  16.724 -0.5013 -0.1194 -0.0938
17088TIP3    H172679   2.568   4.067  16.778 -0.7383 -0.2541  0.2295
17088TIP3    H272680   2.502   4.016  16.652 -0.1346  0.1357 -0.2534
17089TIP3   OH272681   3.661   3.082   3.026 -0.3119  0.3564  0.4231
17089TIP3    H172682   3.586   3.068   2.969  0.2883 -2.4398  0.2450
17089TIP3    H272683   3.731   3.109   2.967 -0.6577  1.1596  0.3623
17090TIP3   OH272684   3.079   4.141  15.768  0.0092  0.0814  0.0290
17090TIP3    H172685   3.160   4.127  15.816 -0.6018 -1.1355  0.7563
17090TIP3    H272686   3.105   4.147  15.677  1.2382  2.8503  0.5297
17091TIP3   OH272687   1.045   2.502   1.860  0.1714 -0.2666  0.3481
17091TIP3    H172688   1.103   2.427   1.877 -0.7340 -1.1155 -0.2461
17091TIP3    H272689   1.077   2.539   1.778  1.8286  1.1866  1.6272
17092TIP3   OH272690   2.588   4.037  15.954  0.2131  0.1834  0.4014
17092TIP3    H172691   2.666   4.021  16.007  0.5223 -0.8023 -0.3519
17092TIP3    H272692   2.607   4.119  15.909  2.0131 -1.4569 -1.9264
17093TIP3   OH272693   1.980   0.090  15.737 -0.2246 -0.3624 -0.5014
17093TIP3    H172694   2.002   0.011  15.688 -1.1192  0.0107 -1.5159
17093TIP3    H272695   2.064   0.129  15.759  0.1679  0.1127 -2.8007
17094TIP3   OH272696   2.036   3.189   2.980 -0.4700  1.0129 -0.2492
17094TIP3    H172697   1.943   3.198   2.999  0.2599  3.0650  2.6116
17094TIP3    H272698   2.071   3.137   3.053  0.4708 -0.7791 -1.9078
17095TIP3   OH272699   4.145   4.574  12.152 -0.3544  0.5242 -0.6840
17095TIP3    H172700   4.188   4.599  12.234  1.1681  1.2137 -1.6859
17095TIP3    H272701   4.217   4.552  12.093 -1.3689  1.7557 -2.3975
17096TIP3   OH272702   5.531   3.390   0.248  0.3229  0.4992  0.1862
17096TIP3    H172703   5.550   3.422   0.159  1.8056  2.6011  1.1981
17096TIP3    H272704   5.441   3.416   0.264  0.0285  0.0669 -0.7200
17097TIP3   OH272705   6.515   5.574  10.530  0.2189  0.2961 -0.6918
17097TIP3    H172706   6.519   5.566  10.625  0.7270 -0.9919 -0.8213
17097TIP3    H272707   6.422   5.569  10.509  0.0832  0.8821 -0.2404
17098TIP3   OH272708   4.485   1.665  15.252 -0.3748 -0.3184 -0.0835
17098TIP3    H172709   4.474   1.637  15.161 -1.3526 -0.9173  0.2029
17098TIP3    H272710   4.558   1.613  15.285 -0.1369 -0.2323 -0.4834
17099TIP3   OH272711   5.114   1.121   4.746  0.9048 -0.3838  0.3473
17099TIP3    H172712   5.156   1.038   4.766  1.7472 -0.1351 -0.3857
17099TIP3    H272713   5.073   1.108   4.661 -0.3815 -0.5773  0.9890
17100TIP3   OH272714   2.556   1.153   1.933 -0.1159  0.7467 -0.2812
17100TIP3    H172715   2.505   1.091   1.985  0.6841 -0.5379 -1.0176
17100TIP3    H272716   2.523   1.239   1.960 -0.1593  0.0872  1.8774
17101TIP3   OH272717   0.397   4.010   2.225 -0.0826  0.1113  0.3046
17101TIP3    H172718   0.312   4.045   2.250  0.2172  1.8303 -1.0386
17101TIP3    H272719   0.384   3.973   2.137  0.6740  0.8102 -0.1032
17102TIP3   OH272720   0.317   0.821  15.149 -0.0367 -0.7749 -0.3358
17102TIP3    H172721   0.382   0.752  15.136 -1.1612 -1.8976 -0.1218
17102TIP3    H272722   0.271   0.795  15.229 -0.3823  0.2970 -0.1795
17103TIP3   OH272723   1.463   5.905   3.960  0.0617 -0.1855  0.2586
17103TIP3    H172724   1.473   5.897   4.055 -2.2130 -1.5214  0.4270
17103TIP3    H272725   1.533   5.964   3.933  1.1163 -0.2778  2.6852
17104TIP3   OH272726   0.334   3.281   1.457  0.3546 -0.2810 -0.6075
17104TIP3    H172727   0.257   3.237   1.495 -0.6898  1.6810 -0.3947
17104TIP3    H272728   0.404   3.264   1.519 -0.6324  0.4185  0.7167
17105TIP3   OH272729   0.473   2.769  14.662  0.0139  0.4036 -0.1392
17105TIP3    H172730   0.407   2.703  14.685  0.0925 -0.1926 -1.5533
17105TIP3    H272731   0.425   2.852  14.663 -0.0554  0.3758  1.7967
17106TIP3   OH272732   1.069   4.074   2.954 -0.0339  0.6254  0.1646
17106TIP3    H172733   1.012   4.127   3.010 -1.3936 -3.0370  2.4311
17106TIP3    H272734   1.147   4.128   2.942 -1.6157  3.4018  1.7824
17107TIP3   OH272735   2.409   2.957  13.530 -0.0877  0.0436 -0.2038
17107TIP3    H172736   2.428   2.869  13.563 -0.0712  1.0928  2.7433
17107TIP3    H272737   2.490   3.006  13.544  0.2196  0.3198 -2.7323
17108TIP3   OH272738   4.936   5.103   1.297  0.5305 -0.3165  0.0303
17108TIP3    H172739   4.936   5.113   1.202  0.3052  1.8711  0.2479
17108TIP3    H272740   4.937   5.192   1.331 -3.3140 -0.9288  2.0961
17109TIP3   OH272741   0.369   5.552  11.987 -0.7161 -0.0496 -0.1629
17109TIP3    H172742   0.334   5.569  11.899  0.7289 -0.0141 -0.7488
17109TIP3    H272743   0.298   5.576  12.046 -1.5390  0.3792 -1.3046
17110TIP3   OH272744   0.499   6.365  13.031 -0.6960 -0.4244 -0.0832
17110TIP3    H172745   0.482   6.271  13.020 -0.7226 -0.4832  0.4422
17110TIP3    H272746   0.417   6.401  13.065 -0.9475 -0.0663 -1.0589
17111TIP3   OH272747   5.759   5.387   5.631  0.4503 -0.7055  0.1444
17111TIP3    H172748   5.787   5.425   5.713 -0.4505 -2.0460  1.0957
17111TIP3    H272749   5.751   5.461   5.571 -0.3148  0.4631  1.6651
17112TIP3   OH272750   2.922   2.066   1.659  0.4819 -0.3386  0.0849
17112TIP3    H172751   2.842   2.082   1.609  0.0479 -0.4550  0.7299
17112TIP3    H272752   2.965   2.151   1.664  0.3979 -0.2727 -0.2558
17113TIP3   OH272753   5.904   0.601  14.686 -0.5661 -0.0895  0.3535
17113TIP3    H172754   5.988   0.646  14.680 -0.6886  0.1054  0.0911
17113TIP3    H272755   5.901   0.566  14.776  0.7756 -2.0255 -0.3291
17114TIP3   OH272756   4.124   0.410  16.733 -0.3283  0.0775 -0.1176
17114TIP3    H172757   4.154   0.501  16.743  0.3486 -0.1880  0.2688
17114TIP3    H272758   4.153   0.366  16.813  0.9640 -0.9290 -1.1076
17115TIP3   OH272759   1.347   3.891   5.658 -0.5064 -0.2048 -0.0500
17115TIP3    H172760   1.275   3.918   5.602 -0.1537 -0.2451 -0.5294
17115TIP3    H272761   1.381   3.811   5.617  0.0239  0.0035 -0.0251
17116TIP3   OH272762   2.624   4.206  16.514  0.0586 -0.1825  0.2240
17116TIP3    H172763   2.645   4.298  16.500  1.9182 -0.6150  0.0439
17116TIP3    H272764   2.575   4.204  16.596 -2.0301  1.2078 -0.9246
17117TIP3   OH272765   2.873   2.535   0.042  0.3751 -0.1733 -0.0100
17117TIP3    H172766   2.950   2.589   0.057  1.5228 -0.6425 -3.8501
17117TIP3    H272767   2.907   2.453   0.005 -1.9317 -0.2573 -2.1154
17118TIP3   OH272768   1.187   0.609  15.975 -0.0207  0.1781  0.0337
17118TIP3    H172769   1.282   0.601  15.976 -0.0329 -0.0738  1.9218
17118TIP3    H272770   1.170   0.701  15.955  0.6552  0.4686  0.7670
17119TIP3   OH272771   4.205   4.492   3.315 -0.1553  0.0862  0.8022
17119TIP3    H172772   4.234   4.561   3.256 -1.4756  1.1890  1.4107
17119TIP3    H272773   4.154   4.538   3.382 -0.9868 -1.4723  1.2528
17120TIP3   OH272774   1.763   4.605  11.705  0.6320 -0.0720 -0.1408
17120TIP3    H172775   1.671   4.597  11.681  0.4038  0.0311  0.6606
17120TIP3    H272776   1.810   4.613  11.622 -0.1610  0.6545 -0.5160
17121TIP3   OH272777   1.799   3.505  17.231  0.1146 -0.2502  0.0451
17121TIP3    H172778   1.800   3.492  17.136 -0.7713  3.3857 -0.5506
17121TIP3    H272779   1.873   3.562  17.248  1.2876 -2.2437  1.8415
17122TIP3   OH272780   3.375   2.391   5.134 -0.1083 -0.5947  0.3470
17122TIP3    H172781   3.465   2.423   5.127  0.1281 -1.4270 -0.5471
17122TIP3    H272782   3.381   2.317   5.194 -0.0271 -1.2710 -0.4925
17123TIP3   OH272783   3.015   2.442   3.189  0.4281 -0.3730  0.2960
17123TIP3    H172784   2.953   2.511   3.213 -0.6047 -1.1763 -0.0403
17123TIP3    H272785   3.051   2.413   3.273  0.8101  0.5055  0.4472
17124TIP3   OH272786   0.399   2.148  16.312 -0.0485 -0.3921  0.2485
17124TIP3    H172787   0.373   2.190  16.230  0.1403 -0.6698  0.0508
17124TIP3    H272788   0.330   2.083  16.329 -0.5633  0.2727  0.7685
17125TIP3   OH272789   4.241   0.622  14.165  0.4523  0.0434  0.4798
17125TIP3    H172790   4.247   0.684  14.238 -1.4766 -0.7026  1.2835
17125TIP3    H272791   4.162   0.571  14.182 -0.8730  0.8300 -2.8857
17126TIP3   OH272792   4.076   3.055   2.963 -0.0303  0.1148  0.0784
17126TIP3    H172793   4.114   3.108   2.894 -0.0118  1.3094  0.9901
17126TIP3    H272794   4.087   2.965   2.933  1.8041  0.5203 -0.5392
17127TIP3   OH272795   4.859   0.579  10.500 -0.1766  0.6609  0.6947
17127TIP3    H172796   4.846   0.574  10.406  1.9441  1.7721  0.3209
17127TIP3    H272797   4.856   0.488  10.530  1.6636  0.0936 -0.7922
17128TIP3   OH272798   0.690   4.221  12.662 -0.0307 -0.6596 -0.6225
17128TIP3    H172799   0.777   4.216  12.623  0.2707  0.8201 -0.1915
17128TIP3    H272800   0.707   4.239  12.755 -0.7572 -2.8910 -0.0238
17129TIP3   OH272801   5.530   2.005   0.322 -0.1919 -0.1126 -0.2236
17129TIP3    H172802   5.609   2.024   0.273 -0.5784  1.9896 -0.0549
17129TIP3    H272803   5.459   2.023   0.261 -0.6106  0.4441  0.4172
17130TIP3   OH272804   1.271   1.069  14.572 -0.0314 -0.6605 -0.8520
17130TIP3    H172805   1.359   1.097  14.543 -0.6609  2.0382 -0.3353
17130TIP3    H272806   1.230   1.150  14.603 -2.5407 -1.9830 -0.6315
17131TIP3   OH272807   3.148   2.007  14.426 -0.5816 -0.1255  0.6128
17131TIP3    H172808   3.158   1.912  14.423 -0.5539 -0.0952 -0.3753
17131TIP3    H272809   3.068   2.022  14.476  0.0188 -0.6271  1.7385
17132TIP3   OH272810   3.484   3.060   4.241  0.4620  0.5575 -0.1009
17132TIP3    H172811   3.527   3.076   4.157  0.7985  2.5515  0.4183
17132TIP3    H272812   3.391   3.051   4.219  0.7654 -0.6768 -0.8808
17133TIP3   OH272813   1.848   4.998  13.525 -0.1153  0.1845  0.4936
17133TIP3    H172814   1.793   4.965  13.596 -1.3470  0.4708 -0.3102
17133TIP3    H272815   1.920   4.936  13.519 -0.3329 -0.1748  1.5953
17134TIP3   OH272816   6.618   4.747  14.786  0.2483 -1.1785 -0.2758
17134TIP3    H172817   6.558   4.810  14.826 -0.3958 -1.8940 -0.1016
17134TIP3    H272818   6.705   4.785  14.800  0.0169 -1.2604  1.5703
17135TIP3   OH272819   1.723   0.476  14.001 -0.3637  0.2040 -0.2412
17135TIP3    H172820   1.703   0.475  13.907  0.5089  1.6345 -0.4400
17135TIP3    H272821   1.662   0.412  14.038 -1.0922  0.0213 -1.7044
17136TIP3   OH272822   0.515   1.590  13.238 -0.3405  0.3141  0.4881
17136TIP3    H172823   0.469   1.674  13.238  1.6711  1.4992 -1.6123
17136TIP3    H272824   0.485   1.546  13.159 -0.1201 -0.2065  0.6918
17137TIP3   OH272825   1.846   0.995  11.175 -0.1588  0.2579 -0.1103
17137TIP3    H172826   1.794   1.071  11.202 -0.9594 -0.2804 -0.1258
17137TIP3    H272827   1.805   0.921  11.219  1.2371 -0.0377  0.7042
17138TIP3   OH272828   4.089   4.538   5.861  0.0098  0.0350 -0.2412
17138TIP3    H172829   3.995   4.523   5.849 -0.1686  1.6575 -0.9913
17138TIP3    H272830   4.098   4.557   5.954 -0.8076  2.4811 -0.6264
17139TIP3   OH272831   2.720   3.749   0.359 -0.6651  0.0322 -0.0281
17139TIP3    H172832   2.779   3.700   0.302  0.4888 -0.3837  1.4950
17139TIP3    H272833   2.750   3.840   0.351  0.0561 -0.1537  0.6095
17140TIP3   OH272834   4.114   3.046   2.082  0.4599 -0.1137 -0.1851
17140TIP3    H172835   4.021   3.046   2.107  0.5692  0.0325  0.2284
17140TIP3    H272836   4.160   3.022   2.162  0.8058  0.1851 -0.2934
17141TIP3   OH272837   4.166   1.442  11.662  0.1434 -0.2487 -0.2205
17141TIP3    H172838   4.171   1.516  11.602 -1.8575  0.4358  0.4390
17141TIP3    H272839   4.149   1.367  11.605  0.3305  0.0832 -0.7148
17142TIP3   OH272840   0.545   1.245  14.749 -0.0137  0.6670 -0.2568
17142TIP3    H172841   0.451   1.246  14.730  0.5005  0.6307 -3.0474
17142TIP3    H272842   0.560   1.323  14.803 -1.4713  1.3106 -0.7590
17143TIP3   OH272843   2.267   5.054   4.104 -0.0824 -0.2024 -0.3391
17143TIP3    H172844   2.180   5.056   4.144  0.3133 -3.0334  0.7462
17143TIP3    H272845   2.250   5.041   4.010 -0.8866  2.6844 -0.6375
17144TIP3   OH272846   6.558   6.298  13.321  1.0161  0.4412 -0.0294
17144TIP3    H172847   6.540   6.260  13.235  1.7585  1.0735 -0.4690
17144TIP3    H272848   6.496   6.254  13.379  0.9286 -0.4495 -0.7681
17145TIP3   OH272849   1.671   5.776   5.289  0.6124  0.0659  0.4061
17145TIP3    H172850   1.685   5.725   5.209 -0.6492 -0.0811  0.2721
17145TIP3    H272851   1.700   5.865   5.265 -1.6560  0.5073 -0.8928
17146TIP3   OH272852   4.637   5.910  12.027  0.0895  0.1553  0.7755
17146TIP3    H172853   4.612   5.897  11.936  1.0173 -1.1428  0.7011
17146TIP3    H272854   4.713   5.854  12.040 -0.8928 -0.7846  2.7385
17147TIP3   OH272855   2.811   2.056   5.191  0.1893  0.2432 -0.3440
17147TIP3    H172856   2.850   2.036   5.106  0.2128 -1.6872  0.0914
17147TIP3    H272857   2.880   2.101   5.239  0.3299  0.9241 -1.1637
17148TIP3   OH272858   6.646   4.344  13.194 -0.5392 -0.1971  0.1780
17148TIP3    H172859   6.589   4.345  13.117 -0.9646  1.2142  0.4957
17148TIP3    H272860   6.585   4.348  13.268 -0.0953 -0.5658  0.5620
17149TIP3   OH272861   5.737   2.929  12.342  0.3495 -0.7557 -0.0492
17149TIP3    H172862   5.674   2.907  12.274  0.5146 -0.0780 -0.4241
17149TIP3    H272863   5.820   2.890  12.312  0.7731  0.8384 -0.9908
17150TIP3   OH272864   3.379   3.811   4.639 -0.4050 -0.3678 -0.5590
17150TIP3    H172865   3.437   3.840   4.569 -1.3183  0.4616 -0.9726
17150TIP3    H272866   3.438   3.769   4.702  0.6231  0.2924 -1.0614
17151TIP3   OH272867   1.596   2.492  16.770 -0.4890 -0.1205  0.1735
17151TIP3    H172868   1.504   2.468  16.757 -0.8318  1.0004  0.4911
17151TIP3    H272869   1.594   2.586  16.788  0.7077 -0.1217  0.3443
17152TIP3   OH272870   0.391   3.049  11.967  0.9765  0.3573 -0.3463
17152TIP3    H172871   0.416   3.046  12.059  0.3029  1.9794 -0.0794
17152TIP3    H272872   0.305   3.008  11.964  1.9399 -1.7295 -0.6435
17153TIP3   OH272873   1.532   1.306   6.014 -0.1624 -0.2196 -1.0600
17153TIP3    H172874   1.479   1.248   6.069  1.4686 -0.5945  0.1592
17153TIP3    H272875   1.511   1.394   6.046 -0.3582 -0.3457 -0.8352
17154TIP3   OH272876   4.203   6.558   0.582  0.0214  0.1732 -0.1545
17154TIP3    H172877   4.255   6.542   0.661  1.4230 -0.5329 -1.2142
17154TIP3    H272878   4.119   6.590   0.616  0.8598  0.5925  1.5954
17155TIP3   OH272879   3.167   6.408  14.480 -0.4250 -0.1640  0.3683
17155TIP3    H172880   3.215   6.326  14.472  0.8791  0.5834  0.4916
17155TIP3    H272881   3.119   6.399  14.563  0.6525 -0.3083  0.9849
17156TIP3   OH272882   0.449   1.000  12.142  0.1299 -0.2831 -0.6319
17156TIP3    H172883   0.503   0.946  12.199  0.5448  3.4585  2.7854
17156TIP3    H272884   0.359   0.987  12.174 -0.3071 -2.0012 -2.4746
17157TIP3   OH272885   4.572   4.965   4.232  0.2853 -0.1075 -0.1355
17157TIP3    H172886   4.523   5.046   4.212  0.5265  0.0200 -0.2153
17157TIP3    H272887   4.645   4.994   4.286  0.3420 -0.2802 -0.1195
17158TIP3   OH272888   3.074   1.123   6.258 -0.2452 -0.2540 -0.4119
17158TIP3    H172889   2.990   1.082   6.277  0.9477 -1.8040  1.7094
17158TIP3    H272890   3.119   1.060   6.201 -0.7057  0.8136 -1.9890
17159TIP3   OH272891   1.110   4.167  14.740 -0.0374 -0.1498  0.1639
17159TIP3    H172892   1.081   4.092  14.688  1.3739  1.1356 -2.6121
17159TIP3    H272893   1.203   4.174  14.722 -0.0557  1.9467  0.7861
17160TIP3   OH272894   6.751   3.488   0.766 -0.5694  0.1024 -0.9202
17160TIP3    H172895   6.791   3.572   0.787 -1.0900  0.1879 -0.2522
17160TIP3    H272896   6.691   3.471   0.839  0.1430 -1.2451 -0.6270
17161TIP3   OH272897   1.010   3.676  11.538 -0.8433  0.2066 -0.7052
17161TIP3    H172898   0.922   3.680  11.501  0.0227  0.0135 -2.8685
17161TIP3    H272899   1.046   3.763  11.523 -0.7766  0.3780  0.4588
17162TIP3   OH272900   2.290   1.269  14.476  0.3562  0.3213 -0.6456
17162TIP3    H172901   2.299   1.333  14.547  0.3937 -0.5471  0.1441
17162TIP3    H272902   2.371   1.218  14.481 -0.2708 -0.6475 -0.4037
17163TIP3   OH272903   4.459   4.335  16.631  0.2171 -0.2023 -0.0650
17163TIP3    H172904   4.385   4.394  16.642 -0.7185 -1.0458 -1.7099
17163TIP3    H272905   4.461   4.315  16.538  3.3051  0.7916 -0.2823
17164TIP3   OH272906   3.343   3.842  16.357 -0.2427  0.0061 -0.3465
17164TIP3    H172907   3.287   3.777  16.400  0.5551  0.7114  1.8310
17164TIP3    H272908   3.349   3.914  16.420  0.2721  1.4552 -2.0180
17165TIP3   OH272909   3.905   2.820   4.640 -0.1146  0.2734  0.4827
17165TIP3    H172910   3.986   2.774   4.663 -0.7806  0.1311  2.6397
17165TIP3    H272911   3.883   2.788   4.552  0.9661 -1.3771  0.7957
17166TIP3   OH272912   2.766   1.408   0.972  0.3447  0.2078  0.2915
17166TIP3    H172913   2.830   1.434   0.906  0.4770  0.5499  0.5527
17166TIP3    H272914   2.807   1.430   1.055  0.2335 -0.3431  0.4959
17167TIP3   OH272915   1.593   0.548  16.512 -0.3375  0.2283  0.1710
17167TIP3    H172916   1.551   0.565  16.596 -1.2119 -0.4624 -0.1265
17167TIP3    H272917   1.524   0.563  16.447  0.6886  2.1364 -0.5374
17168TIP3   OH272918   0.278   4.241  13.298 -0.4917 -0.1790 -0.2215
17168TIP3    H172919   0.314   4.172  13.354  0.2376  0.8011  0.5290
17168TIP3    H272920   0.248   4.308  13.359  0.3206  0.9033 -1.0091
17169TIP3   OH272921   0.447   2.047  14.973  0.3933 -0.3693 -0.2747
17169TIP3    H172922   0.471   2.032  14.881 -1.1446  1.4362 -1.0216
17169TIP3    H272923   0.359   2.010  14.981  1.3567 -2.4764  1.0929
17170TIP3   OH272924   1.851   3.307   0.813 -0.0567  0.5081  0.7119
17170TIP3    H172925   1.841   3.352   0.729 -0.8788 -0.0820  0.4978
17170TIP3    H272926   1.914   3.362   0.861 -2.3311  2.8350  1.1201
17171TIP3   OH272927   3.723   1.611   0.134  0.0030 -0.7930 -0.0140
17171TIP3    H172928   3.727   1.653   0.220  0.6693 -1.2699  0.1912
17171TIP3    H272929   3.741   1.682   0.072  0.2402 -0.5951  0.2816
17172TIP3   OH272930   0.367   3.113  10.398 -0.8990 -0.0452  0.1799
17172TIP3    H172931   0.343   3.038  10.345  2.2081  0.8192 -2.6114
17172TIP3    H272932   0.406   3.075  10.477  0.6912 -1.3897 -1.2233
17173TIP3   OH272933   6.114   2.228  13.947 -0.4783 -0.3945  0.6175
17173TIP3    H172934   6.199   2.194  13.919 -0.9979 -1.4169  0.2131
17173TIP3    H272935   6.111   2.317  13.913  0.8148 -0.0221  1.4638
17174TIP3   OH272936   6.176   0.031  13.194 -1.2748  0.1768 -0.3279
17174TIP3    H172937   6.105   0.018  13.257 -0.3415  0.0800  0.7209
17174TIP3    H272938   6.143   0.097  13.133 -1.8270  0.9701  0.8226
17175TIP3   OH272939   2.690   4.260  14.763 -0.6598  0.6566 -0.0681
17175TIP3    H172940   2.773   4.292  14.726 -0.1667 -0.5864 -0.0720
17175TIP3    H272941   2.687   4.298  14.851  0.5311 -0.2800  0.3973
17176TIP3   OH272942   2.262   6.184   1.141  0.0742  0.3078 -0.9282
17176TIP3    H172943   2.330   6.249   1.124  0.6874 -0.3570 -1.0356
17176TIP3    H272944   2.181   6.234   1.141  0.6470  1.2783  0.1802
17177TIP3   OH272945   4.548   0.315   2.019  0.7569  0.0304  0.3519
17177TIP3    H172946   4.511   0.292   2.104 -0.2291 -1.3970 -0.4430
17177TIP3    H272947   4.510   0.252   1.958  0.0158  2.1603 -1.4720
17178TIP3   OH272948   5.204   4.355  14.793 -0.0483  0.0693  0.0030
17178TIP3    H172949   5.285   4.401  14.770 -0.5837  0.9006 -0.2584
17178TIP3    H272950   5.163   4.337  14.708 -0.9086  1.0782  0.1967
17179TIP3   OH272951   1.648   2.855   4.436  0.1769  0.5244 -0.4761
17179TIP3    H172952   1.578   2.909   4.473  0.0681 -0.0644  0.1989
17179TIP3    H272953   1.641   2.772   4.483  0.3956 -0.0485 -1.4540
17180TIP3   OH272954   5.822   4.363  13.502 -0.6715  0.3180 -0.1632
17180TIP3    H172955   5.858   4.414  13.574 -0.5158  1.4957 -1.0396
17180TIP3    H272956   5.824   4.273  13.532  1.7492  0.4974  0.3232
17181TIP3   OH272957   1.836   5.577  13.702 -0.4908  0.4210  0.0477
17181TIP3    H172958   1.913   5.564  13.757 -0.0892 -1.3300 -0.8832
17181TIP3    H272959   1.783   5.498  13.716 -1.1900  0.7288 -0.7898
17182TIP3   OH272960   3.853   2.006  13.273 -0.0801  0.3342  0.1196
17182TIP3    H172961   3.932   1.979  13.320 -0.5336  0.0440  0.7187
17182TIP3    H272962   3.803   1.925  13.262 -0.2010  0.4846 -0.4363
17183TIP3   OH272963   4.213   6.593   1.590 -0.0547 -0.3992 -0.0431
17183TIP3    H172964   4.304   6.618   1.606 -0.6837  1.0784  1.4186
17183TIP3    H272965   4.174   6.588   1.677 -1.0447 -2.3739 -0.5809
17184TIP3   OH272966   2.766   3.375  12.874  0.0192  0.5959 -0.0432
17184TIP3    H172967   2.799   3.367  12.964 -1.1233  1.5775  0.4782
17184TIP3    H272968   2.685   3.323  12.874  1.0315 -1.0372 -1.0590
17185TIP3   OH272969   4.196   2.668   0.294  0.2731 -0.5165 -0.0860
17185TIP3    H172970   4.228   2.643   0.380  1.6497 -1.3976 -0.8374
17185TIP3    H272971   4.215   2.761   0.287  2.6617 -0.9995 -0.4863
17186TIP3   OH272972   4.381   5.734  16.082  0.1561 -0.5601 -0.6467
17186TIP3    H172973   4.334   5.670  16.136 -0.5530  0.1606 -0.4013
17186TIP3    H272974   4.437   5.681  16.026 -2.4918 -1.5780 -2.4616
17187TIP3   OH272975   3.054   4.588  15.714 -0.0792  0.2230 -0.2478
17187TIP3    H172976   2.994   4.514  15.697 -1.8603  1.8677 -1.3349
17187TIP3    H272977   3.117   4.553  15.777 -0.8885 -2.2343 -0.7314
17188TIP3   OH272978   3.214   1.895  12.226  0.0287 -0.4465  0.1248
17188TIP3    H172979   3.279   1.893  12.157 -1.9773  2.1684 -1.9463
17188TIP3    H272980   3.182   1.805  12.231  1.1226 -0.9413 -1.4746
17189TIP3   OH272981   6.632   5.729   0.605  0.3883  0.2814 -0.3298
17189TIP3    H172982   6.609   5.819   0.583  1.9962  0.5363 -1.1074
17189TIP3    H272983   6.561   5.698   0.662 -0.9160  1.5385 -1.2535
17190TIP3   OH272984   3.599   5.707  12.217  0.3769  0.4772 -1.1459
17190TIP3    H172985   3.565   5.620  12.240  1.9703 -0.1846 -1.2433
17190TIP3    H272986   3.531   5.767  12.247  0.7995 -0.5616  2.1072
17191TIP3   OH272987   1.891   1.374   0.391 -0.3217  0.1366  0.7008
17191TIP3    H172988   1.849   1.459   0.381 -0.7516 -0.1493  0.0377
17191TIP3    H272989   1.852   1.320   0.323 -0.1151 -0.6185  1.1743
17192TIP3   OH272990   1.296   3.576   5.352 -0.4890  0.5805  0.0230
17192TIP3    H172991   1.357   3.617   5.413 -0.9667  2.9074 -1.0240
17192TIP3    H272992   1.219   3.556   5.405 -0.9736  2.7698  0.1680
17193TIP3   OH272993   0.762   0.585  10.768 -0.0599 -0.7520 -0.7532
17193TIP3    H172994   0.800   0.497  10.762 -0.7914 -1.0701 -0.7208
17193TIP3    H272995   0.686   0.582  10.709 -1.3237 -0.7861  0.8530
17194TIP3   OH272996   3.531   4.692   6.470 -0.0549 -0.0840 -0.4556
17194TIP3    H172997   3.581   4.757   6.419 -0.9914 -0.3816 -1.7725
17194TIP3    H272998   3.440   4.719   6.461 -0.1453  0.6504  2.2271
17195TIP3   OH272999   2.347   1.920  17.171  0.6798 -0.1755 -0.1937
17195TIP3    H173000   2.357   1.852  17.105 -0.5969 -0.2588 -0.3294
17195TIP3    H273001   2.324   1.872  17.251  0.5564  0.0395 -0.1015
17196TIP3   OH273002   0.139   6.119  14.622  0.0870 -0.2365  0.0924
17196TIP3    H173003   0.191   6.127  14.702  1.6307  0.4627 -0.9362
17196TIP3    H273004   0.145   6.206  14.581 -1.7439 -0.2070 -0.1561
17197TIP3   OH273005   5.913   1.000   2.972  0.1826 -0.8249  0.0302
17197TIP3    H173006   5.904   0.931   2.906 -2.4879  0.5083 -1.0780
17197TIP3    H273007   5.977   1.061   2.934  0.0788 -1.0233 -0.4629
17198TIP3   OH273008   5.102   5.648  11.583  0.1770 -0.3867 -0.5914
17198TIP3    H173009   5.040   5.597  11.531  0.6835 -2.0041  0.3596
17198TIP3    H273010   5.117   5.727  11.531 -1.4183 -0.7074 -1.5978
17199TIP3   OH273011   3.175   3.292  16.031  0.5059 -0.0499  0.4504
17199TIP3    H173012   3.155   3.340  16.111  0.8612  0.3026  0.3322
17199TIP3    H273013   3.202   3.205  16.060 -0.4113 -0.2683  0.6505
17200TIP3   OH273014   5.081   1.684   2.529  0.2775 -0.0872 -0.2614
17200TIP3    H173015   5.030   1.657   2.453 -0.1930 -1.3470  0.4720
17200TIP3    H273016   5.028   1.752   2.570  0.8888  1.1249 -1.4592
17201TIP3   OH273017   6.274   3.743  14.020 -0.3975 -0.4095 -0.3983
17201TIP3    H173018   6.322   3.723  13.940  3.4664 -0.7738  1.8783
17201TIP3    H273019   6.265   3.839  14.020  0.0761 -0.3663 -0.9607
17202TIP3   OH273020   5.684   3.999  13.833  0.3162 -0.1755  0.2375
17202TIP3    H173021   5.685   3.904  13.825  0.7947 -0.0445 -1.4650
17202TIP3    H273022   5.748   4.019  13.901  2.4270 -0.9132 -1.4663
17203TIP3   OH273023   6.639   1.062   0.565 -0.7267 -0.3275 -0.5965
17203TIP3    H173024   6.562   1.060   0.622  1.7526 -2.1206  2.9008
17203TIP3    H273025   6.666   1.154   0.563 -0.5618 -0.3080  1.6132
17204TIP3   OH273026   5.109   2.546  11.232 -0.1182 -0.7713  0.2631
17204TIP3    H173027   5.113   2.642  11.226  0.9089 -0.9271 -2.0369
17204TIP3    H273028   5.187   2.516  11.185 -1.7665 -2.8172 -1.2157
17205TIP3   OH273029   1.747   4.012  15.725 -0.1784 -0.4598  0.0574
17205TIP3    H173030   1.673   4.070  15.742  0.1928  0.3285 -0.9827
17205TIP3    H273031   1.756   3.961  15.806 -2.6436 -1.4722 -0.2615
17206TIP3   OH273032   1.604   3.735   6.568  0.4938  0.4130  0.5369
17206TIP3    H173033   1.653   3.655   6.587  1.6972  1.1600  0.6224
17206TIP3    H273034   1.624   3.794   6.641  1.4740  1.6311 -0.6815
17207TIP3   OH273035   0.694   4.972   2.117 -0.3226  0.2428 -0.0764
17207TIP3    H173036   0.619   4.928   2.077  0.0410  0.3651 -0.9031
17207TIP3    H273037   0.711   5.048   2.062  0.9562 -0.2670 -0.4240
17208TIP3   OH273038   6.578   1.496   1.077  0.0259 -0.0261  0.2455
17208TIP3    H173039   6.641   1.558   1.040 -0.8832  0.6119 -0.2355
17208TIP3    H273040   6.552   1.535   1.160  2.6776 -1.8474  1.9933
17209TIP3   OH273041   6.100   1.025   2.528 -0.0422 -0.5625  0.7649
17209TIP3    H173042   6.190   0.994   2.529  0.3803  0.6617  1.8613
17209TIP3    H273043   6.070   1.009   2.438  2.1264  1.4190 -0.3637
17210TIP3   OH273044   0.327   4.770  11.749 -0.0139 -0.1123  0.2280
17210TIP3    H173045   0.295   4.720  11.673 -0.6577 -0.1906  0.5446
17210TIP3    H273046   0.250   4.782  11.803  0.5893 -0.7231  1.2477
17211TIP3   OH273047   5.057   0.459   3.192 -0.3550 -0.4038  0.9198
17211TIP3    H173048   5.062   0.377   3.144  1.0936  0.9565 -1.3524
17211TIP3    H273049   5.078   0.436   3.283 -0.0659 -2.5274  0.3242
17212TIP3   OH273050   6.761   0.218  16.116  0.1791 -0.1028  0.2381
17212TIP3    H173051   6.778   0.219  16.022  3.6007 -1.3341  0.7858
17212TIP3    H273052   6.832   0.270  16.154 -1.3217  0.6219  2.1417
17213TIP3   OH273053   1.171   0.122   2.897 -0.5432  0.0006  0.0388
17213TIP3    H173054   1.174   0.075   2.814  0.2319  2.2251 -1.2173
17213TIP3    H273055   1.124   0.203   2.878 -1.2318  0.0932  2.0055
17214TIP3   OH273056   4.880   1.726   1.120  0.2906  0.7745 -0.4849
17214TIP3    H173057   4.872   1.674   1.200  3.5162  0.3883 -0.3618
17214TIP3    H273058   4.876   1.817   1.149  0.8290  0.6306  0.0460
17215TIP3   OH273059   4.501   0.040  12.220  0.8314  0.0438  0.2968
17215TIP3    H173060   4.483   0.006  12.132  0.2488  0.6050  0.1941
17215TIP3    H273061   4.521   0.133  12.206 -1.8756  0.7713  1.0114
17216TIP3   OH273062   4.908   0.238  14.477  0.5165 -0.4601 -0.2796
17216TIP3    H173063   4.911   0.285  14.394  0.7023 -1.5747 -0.9109
17216TIP3    H273064   4.999   0.214  14.494  0.6557  0.8152  0.8657
17217TIP3   OH273065   0.020   2.522   3.569 -0.0762  0.2047 -0.3597
17217TIP3    H173066   0.094   2.580   3.588 -0.5973  0.7054  0.1696
17217TIP3    H273067  -0.042   2.576   3.522 -0.2906 -0.1016 -0.4326
17218TIP3   OH273068   3.986   2.881   2.547  0.1918 -0.1975 -0.0248
17218TIP3    H173069   3.973   2.828   2.469 -0.9126  0.7615 -0.5208
17218TIP3    H273070   3.901   2.877   2.592  0.4983  0.1031  0.5798
17219TIP3   OH273071   4.033   5.239  11.944 -0.2437  0.4401 -0.8032
17219TIP3    H173072   4.093   5.280  11.881 -0.4854 -1.3780 -2.2647
17219TIP3    H273073   3.949   5.280  11.927 -0.3704 -0.2478 -1.8961
17220TIP3   OH273074   4.326   2.633   2.185 -0.4900 -0.6060  0.0825
17220TIP3    H173075   4.276   2.581   2.123 -1.0191 -0.3744  0.3055
17220TIP3    H273076   4.266   2.704   2.210  0.5761  0.7036 -1.0102
17221TIP3   OH273077   6.656   1.286  12.094  0.2966  0.2754  0.0129
17221TIP3    H173078   6.744   1.283  12.132  0.0375  0.3991  0.6336
17221TIP3    H273079   6.628   1.194  12.094 -0.0619  0.3849  0.9780
17222TIP3   OH273080   0.056   3.991  14.016  0.4227  0.4708  0.3741
17222TIP3    H173081   0.117   4.011  14.087  1.7566  1.2035 -0.9338
17222TIP3    H273082   0.091   4.038  13.940 -1.2531  0.1314 -0.6524
17223TIP3   OH273083   2.727   0.278   4.876 -0.2711 -0.0090  0.3603
17223TIP3    H173084   2.641   0.249   4.906  0.1978 -1.7642  0.0530
17223TIP3    H273085   2.718   0.285   4.781 -0.1485  0.0329  0.3515
17224TIP3   OH273086   1.254   4.742  13.606 -0.1737  0.3899 -0.4315
17224TIP3    H173087   1.221   4.698  13.527 -2.0175  3.1847 -1.2921
17224TIP3    H273088   1.277   4.830  13.577  1.6322  0.6402  1.6302
17225TIP3   OH273089   3.127   5.089   0.389  0.6004 -0.6918 -0.0846
17225TIP3    H173090   3.086   5.174   0.402  1.9859  0.1999 -1.2854
17225TIP3    H273091   3.183   5.077   0.466  1.9993  0.4742 -0.8816
17226TIP3   OH273092   1.223   6.571   2.164  0.4493  0.2314 -0.3078
17226TIP3    H173093   1.272   6.490   2.181 -1.5943 -0.7780  0.8872
17226TIP3    H273094   1.162   6.547   2.094  0.5996  1.0470 -0.7173
17227TIP3   OH273095   6.030   5.755  16.029  0.4814 -0.3766  0.1915
17227TIP3    H173096   5.997   5.844  16.015 -0.9155 -0.5750  1.9472
17227TIP3    H273097   6.116   5.767  16.069  1.2078  0.1611 -1.4815
17228TIP3   OH273098   2.986   0.953   3.472  0.4632 -0.2610 -0.0743
17228TIP3    H173099   2.968   1.038   3.512  1.7111  0.0081 -0.0694
17228TIP3    H273100   2.957   0.963   3.381 -2.6423 -0.9668  0.7996
17229TIP3   OH273101   5.541   4.066   6.195 -0.0413 -0.3593 -0.0659
17229TIP3    H173102   5.535   4.095   6.286 -1.4550  0.5544 -0.4257
17229TIP3    H273103   5.473   3.998   6.187 -0.5365  0.1974 -0.6597
17230TIP3   OH273104   2.700   6.734  13.628 -0.3921  0.1337 -0.0125
17230TIP3    H173105   2.792   6.710  13.628 -0.0881  1.2499  0.7906
17230TIP3    H273106   2.662   6.682  13.698 -0.2418  0.1314  0.0674
17231TIP3   OH273107   4.914   2.443  17.044  0.3982 -0.6857  0.7296
17231TIP3    H173108   4.924   2.460  17.138  0.8355  0.7291  0.4546
17231TIP3    H273109   4.993   2.395  17.020  1.6297  1.3498  0.5806
17232TIP3   OH273110   5.677   2.745  11.656 -0.1209 -0.2442  0.3662
17232TIP3    H173111   5.582   2.740  11.647 -0.6087  1.1500  3.8985
17232TIP3    H273112   5.705   2.807  11.589 -1.5514 -1.3223 -1.2830
17233TIP3   OH273113   4.346   1.990   2.668  0.3846 -0.4073  0.3567
17233TIP3    H173114   4.326   1.896   2.675 -0.6509 -0.2375 -0.1229
17233TIP3    H273115   4.261   2.033   2.681  0.4594  0.3606 -1.5755
17234TIP3   OH273116   2.158   2.927  10.550 -0.4099  0.0658 -0.1326
17234TIP3    H173117   2.191   2.919  10.461  2.5095 -0.2082  0.9330
17234TIP3    H273118   2.190   3.013  10.579 -0.7270 -0.1613  0.8877
17235TIP3   OH273119   5.315   5.787   4.161  0.0110  0.6651 -0.3987
17235TIP3    H173120   5.360   5.851   4.107 -0.2599  0.4631 -0.8607
17235TIP3    H273121   5.317   5.706   4.110 -0.9828  0.6869 -0.4822
17236TIP3   OH273122   0.519   6.591   4.875 -0.3327 -0.6151  0.6687
17236TIP3    H173123   0.578   6.627   4.941 -0.3054 -1.3126  1.0357
17236TIP3    H273124   0.436   6.578   4.922 -0.8649  0.6201  0.0833
17237TIP3   OH273125   0.799   2.758  17.055  0.3069  0.2664 -0.6159
17237TIP3    H173126   0.768   2.791  17.139 -0.0425  0.7859 -0.9465
17237TIP3    H273127   0.739   2.687  17.033  0.5229 -0.0059 -0.3320
17238TIP3   OH273128   6.120   4.048   4.295  0.6328  0.1525  0.4000
17238TIP3    H173129   6.143   3.960   4.326  0.2927  0.7003  2.2295
17238TIP3    H273130   6.176   4.107   4.346 -2.3416  1.2864  2.4499
17239TIP3   OH273131   4.940   0.745   1.624 -0.2396  0.5261  0.1494
17239TIP3    H173132   4.928   0.702   1.539  1.1053  1.2133 -0.4094
17239TIP3    H273133   4.852   0.757   1.658 -0.7352 -0.7517 -0.6472
17240TIP3   OH273134   3.244   1.506   2.826  0.1593  0.0228 -0.6828
17240TIP3    H173135   3.254   1.595   2.859  1.5749 -0.4448  0.1747
17240TIP3    H273136   3.325   1.461   2.851 -0.0170 -1.1731 -2.1513
17241TIP3   OH273137   5.457   0.327  13.164 -0.3906 -0.1738 -0.1881
17241TIP3    H173138   5.440   0.396  13.228 -0.1065 -0.2253 -0.0575
17241TIP3    H273139   5.550   0.307  13.174 -0.5202 -0.7290 -0.0693
17242TIP3   OH273140   0.868   2.750   2.893  0.5043  0.4376 -0.0850
17242TIP3    H173141   0.818   2.828   2.917  0.0985  0.6467 -1.5613
17242TIP3    H273142   0.801   2.683   2.880  0.5954  0.7368 -2.1321
17243TIP3   OH273143   4.968   3.535  15.148  0.3156 -0.2968  0.4664
17243TIP3    H173144   4.919   3.553  15.068  2.3821 -1.5629 -1.1397
17243TIP3    H273145   4.945   3.444  15.170  0.3484 -0.2091  0.8582
17244TIP3   OH273146   5.362   0.870  11.864 -0.0598  0.7420 -0.6478
17244TIP3    H173147   5.368   0.777  11.844  1.9833  0.4995  0.7941
17244TIP3    H273148   5.340   0.873  11.958 -0.2137  1.7030 -0.7070
17245TIP3   OH273149   5.624   6.532  13.573 -0.1511  0.1072 -0.3697
17245TIP3    H173150   5.595   6.490  13.654  0.9220  0.6779  0.3204
17245TIP3    H273151   5.547   6.531  13.517 -1.2577  0.7456  1.0883
17246TIP3   OH273152   4.225   0.490   0.493 -0.3805 -0.5173  0.2458
17246TIP3    H173153   4.316   0.491   0.521  0.5901 -2.7336 -2.5372
17246TIP3    H273154   4.222   0.552   0.420 -1.0003 -0.7560  0.0658
17247TIP3   OH273155   6.183   6.091   2.852  0.0272 -0.6444  0.4971
17247TIP3    H173156   6.136   6.139   2.784  0.1059 -1.0555  0.1533
17247TIP3    H273157   6.275   6.112   2.837 -0.0005 -0.2347  0.8665
17248TIP3   OH273158   0.762   2.850   5.394 -0.3651  0.1654 -0.0619
17248TIP3    H173159   0.693   2.813   5.449  0.0259  2.0840  1.7838
17248TIP3    H273160   0.843   2.831   5.441  0.0444  1.2127 -0.3338
17249TIP3   OH273161   1.202   3.821  14.471 -0.0621  0.0687  0.2477
17249TIP3    H173162   1.141   3.851  14.539  0.9606  0.7897  0.8725
17249TIP3    H273163   1.188   3.881  14.398 -0.9969 -0.5609 -0.1012
17250TIP3   OH273164   3.800   4.228   2.862  0.3196  0.4759 -0.0040
17250TIP3    H173165   3.726   4.287   2.880 -1.0327 -0.5364 -2.0528
17250TIP3    H273166   3.861   4.280   2.811 -0.1118  0.5950 -0.4012
17251TIP3   OH273167   0.019   5.887  12.587  0.0790 -0.4874  0.1331
17251TIP3    H173168  -0.007   5.834  12.511  0.6317 -1.3554  0.5399
17251TIP3    H273169   0.046   5.970  12.550 -0.6239 -0.5509 -0.5368
17252TIP3   OH273170   3.489   3.583  12.785  0.0016 -0.3414  0.7813
17252TIP3    H173171   3.530   3.604  12.700 -1.6793 -1.0507 -0.2250
17252TIP3    H273172   3.425   3.652  12.798 -1.6036 -1.6869  0.1695
17253TIP3   OH273173   0.211   0.647  11.180 -0.1060 -0.4799  0.0499
17253TIP3    H173174   0.119   0.666  11.160 -0.1777 -1.0275 -0.1422
17253TIP3    H273175   0.258   0.726  11.154 -0.0856 -1.4869 -3.0858
17254TIP3   OH273176   0.443   2.296  16.932 -0.6894  0.0123 -0.1385
17254TIP3    H173177   0.435   2.264  16.842 -0.9699  1.2452 -0.5629
17254TIP3    H273178   0.525   2.258  16.963  0.2328  0.8461 -1.4750
17255TIP3   OH273179   0.466   3.665  15.501  0.6138  0.1252 -0.4333
17255TIP3    H173180   0.489   3.749  15.540 -0.6298  0.2217  0.1321
17255TIP3    H273181   0.400   3.686  15.435  0.0906 -0.4389 -0.0924
17256TIP3   OH273182   5.574   1.689  17.076 -0.2624 -0.0684  0.1445
17256TIP3    H173183   5.502   1.752  17.077 -1.3924 -1.3587  1.3802
17256TIP3    H273184   5.582   1.660  17.167  0.9084 -0.9739 -0.2384
17257TIP3   OH273185   4.328   3.673   3.840 -0.3174  0.1861 -0.6746
17257TIP3    H173186   4.381   3.720   3.775 -0.6978  0.5051 -0.7578
17257TIP3    H273187   4.239   3.676   3.805 -0.3094 -0.8133 -0.7996
17258TIP3   OH273188   4.394   2.558   3.143 -0.3036  0.6079 -0.5198
17258TIP3    H173189   4.415   2.609   3.221 -1.8976 -1.4739  1.3606
17258TIP3    H273190   4.473   2.561   3.090  1.3098  0.9358  1.8306
17259TIP3   OH273191   0.108   1.601   6.631  0.4730 -0.6545 -0.1531
17259TIP3    H173192   0.049   1.659   6.583  1.3093 -1.1649 -1.8599
17259TIP3    H273193   0.063   1.582   6.713 -1.0114  0.2320 -0.7559
17260TIP3   OH273194   2.827   1.644   1.811  0.0033 -0.0569  0.3783
17260TIP3    H173195   2.806   1.715   1.750  1.8230  0.7870  0.6851
17260TIP3    H273196   2.850   1.570   1.754  0.0758  0.2228  0.0434
17261TIP3   OH273197   3.942   2.729   0.871  0.2531 -0.9477 -0.2847
17261TIP3    H173198   3.928   2.674   0.948 -2.1846 -0.7387 -0.5497
17261TIP3    H273199   3.888   2.807   0.887  1.7570  0.2809 -1.0279
17262TIP3   OH273200   1.212   4.372  17.197  0.6703 -0.1007 -0.0767
17262TIP3    H173201   1.189   4.315  17.271 -0.8786  1.7967  0.9381
17262TIP3    H273202   1.170   4.330  17.122  1.2649 -1.4109  0.2952
17263TIP3   OH273203   2.098   5.707   2.998 -0.4696 -0.3205  0.0282
17263TIP3    H173204   2.014   5.660   3.000  0.2215 -1.5806 -0.1041
17263TIP3    H273205   2.164   5.638   3.003  0.5801  0.5783 -1.1258
17264TIP3   OH273206   3.541   5.947   2.240  0.0902 -0.2393  0.0595
17264TIP3    H173207   3.462   5.994   2.265 -1.2534 -2.6467  0.4286
17264TIP3    H273208   3.519   5.907   2.155  0.9999 -0.6936  0.0321
17265TIP3   OH273209   4.107   2.419   4.789  0.2399  0.0568  0.4339
17265TIP3    H173210   4.150   2.396   4.707  0.0088 -3.1554  1.1774
17265TIP3    H273211   4.103   2.515   4.788  1.7398  0.1202 -2.5107
17266TIP3   OH273212   0.129   2.156   1.808  0.0689 -0.3550  0.5647
17266TIP3    H173213   0.156   2.242   1.840 -3.2253  0.5124  1.1735
17266TIP3    H273214   0.126   2.166   1.713 -2.7750  1.0296  0.7569
17267TIP3   OH273215   5.068   3.333   5.784 -0.1796 -0.1989 -0.1207
17267TIP3    H173216   5.059   3.348   5.690 -0.6823 -0.6725 -0.1500
17267TIP3    H273217   5.081   3.239   5.792  2.0594  0.0902  0.1276
17268TIP3   OH273218   5.846   0.255   3.091  0.4884 -0.3169  0.5741
17268TIP3    H173219   5.869   0.342   3.124  0.2700  0.3085 -0.8670
17268TIP3    H273220   5.927   0.205   3.095  1.4121  0.9320 -1.5723
17269TIP3   OH273221   2.034   3.009   2.173  0.9223  0.2000 -0.5393
17269TIP3    H173222   1.952   2.984   2.217  0.1181  0.7073 -1.7120
17269TIP3    H273223   2.066   3.084   2.223  1.9380 -1.4398  1.3629
17270TIP3   OH273224   1.303   3.390   4.654  0.2846  0.4357 -0.2228
17270TIP3    H173225   1.250   3.448   4.710 -0.9495  0.1537 -1.0832
17270TIP3    H273226   1.305   3.307   4.701  1.0471  0.8143  0.4297
17271TIP3   OH273227   4.266   6.509  12.090 -0.2216  0.3629 -0.0629
17271TIP3    H173228   4.254   6.556  12.007 -1.4758  1.9432  0.9706
17271TIP3    H273229   4.216   6.428  12.080 -1.6418  1.2537 -0.3093
17272TIP3   OH273230   2.588   1.729   5.490 -0.8629 -0.3913 -0.1361
17272TIP3    H173231   2.635   1.664   5.437 -0.3809 -0.3935  0.2980
17272TIP3    H273232   2.591   1.694   5.579 -0.9344  0.0365  0.0325
17273TIP3   OH273233   4.157   0.703   5.548  0.6151 -0.6272  0.0125
17273TIP3    H173234   4.171   0.749   5.465 -0.8349  0.2196  0.2081
17273TIP3    H273235   4.064   0.680   5.547  0.7499 -1.2653  1.0887
17274TIP3   OH273236   1.529   3.985  13.892  0.4681  0.1965  0.0818
17274TIP3    H173237   1.605   3.986  13.950 -0.0675 -2.1033  0.8392
17274TIP3    H273238   1.555   3.931  13.818  0.3116  1.1988 -0.7321
17275TIP3   OH273239   1.330   1.323  12.081  0.4068  0.1393 -0.0925
17275TIP3    H173240   1.341   1.231  12.057  0.1479 -0.1539  0.8862
17275TIP3    H273241   1.294   1.321  12.170  2.3451  1.1994  0.7499
17276TIP3   OH273242   2.747   4.370   6.515 -0.0276 -0.2274  0.1237
17276TIP3    H173243   2.681   4.314   6.475  0.7791 -0.6870 -0.5834
17276TIP3    H273244   2.708   4.397   6.598 -1.1374 -0.4143 -0.3267
17277TIP3   OH273245   5.895   1.825   3.363  0.2915 -0.2659 -0.3796
17277TIP3    H173246   5.800   1.828   3.349  0.0149  2.5754  1.7156
17277TIP3    H273247   5.931   1.893   3.307  0.9175 -0.2697  0.0033
17278TIP3   OH273248   0.988   5.883   3.261  0.3205  0.1634  0.1263
17278TIP3    H173249   0.967   5.874   3.354 -2.6563  0.1768 -0.4924
17278TIP3    H273250   0.976   5.977   3.243 -0.6060 -0.0872 -0.5966
17279TIP3   OH273251   0.681   3.855   4.085  0.0727  0.3243  0.1868
17279TIP3    H173252   0.668   3.851   3.990  0.2027  0.2709  0.1698
17279TIP3    H273253   0.769   3.819   4.097 -0.1299 -0.1136  0.3702
17280TIP3   OH273254   1.108   0.951   1.501  0.2987  0.5664 -0.6587
17280TIP3    H173255   1.057   0.874   1.477  0.0757  0.3621  0.4449
17280TIP3    H273256   1.043   1.017   1.525  0.4984  0.9932 -1.2784
17281TIP3   OH273257   1.573   0.784  10.802 -0.1469 -0.2268  0.0786
17281TIP3    H173258   1.666   0.771  10.784  0.0271  0.3445  0.5560
17281TIP3    H273259   1.538   0.822  10.721  0.5808  2.1162  0.8222
17282TIP3   OH273260   6.462   2.324  15.895  0.1456 -0.0977 -0.2358
17282TIP3    H173261   6.524   2.269  15.944  0.8494  1.7233  0.9934
17282TIP3    H273262   6.515   2.396  15.862 -0.7249 -0.2529 -2.0063
17283TIP3   OH273263   2.887   0.620   5.739  0.3803  0.2796 -0.4085
17283TIP3    H173264   2.937   0.589   5.815 -0.6927  0.3069  0.3188
17283TIP3    H273265   2.861   0.709   5.762  1.3402  0.8336 -1.4491
17284TIP3   OH273266   2.134   0.521  14.429  0.4623  0.1730  0.1876
17284TIP3    H173267   2.225   0.498  14.411  0.6029 -0.2057  1.3497
17284TIP3    H273268   2.092   0.526  14.343  1.5788  0.3547 -0.3458
17285TIP3   OH273269   5.141   4.710   4.461 -0.1981 -0.1264 -0.4414
17285TIP3    H173270   5.140   4.761   4.542 -1.0822  0.2121 -0.6581
17285TIP3    H273271   5.048   4.700   4.438  0.0086 -1.0747 -0.8764
17286TIP3   OH273272   2.610   5.391   0.877 -0.2901 -0.3746  0.7831
17286TIP3    H173273   2.653   5.413   0.959 -0.1871  2.1565  0.0820
17286TIP3    H273274   2.546   5.461   0.863  0.7362  0.0771 -2.0400
17287TIP3   OH273275   0.623   0.171  10.980 -0.0426 -0.2385 -0.4903
17287TIP3    H173276   0.581   0.096  10.939 -0.4555  0.9029 -2.1945
17287TIP3    H273277   0.551   0.217  11.024 -0.0496  0.0170 -0.7719
17288TIP3   OH273278   3.583   1.838  15.675 -0.1005 -0.7380 -0.0063
17288TIP3    H173279   3.670   1.807  15.648  0.1067 -1.0351  0.9755
17288TIP3    H273280   3.588   1.933  15.666  0.0813 -0.8041 -0.6607
17289TIP3   OH273281   4.018   6.622  14.833  0.4541 -0.3971  0.1186
17289TIP3    H173282   4.038   6.549  14.774 -1.1929  1.3053 -2.6752
17289TIP3    H273283   3.930   6.603  14.865 -0.8125  1.2563 -2.1913
17290TIP3   OH273284   2.697   1.541  12.662  0.1570 -0.4227 -0.0055
17290TIP3    H173285   2.718   1.517  12.571 -1.2364 -1.2399 -0.1410
17290TIP3    H273286   2.658   1.628  12.655  1.2480  0.0576 -0.0438
17291TIP3   OH273287   6.781   4.998   6.400 -0.0122  0.0397 -0.0602
17291TIP3    H173288   6.872   4.989   6.431  0.4185 -1.2356 -1.6337
17291TIP3    H273289   6.765   5.092   6.401  0.6813  0.1640  2.0472
17292TIP3   OH273290   4.057   3.736   2.580  0.1945  0.1649 -0.0982
17292TIP3    H173291   4.048   3.763   2.488  0.3116 -1.8916 -0.7351
17292TIP3    H273292   4.037   3.815   2.630 -2.2214  0.7023 -1.8369
17293TIP3   OH273293   6.645   4.882  10.517 -0.2312  0.0606  0.3514
17293TIP3    H173294   6.720   4.906  10.571 -0.6926  0.7856  0.6815
17293TIP3    H273295   6.594   4.963  10.510 -1.0472 -0.4579  0.2477
17294TIP3   OH273296   0.712   4.559   2.019  0.2461 -0.1753  0.4567
17294TIP3    H173297   0.725   4.530   2.109 -1.7271  0.4543  0.9777
17294TIP3    H273298   0.617   4.556   2.007  0.3341  1.7477 -0.9061
17295TIP3   OH273299   5.306   3.469  16.349 -0.0057 -0.0496  0.0710
17295TIP3    H173300   5.349   3.409  16.410 -1.5887 -1.8949 -0.5804
17295TIP3    H273301   5.307   3.422  16.265 -0.7803  1.0767 -0.5754
17296TIP3   OH273302   4.279   4.780  16.677 -0.1742  0.3793  0.1637
17296TIP3    H173303   4.282   4.858  16.622  2.2591  0.0101 -0.2783
17296TIP3    H273304   4.357   4.786  16.732  0.2899 -1.9473 -0.1771
17297TIP3   OH273305   4.353   3.235   1.613 -0.6040  0.3918 -0.5568
17297TIP3    H173306   4.259   3.222   1.626 -0.4543  1.2781  1.6945
17297TIP3    H273307   4.395   3.176   1.675  0.2834  1.2871 -0.2749
17298TIP3   OH273308   5.718   5.003  15.851  0.0232 -0.1418  0.1088
17298TIP3    H173309   5.749   5.044  15.932  0.2031 -0.9437  0.4502
17298TIP3    H273310   5.664   4.930  15.881 -0.1750 -0.2431 -0.4965
17299TIP3   OH273311   3.681   2.859  11.801  0.1322 -0.3596  0.2494
17299TIP3    H173312   3.594   2.897  11.808  0.4098  0.4720 -0.7336
17299TIP3    H273313   3.717   2.865  11.890 -0.6312 -0.2764  0.5545
17300TIP3   OH273314   6.147   5.227   5.062 -0.1650 -0.6362 -0.0210
17300TIP3    H173315   6.058   5.248   5.091 -0.2028 -0.7295 -0.0682
17300TIP3    H273316   6.138   5.212   4.968 -0.6617 -3.5519  0.4224
17301TIP3   OH273317   4.220   1.388   2.958 -0.6015  0.0006  0.1195
17301TIP3    H173318   4.273   1.320   2.915  0.7530  1.9341 -1.3912
17301TIP3    H273319   4.204   1.354   3.046  0.4619 -2.0462 -0.4369
17302TIP3   OH273320   6.336   0.869  16.950 -0.2119  0.0964 -0.1171
17302TIP3    H173321   6.425   0.894  16.974  0.3262 -2.7924  1.0437
17302TIP3    H273322   6.345   0.787  16.902 -2.3670 -1.2155  1.6137
17303TIP3   OH273323   4.051   2.445  14.390  0.2349  0.6128  0.2129
17303TIP3    H173324   4.088   2.534  14.394 -0.6235  0.9889 -0.1559
17303TIP3    H273325   3.982   2.451  14.324 -0.3821 -0.1276  0.7883
17304TIP3   OH273326   5.666   1.195   5.441  0.1781 -0.1284  0.0366
17304TIP3    H173327   5.671   1.145   5.359 -1.3834 -1.1436  0.5300
17304TIP3    H273328   5.589   1.251   5.430 -0.2788 -0.5674  0.9690
17305TIP3   OH273329   1.609   0.763  15.700  0.3909 -0.6731 -0.0514
17305TIP3    H173330   1.534   0.711  15.728 -0.7054  0.6595 -0.5006
17305TIP3    H273331   1.677   0.698  15.682 -1.6922 -2.1974 -2.9059
17306TIP3   OH273332   6.472   0.058  17.054  0.3019 -0.4784  0.3142
17306TIP3    H173333   6.447   0.073  17.145  0.6421  1.0555  0.1591
17306TIP3    H273334   6.558   0.015  17.060  0.2712 -0.4891  0.7105
17307TIP3   OH273335   2.946   2.725  15.831  0.0273  0.2934 -0.0076
17307TIP3    H173336   3.015   2.732  15.765  0.4844  1.9901  0.6307
17307TIP3    H273337   2.991   2.696  15.910 -0.0455  1.0615  0.3183
17308TIP3   OH273338   2.447   2.742   4.919 -0.4415  0.2496 -0.7992
17308TIP3    H173339   2.420   2.683   4.989  1.1119 -0.9765 -1.2011
17308TIP3    H273340   2.513   2.799   4.960  0.0820 -0.1237 -1.1132
17309TIP3   OH273341   4.135   0.449  12.130 -0.8018  0.0849 -0.1891
17309TIP3    H173342   4.127   0.538  12.096  1.1242  1.2861  2.3205
17309TIP3    H273343   4.051   0.432  12.174 -0.8763  0.9955  0.0237
17310TIP3   OH273344   5.721   5.250  13.933  0.0359  0.3307 -0.0266
17310TIP3    H173345   5.678   5.286  14.010 -0.0683  1.9721 -0.8204
17310TIP3    H273346   5.810   5.230  13.962 -1.3423 -3.6460  1.7766
17311TIP3   OH273347   3.839   2.797  16.446 -0.4265 -0.0371  0.1296
17311TIP3    H173348   3.764   2.756  16.489  0.8380 -1.6925  0.7988
17311TIP3    H273349   3.882   2.726  16.400  1.8384  0.5061  1.3464
17312TIP3   OH273350   4.353   3.633   3.211  0.4469 -0.0512 -0.3478
17312TIP3    H173351   4.289   3.568   3.239  1.6629 -0.9096  0.4870
17312TIP3    H273352   4.404   3.652   3.290  1.6969  0.0620 -1.1670
17313TIP3   OH273353   1.336   4.849  11.538 -0.7933 -0.0135  0.1177
17313TIP3    H173354   1.392   4.851  11.461 -0.1133 -1.2028  0.5689
17313TIP3    H273355   1.370   4.918  11.595  0.2324 -0.7445  0.3997
17314TIP3   OH273356   1.416   3.476   1.366 -0.5597 -0.8717 -0.3953
17314TIP3    H173357   1.510   3.470   1.347 -1.2320 -1.2447 -4.0278
17314TIP3    H273358   1.391   3.387   1.391  0.2552 -0.4884  1.9466
17315TIP3   OH273359   3.040   2.211   5.233  0.0461  0.2707 -0.1818
17315TIP3    H173360   3.108   2.207   5.300  1.1076  0.1576 -1.2506
17315TIP3    H273361   3.087   2.208   5.150 -1.2997 -0.4001 -0.9481
17316TIP3   OH273362   4.333   6.211  14.506  0.3829 -0.8151  0.3345
17316TIP3    H173363   4.425   6.229  14.524  0.2697  0.5196 -0.3353
17316TIP3    H273364   4.285   6.254  14.576  0.2295 -0.8635  0.2615
17317TIP3   OH273365   0.080   4.814  13.381 -0.2870  0.2235 -0.2754
17317TIP3    H173366   0.043   4.726  13.378  0.0085  0.0907 -0.1337
17317TIP3    H273367   0.153   4.807  13.443  0.8384  0.1420 -1.5965
17318TIP3   OH273368   3.063   3.330   1.696  0.0620 -0.2368  0.2491
17318TIP3    H173369   3.107   3.354   1.778  1.8181  0.0292 -0.7400
17318TIP3    H273370   3.065   3.234   1.695  0.8093 -0.2185  0.1063
17319TIP3   OH273371   3.436   4.904  17.079  0.8715 -0.4855 -0.4566
17319TIP3    H173372   3.508   4.965  17.065 -0.6146  1.4296  0.0737
17319TIP3    H273373   3.458   4.828  17.025  2.3856  0.8141 -1.7006
17320TIP3   OH273374   1.310   0.574   0.642 -0.1302 -0.3505  0.4650
17320TIP3    H173375   1.342   0.542   0.557  0.1433 -3.2970  1.6131
17320TIP3    H273376   1.353   0.659   0.653  1.6342 -0.9533 -1.3171
17321TIP3   OH273377   4.083   0.278   2.103 -0.0279 -0.6178  0.0223
17321TIP3    H173378   4.035   0.248   2.026 -0.2604  1.7263 -0.7766
17321TIP3    H273379   4.015   0.300   2.167  0.0622  0.1384 -0.1375
17322TIP3   OH273380   0.367   6.184   4.499 -0.2064 -0.4042  0.1698
17322TIP3    H173381   0.385   6.266   4.453  1.8324 -1.4357 -0.9318
17322TIP3    H273382   0.449   6.163   4.543 -2.0835  0.5252  4.3447
17323TIP3   OH273383   3.683   3.814  12.843 -0.3028 -0.1905 -0.5047
17323TIP3    H173384   3.668   3.908  12.843  0.5317 -0.0523  0.4371
17323TIP3    H273385   3.605   3.776  12.882  0.8681  0.3772  2.5053
17324TIP3   OH273386   6.342   4.215   0.787 -0.3380 -0.0202  0.2478
17324TIP3    H173387   6.314   4.181   0.872  0.6779  0.2436  0.6974
17324TIP3    H273388   6.316   4.307   0.788 -1.4146 -0.3080 -0.2238
17325TIP3   OH273389   2.428   3.116   0.666  0.1990  0.2929  0.4819
17325TIP3    H173390   2.336   3.126   0.641 -0.0584  1.0554  1.7333
17325TIP3    H273391   2.428   3.039   0.722 -0.0269  1.5371  2.2212
17326TIP3   OH273392   4.171   1.433  12.239 -0.3015  0.4939 -0.3782
17326TIP3    H173393   4.109   1.459  12.307  1.8709  1.1878  1.3958
17326TIP3    H273394   4.153   1.341  12.223 -0.7833  0.3034  1.2101
17327TIP3   OH273395   2.693   3.493   6.652 -0.2752 -0.1325 -0.0698
17327TIP3    H173396   2.628   3.483   6.722 -0.4580  0.7818 -0.1044
17327TIP3    H273397   2.733   3.579   6.668 -0.2700  0.0505 -1.0375
17328TIP3   OH273398   2.776   3.374  10.201 -0.4640 -0.3807 -0.3531
17328TIP3    H173399   2.705   3.433  10.178  0.8966  0.8709 -1.3721
17328TIP3    H273400   2.768   3.363  10.296 -2.0725 -0.3410 -0.4769
17329TIP3   OH273401   4.455   1.674   1.973  0.1202 -0.5091  0.0159
17329TIP3    H173402   4.366   1.681   2.009  0.2204 -0.9781  0.3632
17329TIP3    H273403   4.494   1.759   1.990 -1.4125  0.9799 -3.2947
17330TIP3   OH273404   2.633   4.146   3.654 -0.1444 -0.9683  0.6710
17330TIP3    H173405   2.648   4.056   3.684  1.5982 -0.6873  0.6774
17330TIP3    H273406   2.684   4.200   3.715  0.4446 -0.1194 -0.5687
17331TIP3   OH273407   2.867   3.686   4.988  0.1928 -0.2100 -0.2297
17331TIP3    H173408   2.902   3.732   4.912 -0.4182 -1.9057 -1.5706
17331TIP3    H273409   2.778   3.721   4.998 -0.1254 -0.7885 -0.9929
17332TIP3   OH273410   2.541   3.773   0.131  0.0144  0.3110  0.1489
17332TIP3    H173411   2.532   3.686   0.094  0.4826 -0.4344  1.7383
17332TIP3    H273412   2.566   3.758   0.222  1.6056  2.1182  0.0360
17333TIP3   OH273413   1.380   5.098   3.413  0.1977  0.4242 -0.2761
17333TIP3    H173414   1.381   5.177   3.467 -1.3848 -0.4877  1.1194
17333TIP3    H273415   1.297   5.056   3.434  0.9219 -1.4939 -1.1807
17334TIP3   OH273416   1.897   2.898  13.029  0.3862  0.5309  0.4471
17334TIP3    H173417   1.933   2.975  13.073  0.3209  1.7484 -1.5232
17334TIP3    H273418   1.913   2.915  12.936 -0.9343 -1.1792 -0.1162
17335TIP3   OH273419   0.376   5.943  16.481 -0.0810  0.6908 -0.3577
17335TIP3    H173420   0.338   5.856  16.492 -1.0926  1.0640 -0.8377
17335TIP3    H273421   0.464   5.935  16.516 -1.0664  0.1834  2.0680
17336TIP3   OH273422   3.081   0.736  11.587 -0.1052 -0.0420  0.0039
17336TIP3    H173423   3.090   0.666  11.522  1.4373  0.0362  0.1092
17336TIP3    H273424   2.987   0.754  11.591 -0.3087 -0.7459 -1.4690
17337TIP3   OH273425   6.249   5.829   3.904 -0.6865  0.0740  0.0420
17337TIP3    H173426   6.324   5.771   3.918 -0.1054  1.7559  4.7960
17337TIP3    H273427   6.272   5.879   3.825  0.5052 -3.3929 -1.9003
17338TIP3   OH273428   5.099   0.601  13.581 -0.6261 -0.4053 -0.1631
17338TIP3    H173429   5.038   0.558  13.521 -0.8311 -1.7221  0.9777
17338TIP3    H273430   5.043   0.653  13.639 -0.4735  0.3605 -0.6928
17339TIP3   OH273431   3.851   4.281  13.968  0.8504 -0.1766 -0.4630
17339TIP3    H173432   3.872   4.347  14.034 -1.4424  1.3615 -1.2379
17339TIP3    H273433   3.923   4.287  13.904  1.6334  0.2417  0.4433
17340TIP3   OH273434   4.206   5.865  15.063 -0.5000  0.0474 -0.3648
17340TIP3    H173435   4.113   5.844  15.074 -0.5867  1.0223  1.0031
17340TIP3    H273436   4.206   5.944  15.009 -0.4858  0.0924 -0.3000
17341TIP3   OH273437   0.831   0.082  14.918 -0.4133 -0.4646  0.2648
17341TIP3    H173438   0.909   0.029  14.930  0.1494  0.6634  1.7130
17341TIP3    H273439   0.777   0.032  14.857  1.3623 -1.3218 -0.6271
17342TIP3   OH273440   1.872   6.596   1.376 -0.1094 -0.3196  0.1251
17342TIP3    H173441   1.800   6.539   1.351 -0.0162  0.0211 -0.9483
17342TIP3    H273442   1.833   6.684   1.382 -0.0287 -0.3206  0.7160
17343TIP3   OH273443   4.282   1.765   5.757 -0.4083 -0.3559 -0.0487
17343TIP3    H173444   4.209   1.792   5.813 -1.8534  2.3644 -3.0901
17343TIP3    H273445   4.240   1.720   5.683  1.3637 -2.7802  0.3574
17344TIP3   OH273446   3.316   0.773  15.681 -0.3065 -0.0404 -0.1296
17344TIP3    H173447   3.243   0.730  15.636  0.5839  0.1652 -1.8318
17344TIP3    H273448   3.276   0.814  15.758 -1.6042 -1.6982  0.0998
17345TIP3   OH273449   1.952   0.222   6.594  0.0443 -0.1819  0.5378
17345TIP3    H173450   1.894   0.270   6.535  2.3523  1.5160 -0.4273
17345TIP3    H273451   2.038   0.228   6.553  0.8333 -3.1404  1.6323
17346TIP3   OH273452   0.111   3.348   5.187  1.3364  0.5855 -0.1334
17346TIP3    H173453   0.205   3.342   5.172  1.2489  0.6753 -0.7242
17346TIP3    H273454   0.092   3.441   5.182  1.3422  0.6369  0.7695
17347TIP3   OH273455   4.740   2.520   0.576  0.3779 -0.1022 -0.4776
17347TIP3    H173456   4.673   2.570   0.529  0.3771 -0.3290 -0.7189
17347TIP3    H273457   4.695   2.440   0.602 -0.1108  0.7301  1.3704
17348TIP3   OH273458   2.845   4.003   0.388  0.4500  0.0688  0.3564
17348TIP3    H173459   2.892   4.051   0.456  0.5988  1.0595 -0.4315
17348TIP3    H273460   2.908   3.995   0.316 -1.1115  3.0209 -1.4377
17349TIP3   OH273461   4.482   4.565   2.444 -0.2989 -0.2490  0.5773
17349TIP3    H173462   4.543   4.493   2.460 -0.2156 -0.4686 -0.7194
17349TIP3    H273463   4.403   4.541   2.493 -0.2540 -1.1926  0.1993
17350TIP3   OH273464   6.460   0.820  13.171 -0.2346 -0.0186  0.4467
17350TIP3    H173465   6.383   0.801  13.118  0.4431 -2.1691  0.1415
17350TIP3    H273466   6.432   0.807  13.261 -0.4551  0.0087  0.3807
17351TIP3   OH273467   1.681   1.513   2.024 -0.0762 -0.1035 -0.5152
17351TIP3    H173468   1.742   1.571   2.070 -0.2155 -0.8976  0.6972
17351TIP3    H273469   1.623   1.572   1.976 -0.7660  0.8223  1.3857
17352TIP3   OH273470   4.405   2.603  10.915 -0.0591 -0.1520  0.0434
17352TIP3    H173471   4.439   2.618  11.003  0.4924  0.7579 -0.3106
17352TIP3    H273472   4.425   2.511  10.897 -1.0878 -0.6290  1.2468
17353TIP3   OH273473   3.258   5.682  12.465 -0.5387  0.3427 -0.9248
17353TIP3    H173474   3.276   5.719  12.378 -2.0357 -1.3645 -1.9985
17353TIP3    H273475   3.243   5.589  12.449 -3.4061  0.4425  0.7918
17354TIP3   OH273476   2.048   1.744  15.759  0.4876  0.0159  0.1270
17354TIP3    H173477   2.082   1.723  15.673  0.2958  0.1691  0.0128
17354TIP3    H273478   2.124   1.773  15.809  0.2088  2.3819 -0.7514
17355TIP3   OH273479   3.086   0.820  12.335 -0.7146  0.3564 -0.3202
17355TIP3    H173480   2.996   0.840  12.311 -0.2892  0.3312 -2.0501
17355TIP3    H273481   3.101   0.731  12.301 -0.3547 -0.0679  0.8937
17356TIP3   OH273482   3.249   4.996  15.169 -0.0196  0.2096  0.1290
17356TIP3    H173483   3.337   4.975  15.137  0.8899  3.2132  0.5767
17356TIP3    H273484   3.263   5.037  15.254 -1.8937  0.4955  0.3182
17357TIP3   OH273485   6.687   4.070  13.293  0.1521 -0.2723 -0.7520
17357TIP3    H173486   6.670   4.012  13.218  1.9500 -1.7175 -0.0794
17357TIP3    H273487   6.679   4.158  13.258  1.5440 -0.9251 -2.8008
17358TIP3   OH273488   0.267   4.046  16.038 -0.3303  0.1302  0.1375
17358TIP3    H173489   0.239   4.007  16.120 -2.5749  0.3684 -0.4892
17358TIP3    H273490   0.272   4.140  16.056 -1.5206  0.2611 -0.1745
17359TIP3   OH273491   2.124   4.914  15.724  0.5592  0.9648  0.1972
17359TIP3    H173492   2.163   4.918  15.811  2.2510 -1.5839 -0.3774
17359TIP3    H273493   2.042   4.867  15.736  2.0042 -1.6986  0.0999
17360TIP3   OH273494   2.282   5.487  13.980 -0.1485  0.0843 -0.2904
17360TIP3    H173495   2.341   5.533  13.920 -1.1234  0.3838 -1.0232
17360TIP3    H273496   2.277   5.398  13.945  0.7143 -0.2403  0.3906
17361TIP3   OH273497   4.915   6.184   2.616  0.3804  0.1579  0.0286
17361TIP3    H173498   4.921   6.144   2.529 -3.6495  0.3472 -0.4563
17361TIP3    H273499   4.899   6.277   2.599  1.6883  0.5740  1.0201
17362TIP3   OH273500   1.876   1.812  12.381 -0.3701 -0.1573 -0.1617
17362TIP3    H173501   1.942   1.856  12.435  0.6736 -0.8864 -0.8199
17362TIP3    H273502   1.796   1.864  12.393  0.6756  1.5364 -0.4197
17363TIP3   OH273503   6.466   5.689  11.787  0.4968  0.0965 -0.2147
17363TIP3    H173504   6.420   5.677  11.870  2.2980 -0.7532  0.6832
17363TIP3    H273505   6.539   5.746  11.807  2.9358 -2.8386 -0.4185
17364TIP3   OH273506   2.056   0.955  15.262 -0.0553  0.8901  1.0515
17364TIP3    H173507   2.151   0.951  15.258 -0.0204  2.0581  0.3440
17364TIP3    H273508   2.035   1.045  15.236 -1.3636  0.5510  0.9025
17365TIP3   OH273509   2.825   0.731  11.408 -0.2662 -0.1584 -0.7888
17365TIP3    H173510   2.738   0.718  11.447  0.4696 -0.0173  0.9362
17365TIP3    H273511   2.825   0.822  11.380  0.4148  0.7348  2.0350
17366TIP3   OH273512   3.748   6.348   1.433 -0.4572 -0.6617  0.1857
17366TIP3    H173513   3.748   6.252   1.432  0.4376 -0.6594  0.2949
17366TIP3    H273514   3.733   6.372   1.341 -0.5577 -0.9037  0.1374
17367TIP3   OH273515   0.215   0.750  12.687 -0.0214  0.2626 -0.0381
17367TIP3    H173516   0.174   0.807  12.752  0.5359  0.4968  0.1157
17367TIP3    H273517   0.280   0.700  12.737 -1.9465 -2.0466  0.2445
17368TIP3   OH273518   0.451   4.328  14.236 -0.4581 -0.2103 -0.1282
17368TIP3    H173519   0.465   4.329  14.141 -0.3661 -1.3283 -0.1260
17368TIP3    H273520   0.371   4.379  14.249 -1.2498 -1.2171 -0.9450
17369TIP3   OH273521   4.816   4.359  16.133 -0.2791  0.3413 -0.6746
17369TIP3    H173522   4.884   4.409  16.088  0.5150  0.5081  0.6712
17369TIP3    H273523   4.819   4.392  16.223 -0.1988 -1.6643  0.0677
17370TIP3   OH273524   2.532   1.683  12.154 -0.0313 -0.1339 -0.1814
17370TIP3    H173525   2.530   1.773  12.187  3.1111 -0.2413  0.5158
17370TIP3    H273526   2.503   1.630  12.229  2.0420  0.0298  0.7812
17371TIP3   OH273527   5.431   5.861  15.084  0.0275 -0.0044  0.2878
17371TIP3    H173528   5.380   5.889  15.008 -0.9534  0.4184  1.0918
17371TIP3    H273529   5.521   5.884  15.062 -0.0917 -0.9187 -1.2174
17372TIP3   OH273530   6.764   5.074  13.256  0.0925 -0.0080 -0.3357
17372TIP3    H173531   6.770   5.053  13.162  0.6487  0.4193 -0.3948
17372TIP3    H273532   6.782   4.990  13.299 -2.3241 -0.7235 -0.6241
17373TIP3   OH273533   3.025   2.752  13.314 -0.1223  0.0639 -0.1153
17373TIP3    H173534   2.941   2.782  13.350 -0.1811  0.2152 -0.3729
17373TIP3    H273535   3.090   2.812  13.351  0.1427 -1.3265  1.7350
17374TIP3   OH273536   1.355   0.626  15.665  0.2061 -0.0751  0.0758
17374TIP3    H173537   1.279   0.592  15.618  1.1237 -0.8125 -0.8972
17374TIP3    H273538   1.348   0.721  15.657 -0.2524 -0.1631 -0.5833
17375TIP3   OH273539   2.714   3.542   6.092 -0.5324 -0.3460 -0.1678
17375TIP3    H173540   2.671   3.606   6.035  1.5724 -1.1293 -2.7316
17375TIP3    H273541   2.765   3.596   6.153  0.2407  0.4726 -1.5097
17376TIP3   OH273542   3.071   3.837  11.445  0.0584 -0.3076  0.1339
17376TIP3    H173543   3.065   3.753  11.399 -0.2759 -1.2951  1.9152
17376TIP3    H273544   3.122   3.817  11.524 -0.1380  1.1335  0.6316
17377TIP3   OH273545   1.537   1.218   3.939  0.1124 -0.2052 -0.5388
17377TIP3    H173546   1.502   1.306   3.955  0.1314 -0.2427 -0.2895
17377TIP3    H273547   1.481   1.183   3.870 -0.6404 -0.4351  0.1821
17378TIP3   OH273548   5.045   0.024  11.462 -0.5521 -0.2061 -0.0556
17378TIP3    H173549   5.060  -0.068  11.485 -1.7080  0.2153  2.6702
17378TIP3    H273550   5.131   0.064  11.466 -0.5085 -0.4601  2.4144
17379TIP3   OH273551   2.037   5.454   1.015 -0.0461  0.1820 -0.1814
17379TIP3    H173552   2.131   5.468   1.026 -0.1313  1.3547 -0.8998
17379TIP3    H273553   2.010   5.411   1.096  1.0242  0.2737  0.2358
17380TIP3   OH273554   3.521   5.983   5.800 -0.1525 -0.1681 -0.2719
17380TIP3    H173555   3.529   5.923   5.725  0.1099  0.8771 -1.0977
17380TIP3    H273556   3.443   6.035   5.781  0.8531  1.2357 -0.6598
17381TIP3   OH273557   6.500   5.696  17.115 -0.1674  0.0926 -0.5058
17381TIP3    H173558   6.524   5.676  17.205  0.4299  0.4623 -0.5820
17381TIP3    H273559   6.473   5.788  17.116 -1.1727 -0.1995 -0.5065
17382TIP3   OH273560   2.815   2.305   4.049  0.1509 -0.0529  0.1194
17382TIP3    H173561   2.810   2.361   3.971  0.7803 -0.6751 -0.3653
17382TIP3    H273562   2.758   2.231   4.029 -0.4990  0.2919  0.6689
17383TIP3   OH273563   6.516   0.660   3.040 -0.2442  0.5726  0.0641
17383TIP3    H173564   6.587   0.596   3.036  0.4198  1.3341 -0.5288
17383TIP3    H273565   6.460   0.638   2.965 -1.3918 -0.8793  1.3128
17384TIP3   OH273566   4.478   5.389   2.677  0.2118  0.2188 -0.2241
17384TIP3    H173567   4.462   5.472   2.633  0.4507  0.8826  0.9143
17384TIP3    H273568   4.561   5.402   2.724  0.6149 -0.9037 -0.6139
17385TIP3   OH273569   1.909   0.371   0.857 -0.1901 -0.4481  0.3942
17385TIP3    H173570   1.830   0.402   0.901 -0.6094 -0.6284 -0.2280
17385TIP3    H273571   1.966   0.341   0.928 -0.7818 -0.5604  0.8233
17386TIP3   OH273572   5.935   4.901  13.658  0.5276 -0.0553  0.3381
17386TIP3    H173573   5.896   4.988  13.666 -0.1179 -0.4701  1.9822
17386TIP3    H273574   6.025   4.917  13.632 -0.1686  1.0160 -1.4716
17387TIP3   OH273575   4.918   5.981  10.940 -0.1499 -0.3939 -0.0344
17387TIP3    H173576   4.829   5.970  10.974  0.3805 -2.9351  0.6676
17387TIP3    H273577   4.913   5.944  10.851  0.2983 -1.0048  0.1900
17388TIP3   OH273578   5.262   4.371  15.294  0.3938 -0.3960 -0.0689
17388TIP3    H173579   5.324   4.444  15.297  0.8386 -0.7978  0.5618
17388TIP3    H273580   5.180   4.411  15.264  1.2777 -0.0958 -2.1655
17389TIP3   OH273581   2.124   2.903   4.636 -0.1799 -0.4006  0.2440
17389TIP3    H173582   2.044   2.859   4.605  0.5150 -1.3004 -0.2853
17389TIP3    H273583   2.096   2.993   4.654 -1.9104 -1.3198  2.4758
17390TIP3   OH273584   3.624   4.313  11.993 -0.0076 -0.0423  0.5943
17390TIP3    H173585   3.592   4.342  11.907  0.3569  0.5744  0.6569
17390TIP3    H273586   3.666   4.392  12.030  0.3075 -0.4479  1.1084
17391TIP3   OH273587   0.805   2.206   0.486 -0.1031 -0.5664  0.4263
17391TIP3    H173588   0.839   2.267   0.422 -1.2763 -1.0236 -0.6512
17391TIP3    H273589   0.866   2.132   0.483 -0.6088 -0.9447 -0.7627
17392TIP3   OH273590   3.074   3.286   0.212  0.2652  0.3929  0.2583
17392TIP3    H173591   3.065   3.207   0.157 -0.6135 -0.3083  1.3920
17392TIP3    H273592   3.168   3.296   0.225  0.3369 -1.0696  0.9433
17393TIP3   OH273593   1.037   0.825  16.825 -0.0538 -0.3845  0.2421
17393TIP3    H173594   1.031   0.840  16.731  0.5930  1.4363  0.4713
17393TIP3    H273595   0.952   0.853  16.859  0.4991  1.0887  0.4502
17394TIP3   OH273596   0.811   2.174  13.073  0.3156 -0.2202  0.3153
17394TIP3    H173597   0.856   2.099  13.035  1.1927  0.5779 -0.2357
17394TIP3    H273598   0.792   2.148  13.163 -1.1969 -1.8750 -0.4368
17395TIP3   OH273599   3.141   6.719   1.595 -0.8220 -0.1025  0.4530
17395TIP3    H173600   3.165   6.790   1.536 -0.4610  0.9386  1.8300
17395TIP3    H273601   3.051   6.737   1.620 -0.4458  0.3838  1.5009
17396TIP3   OH273602   0.557   6.156  12.610 -0.2670  0.2374  0.1489
17396TIP3    H173603   0.631   6.110  12.650  0.3713  0.5349 -0.6790
17396TIP3    H273604   0.481   6.103  12.632  0.3473 -0.7160 -0.0061
17397TIP3   OH273605   2.133   3.039  13.443 -0.4678 -0.2092 -0.2830
17397TIP3    H173606   2.069   3.055  13.512  0.5199  0.3719  0.5209
17397TIP3    H273607   2.218   3.057  13.484  0.2937 -1.9015 -1.0310
17398TIP3   OH273608   5.527   6.325   2.595 -0.1118 -0.8512  0.2271
17398TIP3    H173609   5.570   6.283   2.520  0.7821  0.2904  0.0939
17398TIP3    H273610   5.584   6.398   2.618 -1.2367 -0.2003  0.9836
17399TIP3   OH273611   6.725   1.443  14.474 -0.2029 -0.3278  0.1821
17399TIP3    H173612   6.752   1.418  14.385 -2.5085 -2.7787  0.1055
17399TIP3    H273613   6.707   1.536  14.469  0.5764 -0.2630 -1.6985
17400TIP3   OH273614   4.362   1.913   0.094  0.8387 -0.9067  0.5455
17400TIP3    H173615   4.321   1.900   0.009  1.1736  0.0718  0.2304
17400TIP3    H273616   4.290   1.939   0.152  0.8645 -0.0803  0.2058
17401TIP3   OH273617   4.374   5.182   2.065 -0.4667 -0.0128 -0.2049
17401TIP3    H173618   4.363   5.099   2.112  0.9993 -1.1953 -1.8516
17401TIP3    H273619   4.384   5.247   2.134 -1.6071 -1.2098  1.1231
17402TIP3   OH273620   2.959   4.601   2.495 -0.3488 -0.8929  0.3794
17402TIP3    H173621   3.037   4.646   2.529  0.0634  0.9384 -2.8389
17402TIP3    H273622   2.961   4.515   2.538  2.9685 -0.5676  1.0154
17403TIP3   OH273623   6.480   4.057   5.733 -0.2842  0.1171  0.3541
17403TIP3    H173624   6.470   4.146   5.766  2.5684  0.1697  1.2123
17403TIP3    H273625   6.484   4.002   5.811 -0.9008 -0.6549 -0.1402
17404TIP3   OH273626   1.759   3.844  17.106  0.1219 -0.0026  0.2430
17404TIP3    H173627   1.718   3.819  17.189 -0.2611  1.8595  0.6346
17404TIP3    H273628   1.850   3.865  17.130  0.0627  0.3451  0.1659
17405TIP3   OH273629   1.957   2.284  12.146 -0.2842  0.2826 -0.3897
17405TIP3    H173630   1.977   2.228  12.071 -0.5374 -0.6809  0.2389
17405TIP3    H273631   1.862   2.281  12.154 -0.2715  0.4988 -0.1240
17406TIP3   OH273632   0.011   3.606  11.045 -0.6161  0.5404  0.2205
17406TIP3    H173633   0.038   3.631  10.956 -0.5043  0.2361  0.1684
17406TIP3    H273634  -0.068   3.552  11.031 -0.2798  0.0335  0.2728
17407TIP3   OH273635   1.392   6.425  10.976  0.2097 -0.1669 -0.4688
17407TIP3    H173636   1.306   6.462  10.957  0.5479  0.8761 -0.0121
17407TIP3    H273637   1.443   6.499  11.008  0.6013 -1.2241  1.4216
17408TIP3   OH273638   1.887   0.899  14.441  0.2148  0.1429  0.4241
17408TIP3    H173639   1.851   0.948  14.367 -1.3644  0.2474  1.2522
17408TIP3    H273640   1.935   0.827  14.400  0.1829  0.7502 -0.7244
17409TIP3   OH273641   5.067   0.370  12.742  0.5611 -0.0644  0.1619
17409TIP3    H173642   5.116   0.432  12.688  1.1451 -0.6650 -0.0203
17409TIP3    H273643   5.095   0.284  12.709 -1.2322 -0.4091 -0.4772
17410TIP3   OH273644   5.885   2.801  16.569 -0.4373  0.5013  0.1376
17410TIP3    H173645   5.792   2.787  16.585 -0.2247  0.6459  1.6170
17410TIP3    H273646   5.929   2.741  16.629  0.4291  0.9560 -0.0320
17411TIP3   OH273647   1.589   5.595   2.521 -0.0366 -0.9029 -0.1251
17411TIP3    H173648   1.581   5.582   2.616  1.7015  1.3930  0.3898
17411TIP3    H273649   1.515   5.651   2.498  0.8374  0.4769  0.3337
17412TIP3   OH273650   6.308   1.686   2.728  0.4100  0.6484  0.4259
17412TIP3    H173651   6.395   1.645   2.722  0.0936 -0.1227  1.0872
17412TIP3    H273652   6.326   1.771   2.769  0.7450  0.1463  1.3244
17413TIP3   OH273653   6.462   1.686   5.402  0.1539 -0.7763 -0.6520
17413TIP3    H173654   6.386   1.664   5.347  0.5222  0.2868 -1.5844
17413TIP3    H273655   6.437   1.655   5.490 -0.1666 -3.0824 -1.5267
17414TIP3   OH273656   3.408   5.638  16.254 -0.4869  0.4760  0.5058
17414TIP3    H173657   3.370   5.608  16.337  0.5434  1.5932  1.3816
17414TIP3    H273658   3.377   5.728  16.245 -1.7988 -0.1063 -1.0666
17415TIP3   OH273659   5.050   5.951   0.614  0.5176 -0.0802 -0.2461
17415TIP3    H173660   4.977   6.007   0.638 -0.3134 -1.1349 -0.2524
17415TIP3    H273661   5.062   5.966   0.520  1.6122  1.5808  0.1575
17416TIP3   OH273662   6.292   0.548  16.475 -0.2066  0.0650  0.4922
17416TIP3    H173663   6.220   0.578  16.531  2.2022  1.6571  2.8067
17416TIP3    H273664   6.334   0.479  16.525 -0.4632 -1.3094 -1.1409
17417TIP3   OH273665   4.684   4.843  16.045 -0.0758  0.4884 -0.0374
17417TIP3    H173666   4.776   4.819  16.051 -0.0100  0.7343 -0.0442
17417TIP3    H273667   4.684   4.921  15.990  0.2110  3.3062  3.7526
17418TIP3   OH273668   1.228   3.530  12.890  0.0500  0.0325  0.2066
17418TIP3    H173669   1.244   3.566  12.803  1.6285 -1.5314 -0.2066
17418TIP3    H273670   1.295   3.570  12.945  1.0734 -1.3351 -0.0093
17419TIP3   OH273671   5.252   1.699   3.734 -0.3506 -0.2673  0.3661
17419TIP3    H173672   5.230   1.625   3.790 -0.9669 -0.7543 -0.5027
17419TIP3    H273673   5.261   1.773   3.794 -0.4468 -0.8941  1.1628
17420TIP3   OH273674   2.466   0.489  16.066  0.0520  0.2266 -0.0800
17420TIP3    H173675   2.491   0.581  16.056 -0.7890  0.4457 -0.1736
17420TIP3    H273676   2.371   0.490  16.068  0.0839 -0.3773  2.7451
17421TIP3   OH273677   3.739   6.083  13.695 -0.0350 -0.3342  0.0782
17421TIP3    H173678   3.680   6.073  13.620 -0.8575 -3.1787  1.0207
17421TIP3    H273679   3.780   5.997  13.705  1.6980  0.6199  1.5685
17422TIP3   OH273680   0.142   1.577   1.140  0.7720 -0.5999  0.4437
17422TIP3    H173681   0.118   1.571   1.048 -0.2842 -0.9738  0.7409
17422TIP3    H273682   0.117   1.667   1.165 -2.1642 -1.5753  1.2454
17423TIP3   OH273683   2.134   4.731   2.982  0.2817 -0.7068  0.4152
17423TIP3    H173684   2.042   4.717   2.960  0.0501 -0.3843  1.1390
17423TIP3    H273685   2.158   4.654   3.033  0.1360 -0.3680  1.0163
17424TIP3   OH273686   5.492   0.296  15.704  0.4733  0.4548 -0.0552
17424TIP3    H173687   5.407   0.283  15.745  1.1462  0.5021  1.3972
17424TIP3    H273688   5.476   0.287  15.610 -0.6927 -1.8420  0.3488
17425TIP3   OH273689   4.934   1.936   4.429  0.2127 -0.0515  0.2779
17425TIP3    H173690   4.904   2.021   4.396  0.5469  0.5540  1.5028
17425TIP3    H273691   4.991   1.958   4.503  0.5438 -1.3342  0.4098
17426TIP3   OH273692   3.250   2.218  12.315 -0.0830  0.3177 -0.1297
17426TIP3    H173693   3.176   2.272  12.287  1.0809  1.2834 -1.3926
17426TIP3    H273694   3.238   2.136  12.267 -0.2548  0.5347 -0.4645
17427TIP3   OH273695   5.949   4.223  14.155 -0.0544  0.0173 -0.3662
17427TIP3    H173696   5.865   4.202  14.196 -1.1481  0.0556 -2.5255
17427TIP3    H273697   5.950   4.318  14.149  0.5978  0.0744  0.5631
17428TIP3   OH273698   1.687   3.700   2.465  0.2426  0.2324 -0.3292
17428TIP3    H173699   1.607   3.653   2.443  1.0963 -1.6468  0.4067
17428TIP3    H273700   1.756   3.634   2.458  1.9202  2.1319 -2.2511
17429TIP3   OH273701   2.780   1.657  15.128 -0.0917  0.0780 -0.1011
17429TIP3    H173702   2.768   1.733  15.185 -0.0141 -0.7534  1.0137
17429TIP3    H273703   2.839   1.688  15.059  0.3210  0.8891  0.6165
17430TIP3   OH273704   3.812   4.917   1.090 -0.0314 -0.3040 -0.0415
17430TIP3    H173705   3.896   4.874   1.107 -0.1958 -0.3432  0.6726
17430TIP3    H273706   3.767   4.858   1.031  0.9592  0.3248 -1.4559
17431TIP3   OH273707   1.141   2.680  11.145 -0.0113  0.4678  0.7320
17431TIP3    H173708   1.139   2.734  11.066 -1.2851  0.5901  0.8295
17431TIP3    H273709   1.188   2.733  11.209  0.0930  0.8098  0.3765
17432TIP3   OH273710   4.679   6.056  13.466  0.9882  0.8708 -0.5521
17432TIP3    H173711   4.624   5.979  13.481  1.1277  0.8308 -0.2447
17432TIP3    H273712   4.678   6.103  13.549  1.8274  0.6064 -0.3869
17433TIP3   OH273713   1.241   1.318  12.707 -0.5239  0.2368 -0.3000
17433TIP3    H173714   1.199   1.396  12.742 -1.6222 -1.4928  2.4306
17433TIP3    H273715   1.314   1.301  12.766  1.2572  0.6176 -2.3558
17434TIP3   OH273716   2.512   4.347   3.492  0.3315  0.4344 -0.0204
17434TIP3    H173717   2.490   4.410   3.561 -0.5983  0.2086 -0.1086
17434TIP3    H273718   2.573   4.286   3.533  0.5856  0.9004  0.3011
17435TIP3   OH273719   3.269   0.048   5.427  0.1542  0.7931 -0.2143
17435TIP3    H173720   3.258   0.034   5.521 -1.2404 -0.8694 -0.6068
17435TIP3    H273721   3.277   0.143   5.419  3.0988  0.7906  1.8384
17436TIP3   OH273722   5.210   6.102   5.774 -0.0308  0.1520 -0.1309
17436TIP3    H173723   5.148   6.062   5.712  0.0554 -0.7094  0.3317
17436TIP3    H273724   5.181   6.193   5.781 -2.5295 -0.7175  1.6217
17437TIP3   OH273725   1.768   3.015   2.372 -0.2754 -0.2776 -0.1926
17437TIP3    H173726   1.685   3.004   2.325 -0.1335 -2.6752  0.0574
17437TIP3    H273727   1.808   2.928   2.372  2.0676  0.7470  0.0574
17438TIP3   OH273728   1.782   3.789   2.996  0.1058 -0.0027  0.3335
17438TIP3    H173729   1.773   3.882   3.016 -0.1426 -0.6098  3.1645
17438TIP3    H273730   1.730   3.777   2.916 -0.2014  2.1794  0.1599
17439TIP3   OH273731   2.894   1.688   2.551  0.5484 -0.1855  0.8035
17439TIP3    H173732   2.928   1.721   2.468  0.7101 -1.1159  0.4898
17439TIP3    H273733   2.908   1.759   2.613  1.8340 -0.0450  0.3667
17440TIP3   OH273734   1.789   2.720   1.613 -0.2176 -0.1517  0.1184
17440TIP3    H173735   1.878   2.750   1.592 -0.1116 -0.5390  0.0021
17440TIP3    H273736   1.790   2.627   1.592 -0.4055 -0.3360  0.8828
17441TIP3   OH273737   2.098   6.629  12.355 -0.6869 -0.3112 -0.5709
17441TIP3    H173738   2.176   6.603  12.306  0.2189  2.0174 -0.4099
17441TIP3    H273739   2.031   6.642  12.287  0.0131  0.9637 -1.0325
17442TIP3   OH273740   0.539   3.621  13.198  0.0239  0.3575  0.0766
17442TIP3    H173741   0.634   3.623  13.191 -0.0357  0.7454 -0.6393
17442TIP3    H273742   0.511   3.570  13.122 -0.3175 -0.0657  0.4880
17443TIP3   OH273743   5.329   0.851   4.275  0.5672  0.4687 -0.2320
17443TIP3    H173744   5.357   0.776   4.328  0.5821  0.4266 -0.2990
17443TIP3    H273745   5.303   0.812   4.191 -0.2902  0.4358  0.0434
17444TIP3   OH273746   5.654   0.241  14.468  0.4298 -0.2184 -0.0821
17444TIP3    H173747   5.650   0.303  14.395 -0.6291 -4.2310 -3.6269
17444TIP3    H273748   5.565   0.242  14.504  0.1321 -0.3440 -0.7866
17445TIP3   OH273749   0.179   3.268  15.111 -0.6281  0.4665  0.0686
17445TIP3    H173750   0.259   3.316  15.132  0.3479 -0.9759 -0.2505
17445TIP3    H273751   0.114   3.335  15.091  0.4020  1.6594  0.7109
17446TIP3   OH273752   1.787   4.160   5.060 -0.4025 -0.7729  0.1047
17446TIP3    H173753   1.799   4.071   5.026  2.9181  0.1265 -1.2706
17446TIP3    H273754   1.854   4.168   5.129 -0.0395  0.9608 -0.4388
17447TIP3   OH273755   0.299   5.374   6.092  0.4664  0.0191 -0.1864
17447TIP3    H173756   0.330   5.411   6.175 -0.1470 -0.8907  0.4556
17447TIP3    H273757   0.296   5.280   6.107  0.3941 -0.1555 -1.2595
17448TIP3   OH273758   2.404   5.079  11.927  0.2447 -0.3764 -0.1280
17448TIP3    H173759   2.435   5.166  11.955  1.1193 -0.7859  0.2166
17448TIP3    H273760   2.459   5.058  11.852 -1.2076  0.1479 -1.3641
17449TIP3   OH273761   0.465   1.402   1.411  0.1047 -0.0196  0.0927
17449TIP3    H173762   0.374   1.431   1.404  0.7733  2.5825  1.3895
17449TIP3    H273763   0.463   1.308   1.393 -2.8787 -0.0572  0.5290
17450TIP3   OH273764   2.890   6.113   1.623  0.0599  0.2260 -0.4998
17450TIP3    H173765   2.835   6.156   1.688  0.1826  1.5798 -1.2755
17450TIP3    H273766   2.913   6.182   1.561  3.6691 -0.0202  0.4670
17451TIP3   OH273767   5.976   5.374   0.777 -0.3243  0.1508  0.0941
17451TIP3    H173768   5.903   5.399   0.720 -0.7169 -0.4672  0.3193
17451TIP3    H273769   5.934   5.345   0.858  0.1788 -0.1153  0.2625
17452TIP3   OH273770   1.924   0.092   3.662  0.1224  0.1565 -0.2540
17452TIP3    H173771   1.855   0.068   3.725  0.8933 -0.8559  0.2184
17452TIP3    H273772   1.951   0.180   3.689 -2.5092  1.4988 -1.7996
17453TIP3   OH273773   0.754   4.723   5.322 -0.2019 -0.2120  0.0245
17453TIP3    H173774   0.800   4.724   5.238 -0.5366 -1.0956 -0.1760
17453TIP3    H273775   0.810   4.671   5.379 -0.6049 -0.6910 -0.0164
17454TIP3   OH273776   2.709   3.256  13.930  0.5761  0.0707  0.2614
17454TIP3    H173777   2.635   3.295  13.978  0.0813 -1.2251  0.5515
17454TIP3    H273778   2.784   3.270  13.987  0.4544  0.8290  0.2499
17455TIP3   OH273779   2.364   0.195  12.746 -0.2722  0.0909  0.1025
17455TIP3    H173780   2.404   0.268  12.698  2.3480 -0.1226  1.8459
17455TIP3    H273781   2.406   0.117  12.711  0.8038 -0.1515  1.8310
17456TIP3   OH273782   4.164   4.597   1.615 -0.3125 -0.4019  0.1286
17456TIP3    H173783   4.230   4.623   1.680  0.0154 -2.8599  0.8283
17456TIP3    H273784   4.203   4.522   1.570 -1.3097  0.1407 -1.6767
17457TIP3   OH273785   1.784   5.041  16.614  0.0942 -0.0704  0.0817
17457TIP3    H173786   1.853   4.976  16.610 -0.8640 -1.3024  2.5522
17457TIP3    H273787   1.802   5.092  16.693 -1.3315  0.1212  0.3105
17458TIP3   OH273788   2.515   4.653   3.848  0.2630  0.1096  0.0863
17458TIP3    H173789   2.560   4.736   3.831  2.5301 -1.2264 -0.7687
17458TIP3    H273790   2.477   4.663   3.935  0.4520  2.0595 -0.0344
17459TIP3   OH273791   5.476   0.336   2.457 -0.3508  0.0430 -0.4996
17459TIP3    H173792   5.494   0.308   2.547  1.4775  0.9160 -0.5707
17459TIP3    H273793   5.382   0.323   2.447 -0.5653 -0.2061  1.4933
17460TIP3   OH273794   6.533   2.419   1.305 -0.0914  0.0224  0.4380
17460TIP3    H173795   6.486   2.344   1.269 -0.4032 -0.5673  2.0012
17460TIP3    H273796   6.469   2.463   1.360  1.0422 -0.5628  2.2875
17461TIP3   OH273797   1.571   2.351  15.837 -0.7875  0.3623 -0.1133
17461TIP3    H173798   1.532   2.293  15.772  0.7571  1.0723 -1.7126
17461TIP3    H273799   1.608   2.292  15.903 -0.3444 -0.4509 -1.0720
17462TIP3   OH273800   6.735   4.171   0.156  0.9057  0.5846  0.0956
17462TIP3    H173801   6.774   4.140   0.238 -0.0012 -0.8590 -0.0009
17462TIP3    H273802   6.796   4.141   0.088 -0.7919 -2.5690 -0.1437
17463TIP3   OH273803   0.286   0.079   2.436  0.0498  0.5890 -0.4463
17463TIP3    H173804   0.204   0.036   2.412 -0.3318  0.8237  0.4014
17463TIP3    H273805   0.353   0.034   2.385 -0.4927 -0.2190 -0.4517
17464TIP3   OH273806   4.244   1.650   2.970 -0.0706  0.2114  0.2802
17464TIP3    H173807   4.299   1.645   3.048  2.0024 -0.9577 -1.1979
17464TIP3    H273808   4.202   1.564   2.963 -0.8727  0.5776  0.5393
17465TIP3   OH273809   6.631   2.522  15.820 -0.1611  0.2981  0.2014
17465TIP3    H173810   6.602   2.611  15.802 -0.4480  0.2676  0.4981
17465TIP3    H273811   6.726   2.529  15.832  0.1139  0.2319 -1.7865
17466TIP3   OH273812   2.025   1.588  12.700 -0.3125 -0.0470 -0.2720
17466TIP3    H173813   2.045   1.535  12.778 -0.9155  1.1326  0.7054
17466TIP3    H273814   2.053   1.676  12.724 -0.5482  0.3385 -1.3953
17467TIP3   OH273815   1.213   6.055   5.134 -0.2976  0.0931 -0.3196
17467TIP3    H173816   1.261   5.974   5.116 -1.0912 -0.6973  1.0363
17467TIP3    H273817   1.122   6.027   5.145 -0.4715  1.0799  0.8165
17468TIP3   OH273818   4.814   2.686   0.009 -0.4275 -0.0809  0.0595
17468TIP3    H173819   4.906   2.673   0.032 -0.2070 -0.0934 -0.8061
17468TIP3    H273820   4.765   2.654   0.085  0.3314  1.9807  1.4834
17469TIP3   OH273821   5.765   5.057   4.824  0.1258 -0.3500 -0.4533
17469TIP3    H173822   5.789   5.045   4.916  1.1125  0.7965 -0.5317
17469TIP3    H273823   5.724   4.975   4.798  0.4246 -0.9206  0.8358
17470TIP3   OH273824   1.628   1.487   0.533  0.5016  0.1365  0.0624
17470TIP3    H173825   1.703   1.471   0.590  0.3513  1.5881  0.6844
17470TIP3    H273826   1.605   1.579   0.547 -1.1858 -0.1886 -0.3695
17471TIP3   OH273827   2.438   0.874   4.581 -0.7129 -0.1067 -0.0235
17471TIP3    H173828   2.393   0.953   4.552 -0.6914 -0.4882 -1.1141
17471TIP3    H273829   2.526   0.904   4.606 -0.9132  0.3151  0.1705
17472TIP3   OH273830   4.225   1.151  14.925 -0.1885 -0.1289  0.6975
17472TIP3    H173831   4.241   1.210  14.998  0.7766 -1.3303  1.4644
17472TIP3    H273832   4.295   1.087  14.929 -0.2555 -0.3619 -1.1422
17473TIP3   OH273833   1.339   3.068  16.364  0.3168 -0.1163  0.0252
17473TIP3    H173834   1.313   3.101  16.450  0.6586 -0.6180  0.3273
17473TIP3    H273835   1.285   3.115  16.302 -0.0709  0.1074  0.5339
17474TIP3   OH273836   5.615   5.367  14.598 -0.1124 -0.2356 -0.2634
17474TIP3    H173837   5.591   5.274  14.594  0.7000 -0.4306 -0.7936
17474TIP3    H273838   5.533   5.414  14.588 -0.1762 -0.8731 -2.9485
17475TIP3   OH273839   4.653   1.438   0.152 -0.1993  0.1502 -0.3464
17475TIP3    H173840   4.577   1.410   0.203 -0.1557  1.7496  0.6211
17475TIP3    H273841   4.660   1.373   0.082 -0.6995 -1.6390  1.2329
17476TIP3   OH273842   4.833   6.766   2.707 -0.0646  0.1824 -0.1218
17476TIP3    H173843   4.901   6.706   2.738  0.0410 -0.4914 -1.5997
17476TIP3    H273844   4.848   6.847   2.755  0.7856 -0.4798  0.7433
17477TIP3   OH273845   2.039   1.883  16.895 -0.2001 -0.3567 -0.3680
17477TIP3    H173846   2.102   1.920  16.833 -0.7754 -1.2304 -1.5015
17477TIP3    H273847   2.042   1.788  16.878 -1.7372 -0.4130 -0.3688
17478TIP3   OH273848   6.667   3.121   3.812 -0.2690 -0.0350  0.4406
17478TIP3    H173849   6.702   3.134   3.900 -1.2001  0.9025  0.6870
17478TIP3    H273850   6.651   3.027   3.806 -0.4756 -0.0616  1.3798
17479TIP3   OH273851   4.303   2.758   4.242  0.0123  0.4247 -0.2553
17479TIP3    H173852   4.282   2.851   4.243  0.3125  0.5431 -2.7598
17479TIP3    H273853   4.224   2.715   4.209 -0.3253 -0.2857  1.4288
17480TIP3   OH273854   1.368   1.525   3.478  0.1472  0.0996  0.1842
17480TIP3    H173855   1.400   1.482   3.557  0.2722  0.7528  0.4900
17480TIP3    H273856   1.283   1.561   3.503  0.6477  1.1896  0.3169
17481TIP3   OH273857   3.839   6.324   6.022 -0.6720  0.5507  0.2703
17481TIP3    H173858   3.770   6.299   6.084 -0.0848  0.0245  0.7115
17481TIP3    H273859   3.869   6.410   6.052 -2.8707  1.9663 -1.3954
17482TIP3   OH273860   0.068   2.942  11.637 -0.1394 -0.0363 -0.4066
17482TIP3    H173861   0.149   2.910  11.597  0.4243  1.3780 -0.4644
17482TIP3    H273862   0.085   2.939  11.731  0.5878  1.6907 -0.4543
17483TIP3   OH273863   1.731   2.035   6.123 -0.2615 -0.1595 -0.4374
17483TIP3    H173864   1.698   1.956   6.167 -2.4481 -0.4335 -2.4798
17483TIP3    H273865   1.662   2.100   6.134 -0.4402  0.0585 -2.6197
17484TIP3   OH273866   0.947   3.717  13.585 -0.1242 -0.1620 -0.5645
17484TIP3    H173867   0.930   3.623  13.582  1.9178 -0.5043 -1.9673
17484TIP3    H273868   1.033   3.728  13.545  0.5860  2.0925  1.4571
17485TIP3   OH273869   3.959   3.030  16.549  0.0945  0.5860 -0.1470
17485TIP3    H173870   4.012   2.993  16.620  0.6240  1.5281 -0.0321
17485TIP3    H273871   3.901   2.960  16.523  0.7886 -0.1865  0.3521
17486TIP3   OH273872   2.426   5.708   3.514  0.3428 -0.0774 -0.5234
17486TIP3    H173873   2.450   5.740   3.427  0.4446 -0.2698 -0.5669
17486TIP3    H273874   2.330   5.703   3.511  0.3244  0.2938 -0.4900
17487TIP3   OH273875   5.510   6.553  12.654 -0.1691 -0.6443  0.6594
17487TIP3    H173876   5.417   6.535  12.640  0.0137 -0.1954 -1.2521
17487TIP3    H273877   5.556   6.490  12.599  0.6571 -0.4660  1.1346
17488TIP3   OH273878   3.243   2.562  16.463 -0.1505  0.5211 -0.2607
17488TIP3    H173879   3.284   2.544  16.547 -0.0016  0.9528 -0.2360
17488TIP3    H273880   3.202   2.480  16.437  0.3474  0.2094 -0.0678
17489TIP3   OH273881   4.745   3.116  14.147  0.2209 -0.2522 -0.1559
17489TIP3    H173882   4.765   3.053  14.078  1.5125  1.5060 -1.4309
17489TIP3    H273883   4.688   3.181  14.105  1.7487  1.3242  0.1173
17490TIP3   OH273884   4.047   0.116   0.234 -0.5566  0.3855 -0.1459
17490TIP3    H173885   4.046   0.028   0.272  0.5526  0.1208 -0.7100
17490TIP3    H273886   4.079   0.172   0.304  0.8743 -0.0044 -0.4837
17491TIP3   OH273887   4.544   3.346   2.426 -0.2520 -0.0936  0.0205
17491TIP3    H173888   4.455   3.354   2.392  0.3150  2.0881 -1.0748
17491TIP3    H273889   4.534   3.308   2.513 -2.3980  1.9955  0.7159
17492TIP3   OH273890   4.248   0.329  16.967  0.0281  0.4923 -0.1672
17492TIP3    H173891   4.276   0.238  16.959  0.4279  0.5250  0.8334
17492TIP3    H273892   4.324   0.375  17.002 -0.9895  0.7431  1.7894
17493TIP3   OH273893   6.379   1.026  15.640 -0.4396 -0.3793  0.7090
17493TIP3    H173894   6.328   1.049  15.718  0.0796 -1.8430  1.4943
17493TIP3    H273895   6.422   0.943  15.663  0.9485 -0.0317 -0.5636
17494TIP3   OH273896   0.841   5.637  17.028  0.1168  0.2267 -0.4210
17494TIP3    H173897   0.884   5.556  17.001 -2.0976 -1.7070  1.6483
17494TIP3    H273898   0.766   5.644  16.970 -1.2819 -0.7437  1.2436
17495TIP3   OH273899   1.422   0.139  12.137  0.0749  0.4374 -0.3655
17495TIP3    H173900   1.437   0.216  12.193 -0.5575  1.0947 -1.0857
17495TIP3    H273901   1.332   0.150  12.106 -0.6962 -1.6083  1.0804
17496TIP3   OH273902   4.179   0.078   0.648  0.1489 -0.0072  0.0300
17496TIP3    H173903   4.202   0.165   0.683  0.1210 -0.2682  0.7165
17496TIP3    H273904   4.131   0.096   0.568 -1.1948  0.6626  0.9629
17497TIP3   OH273905   2.836   3.798   1.941  0.2603 -0.4673 -0.2680
17497TIP3    H173906   2.753   3.782   1.986  0.3734 -1.5346 -0.4354
17497TIP3    H273907   2.829   3.750   1.859  1.2697 -1.0313 -0.0255
17498TIP3   OH273908   1.411   0.877   1.167  0.5094  0.2616 -0.0210
17498TIP3    H173909   1.403   0.877   1.071  0.9996 -0.0889 -0.0646
17498TIP3    H273910   1.322   0.895   1.198 -0.2332 -2.2029 -0.5209
17499TIP3   OH273911   5.277   4.686   5.808 -0.3015 -0.3526 -0.5335
17499TIP3    H173912   5.293   4.720   5.720 -1.8544 -0.0202 -0.6996
17499TIP3    H273913   5.298   4.593   5.802 -0.6018 -0.3767 -1.3140
17500TIP3   OH273914   4.325   5.135   4.517  0.3324  0.6231 -0.0436
17500TIP3    H173915   4.378   5.105   4.443  1.0672  0.1142  0.6762
17500TIP3    H273916   4.235   5.116   4.491  0.6558 -0.4493 -0.4003
17501TIP3   OH273917   1.817   3.010   0.085 -0.1848 -0.1426 -0.3629
17501TIP3    H173918   1.860   2.928   0.106 -0.1414  0.1782  0.8292
17501TIP3    H273919   1.879   3.056   0.027  0.6360 -0.1179  0.5313
17502TIP3   OH273920   2.242   6.171  13.465 -0.2676  0.1969 -0.0854
17502TIP3    H173921   2.329   6.191  13.498 -0.6613  1.2700  0.3306
17502TIP3    H273922   2.189   6.247  13.488 -2.0065 -1.6250  2.3065
17503TIP3   OH273923   0.475   1.412   4.520 -0.5109 -0.6264 -0.5888
17503TIP3    H173924   0.432   1.492   4.492  1.2690  1.4659  2.3318
17503TIP3    H273925   0.413   1.370   4.580 -0.6164 -0.3069 -0.4726
17504TIP3   OH273926   6.667   4.988  13.003 -0.3196  0.2565  0.1831
17504TIP3    H173927   6.720   4.914  12.974 -0.8866  0.7146 -2.1454
17504TIP3    H273928   6.589   4.948  13.041 -0.1526 -0.3631 -0.1137
17505TIP3   OH273929   6.766   2.751   4.119 -0.4819 -1.1037  0.5243
17505TIP3    H173930   6.710   2.751   4.197 -0.3256  1.0219  0.6665
17505TIP3    H273931   6.778   2.659   4.099 -2.8328 -1.6478  1.3690
17506TIP3   OH273932   3.591   1.373   2.992 -0.2572 -0.3134  0.2661
17506TIP3    H173933   3.580   1.422   2.910 -0.6939  0.1975  0.6306
17506TIP3    H273934   3.684   1.352   2.994 -0.1843 -0.0655 -0.2160
17507TIP3   OH273935   3.770   1.596   2.166  0.1942  0.0624  0.1498
17507TIP3    H173936   3.851   1.605   2.217 -0.0056 -0.1706  0.5185
17507TIP3    H273937   3.723   1.678   2.181  1.1390  0.9314 -1.4779
17508TIP3   OH273938   6.722   5.205  11.100  0.3290 -0.5948  0.2001
17508TIP3    H173939   6.704   5.266  11.029  0.1571  1.1535  1.7138
17508TIP3    H273940   6.673   5.126  11.076  0.3784 -0.0855 -1.6682
17509TIP3   OH273941   5.576   5.953   5.627  0.2155  0.2303 -0.2795
17509TIP3    H173942   5.542   5.996   5.706 -1.6823  0.0799 -1.0073
17509TIP3    H273943   5.670   5.970   5.630  0.1495  0.3711  1.9423
17510TIP3   OH273944   1.504   4.018   4.144 -0.2956  0.5101  0.3687
17510TIP3    H173945   1.556   4.041   4.222  2.4613 -0.6634 -1.0569
17510TIP3    H273946   1.467   4.101   4.115  0.3214  1.3032  1.7653
17511TIP3   OH273947   4.771   1.985   0.035 -0.1211  0.4671  0.0211
17511TIP3    H173948   4.828   1.967   0.110  0.0952 -1.1368 -0.5134
17511TIP3    H273949   4.712   1.910   0.031  0.8986 -0.2609 -2.3649
17512TIP3   OH273950   4.615   5.572   4.239  0.1821  0.0224  0.7685
17512TIP3    H173951   4.681   5.567   4.170  0.5043 -0.2501  1.0944
17512TIP3    H273952   4.540   5.525   4.203  0.6118 -0.7761  0.8924
17513TIP3   OH273953   1.246   6.718  14.683  0.0982  0.6117  0.1592
17513TIP3    H173954   1.306   6.650  14.654  0.5904  1.2917 -0.4587
17513TIP3    H273955   1.180   6.723  14.613 -0.3794  0.2276  0.5814
17514TIP3   OH273956   4.826   3.492  11.950  0.2584 -0.0048 -0.3361
17514TIP3    H173957   4.739   3.520  11.979  0.1703 -0.0686 -0.5404
17514TIP3    H273958   4.811   3.411  11.902  0.3532  0.3377 -0.9481
17515TIP3   OH273959   1.670   2.825  10.931  0.6035  0.2136 -0.4996
17515TIP3    H173960   1.724   2.796  11.004  1.3451  3.0662  0.1363
17515TIP3    H273961   1.586   2.847  10.971 -0.3568 -2.0723 -1.1566
17516TIP3   OH273962   2.372   3.937  16.201  0.1855 -0.7032  0.1242
17516TIP3    H173963   2.422   3.987  16.137  1.7699 -1.3295  0.8372
17516TIP3    H273964   2.364   3.995  16.277  1.8379 -1.4265  0.8720
17517TIP3   OH273965   2.731   0.520  14.355 -0.3118 -0.1338  0.7699
17517TIP3    H173966   2.673   0.455  14.395 -0.6554 -0.9340 -0.9905
17517TIP3    H273967   2.816   0.477  14.351 -1.0568 -1.4755 -2.6222
17518TIP3   OH273968   3.339   1.342   3.936  0.2289 -0.1684  0.0735
17518TIP3    H173969   3.277   1.333   4.008  0.4710 -0.2232  0.2721
17518TIP3    H273970   3.340   1.256   3.895  0.4532 -0.2692  0.2933
17519TIP3   OH273971   2.199   2.207   1.117  0.3890 -0.4885 -0.2363
17519TIP3    H173972   2.220   2.236   1.206  0.7469 -0.8493 -0.2034
17519TIP3    H273973   2.234   2.119   1.112  2.9034  0.5438 -1.6590
17520TIP3   OH273974   1.750   4.381  16.628  0.6486  0.2973  0.1429
17520TIP3    H173975   1.751   4.326  16.549  1.4426  0.9741 -0.3236
17520TIP3    H273976   1.840   4.409  16.639  0.5156  0.3203  1.2278
17521TIP3   OH273977   1.448   0.254   1.628  0.1194  0.0433 -0.1595
17521TIP3    H173978   1.493   0.171   1.646 -0.6661 -0.8317 -2.0518
17521TIP3    H273979   1.519   0.318   1.617  0.7758 -0.6003  0.3060
17522TIP3   OH273980   2.003   4.822  11.798  0.4203  0.3268  0.7969
17522TIP3    H173981   1.919   4.858  11.827  1.4076  2.2712  1.3445
17522TIP3    H273982   2.024   4.870  11.719  0.2619 -1.2993 -0.2490
17523TIP3   OH273983   5.111   6.427  11.129 -0.1044 -0.2971 -0.0095
17523TIP3    H173984   5.036   6.453  11.076 -0.9671 -2.4366  0.1424
17523TIP3    H273985   5.079   6.426  11.219  0.4413 -0.0611  0.1955
17524TIP3   OH273986   5.845   2.494  16.689 -0.4099 -0.4580 -0.3604
17524TIP3    H173987   5.827   2.403  16.714 -0.3590 -0.5747 -0.7393
17524TIP3    H273988   5.913   2.523  16.749  0.0514 -0.8870 -0.6688
17525TIP3   OH273989   4.388   3.481  13.875 -0.0853  0.0243  0.0455
17525TIP3    H173990   4.466   3.432  13.848  0.1138  0.4676 -0.1926
17525TIP3    H273991   4.315   3.433  13.836  0.1434  0.1897 -0.5935
17526TIP3   OH273992   3.531   0.000  14.290  0.2475  0.1926  0.0197
17526TIP3    H173993   3.551  -0.089  14.320  0.4756  0.7889  1.7249
17526TIP3    H273994   3.604   0.053  14.322 -0.9734  1.3503  0.9711
17527TIP3   OH273995   3.038   5.470   5.137  0.3659 -0.2663  0.0092
17527TIP3    H173996   2.960   5.525   5.130 -0.5812 -1.4342  1.0408
17527TIP3    H273997   3.080   5.477   5.051 -0.0866  1.5117 -0.1013
17528TIP3   OH273998   0.947   3.922   3.589  0.9171  0.1852  0.3005
17528TIP3    H173999   0.956   3.974   3.509 -0.0433  0.2705  0.2515
17528TIP3    H274000   0.853   3.909   3.599  1.1653 -2.1891 -0.1038
17529TIP3   OH274001   5.414   1.459  16.086 -0.0802 -0.2275  0.1754
17529TIP3    H174002   5.377   1.533  16.134 -1.3750 -0.3493 -0.6016
17529TIP3    H274003   5.499   1.489  16.056 -0.3368  0.7302  0.3915
17530TIP3   OH274004   5.850   1.138   2.432  0.4449  1.1150 -0.4638
17530TIP3    H174005   5.925   1.122   2.489 -0.3730  0.9996  0.6001
17530TIP3    H274006   5.850   1.232   2.417  1.4866  0.9694 -1.4409
17531TIP3   OH274007   5.459   3.756  14.955 -0.0227 -0.3964 -0.2625
17531TIP3    H174008   5.398   3.692  14.992  0.4276 -0.5059  0.2912
17531TIP3    H274009   5.410   3.795  14.882 -0.7167 -0.5536  0.1083
17532TIP3   OH274010   4.714   3.125  15.688 -0.2837  0.6157  0.4740
17532TIP3    H174011   4.651   3.054  15.690  0.9409 -0.5018 -0.1650
17532TIP3    H274012   4.731   3.144  15.781  0.4849 -0.9305  0.6656
17533TIP3   OH274013   3.183   6.607  12.671 -0.2865  0.0299 -0.2734
17533TIP3    H174014   3.148   6.593  12.759  0.4689  0.0657  0.0400
17533TIP3    H274015   3.278   6.611  12.683 -0.3180  3.0107 -0.6700
17534TIP3   OH274016   1.880   0.039  14.029 -0.0680 -0.6318  0.0550
17534TIP3    H174017   1.900   0.082  14.112 -1.9740 -1.0895  0.7588
17534TIP3    H274018   1.822  -0.033  14.052 -1.1736 -0.3446 -1.7571
17535TIP3   OH274019   3.753   1.113   5.552  0.0000 -0.5622 -0.2661
17535TIP3    H174020   3.788   1.028   5.524 -1.7537 -1.6156  0.6640
17535TIP3    H274021   3.733   1.100   5.645 -3.5730 -0.2450 -0.9473
17536TIP3   OH274022   5.215   0.695  15.648  0.4422  0.2693 -0.7785
17536TIP3    H174023   5.203   0.768  15.708  1.2834  0.2803 -0.6217
17536TIP3    H274024   5.129   0.653  15.644  0.3366  0.3721  0.2954
17537TIP3   OH274025   3.093   6.564   6.052 -0.1423  0.3569  0.2595
17537TIP3    H174026   3.010   6.598   6.017 -0.6439 -1.1037  0.0060
17537TIP3    H274027   3.160   6.604   5.996 -0.8517 -0.6961 -1.3926
17538TIP3   OH274028   5.841   0.198   5.155  0.2165  0.0771 -0.1060
17538TIP3    H174029   5.882   0.156   5.079 -1.4817  1.0373 -1.5771
17538TIP3    H274030   5.820   0.286   5.125 -0.8097  0.3449  1.3693
17539TIP3   OH274031   4.126   4.667   6.106 -0.4758 -0.1978 -0.0975
17539TIP3    H174032   4.196   4.649   6.168 -1.0420  1.3135  1.0007
17539TIP3    H274033   4.056   4.606   6.130  0.0658 -0.9964 -0.5400
17540TIP3   OH274034   6.249   6.529  15.054 -0.2484 -0.0771  0.0045
17540TIP3    H174035   6.207   6.596  15.000 -0.9831 -0.9155 -0.4642
17540TIP3    H274036   6.334   6.567  15.077  0.1492  0.2259 -1.8841
17541TIP3   OH274037   6.747   6.071  17.163  0.7801  0.6610 -0.1047
17541TIP3    H174038   6.683   6.070  17.234  1.3661  1.6323  0.4448
17541TIP3    H274039   6.694   6.070  17.083  0.1060  0.5028  0.3407
17542TIP3   OH274040   4.385   3.767  16.582 -0.1014  0.2693  0.7669
17542TIP3    H174041   4.324   3.835  16.610 -1.4633 -0.2284 -0.9188
17542TIP3    H274042   4.341   3.685  16.604  0.0625 -0.0872 -0.2065
17543TIP3   OH274043   3.303   6.750   5.968 -0.5597 -0.2204  0.3054
17543TIP3    H174044   3.381   6.803   5.951  0.6472 -1.8454  0.7503
17543TIP3    H274045   3.268   6.784   6.050 -0.9032  1.1554 -0.3813
17544TIP3   OH274046   1.332   4.993   1.474 -0.5800  0.0292  0.0259
17544TIP3    H174047   1.285   5.070   1.442 -0.2404 -0.1279 -0.8447
17544TIP3    H274048   1.275   4.919   1.453 -1.1663  0.0825  1.3654
17545TIP3   OH274049   4.586   2.867  15.271  0.0018  0.0068  0.0247
17545TIP3    H174050   4.540   2.881  15.189  0.7791 -1.1622 -0.6260
17545TIP3    H274051   4.526   2.814  15.324 -0.7540  1.2710  0.4713
17546TIP3   OH274052   6.779   0.315  14.120  0.2972  0.0702  0.1631
17546TIP3    H174053   6.730   0.393  14.149  0.6905  0.1037  0.7444
17546TIP3    H274054   6.721   0.242  14.138  0.1901  0.1707  0.2250
17547TIP3   OH274055   1.071   0.535  16.594 -0.2653  0.0984 -0.0069
17547TIP3    H174056   0.985   0.526  16.637 -0.5670 -0.0030 -0.6223
17547TIP3    H274057   1.075   0.627  16.568  0.0903  0.2522  0.6039
17548TIP3   OH274058   0.247   6.786  15.475 -0.2359 -0.0329 -0.1283
17548TIP3    H174059   0.310   6.799  15.404  0.2140  1.3792  0.5125
17548TIP3    H274060   0.291   6.821  15.553 -1.2577 -0.3291  0.5895
17549TIP3   OH274061   3.404   5.900   0.286  0.4359 -0.3068 -0.1626
17549TIP3    H174062   3.488   5.922   0.247 -0.0326  2.4076  0.2909
17549TIP3    H274063   3.340   5.954   0.239 -0.8148 -0.9198  0.7871
17550TIP3   OH274064   0.645   2.750  13.554 -0.0692  0.7977 -0.5248
17550TIP3    H174065   0.652   2.658  13.580 -0.1257  0.7253 -0.7682
17550TIP3    H274066   0.736   2.781  13.551  0.0858  0.2226 -2.3586
17551TIP3   OH274067   6.667   5.589  15.825  0.0537  0.1480 -0.6020
17551TIP3    H174068   6.743   5.623  15.777  0.1146 -1.5215 -1.7149
17551TIP3    H274069   6.594   5.642  15.793  0.3616  0.1544 -1.3119
17552TIP3   OH274070   6.561   1.058  13.330 -1.0156 -0.8281 -0.2212
17552TIP3    H174071   6.485   1.048  13.273 -0.7175 -0.4116 -0.6846
17552TIP3    H274072   6.604   1.138  13.300 -0.9378 -0.5305  0.6697
17553TIP3   OH274073   3.010   4.628  16.764  0.0076 -0.2614 -0.1357
17553TIP3    H174074   2.970   4.701  16.811 -0.7659  0.2123 -1.5371
17553TIP3    H274075   2.958   4.618  16.685  1.1725 -1.2135 -0.7978
17554TIP3   OH274076   2.088   5.223  14.090 -0.0601  0.4671  0.7776
17554TIP3    H174077   2.081   5.210  14.185  1.0931  1.7373  1.0614
17554TIP3    H274078   2.002   5.255  14.064 -0.0333  1.2364  1.6045
17555TIP3   OH274079   4.227   5.198  13.431 -0.5066 -0.0046  0.2086
17555TIP3    H174080   4.142   5.155  13.441 -1.3653  1.5995  0.0227
17555TIP3    H274081   4.226   5.232  13.341 -0.0813  0.8936  0.5395
17556TIP3   OH274082   6.779   2.887  16.930  0.0784  0.3435 -0.6055
17556TIP3    H174083   6.706   2.829  16.907 -0.1945  0.6157 -0.4355
17556TIP3    H274084   6.757   2.970  16.887 -0.9989  1.2029  1.5319
17557TIP3   OH274085   6.068   6.157   5.257  0.2996 -0.5110 -0.0133
17557TIP3    H174086   6.003   6.105   5.303  0.4654 -1.6092 -1.0075
17557TIP3    H274087   6.018   6.226   5.213 -0.2950 -1.9176 -1.5489
17558TIP3   OH274088   4.593   2.601  14.297 -0.5733 -0.1770  0.0321
17558TIP3    H174089   4.541   2.677  14.272  0.8741  1.0117  0.5695
17558TIP3    H274090   4.631   2.569  14.215 -0.4762  0.2230 -0.0792
17559TIP3   OH274091   4.466   0.621  13.218  0.2467  0.0603 -0.4192
17559TIP3    H174092   4.373   0.597  13.220  0.3067 -0.1568 -0.1116
17559TIP3    H274093   4.512   0.538  13.227  0.5264 -0.1985 -3.7987
17560TIP3   OH274094   5.092   4.023   0.135 -0.1022 -0.2257 -0.2984
17560TIP3    H174095   5.132   3.972   0.205  1.5074  1.3033 -0.0638
17560TIP3    H274096   5.078   4.110   0.174 -3.3592 -0.6075 -0.4802
17561TIP3   OH274097   1.760   1.850  11.375 -0.1796  0.1302 -0.0411
17561TIP3    H174098   1.747   1.767  11.420 -1.2134 -0.7962 -1.9878
17561TIP3    H274099   1.853   1.849  11.350 -0.5627 -1.2024 -1.4837
17562TIP3   OH274100   3.586   4.588   3.082 -0.0224 -0.2208  0.4223
17562TIP3    H174101   3.615   4.546   3.001 -0.7251  0.5629 -0.2487
17562TIP3    H274102   3.616   4.529   3.152  0.6256 -0.8806 -0.3993
17563TIP3   OH274103   4.507   5.573   0.072 -0.0100 -0.1074  0.2969
17563TIP3    H174104   4.498   5.613   0.158 -0.8552 -0.9458  0.6132
17563TIP3    H274105   4.594   5.600   0.041 -0.4707  1.7752  0.5803
17564TIP3   OH274106   6.731   0.493   3.083  0.0866 -0.2166  0.2399
17564TIP3    H174107   6.782   0.420   3.049 -0.0390 -0.2481  0.1188
17564TIP3    H274108   6.791   0.539   3.141 -0.2570 -1.2264  1.4153
17565TIP3   OH274109   1.087   3.126   0.364  0.1896 -0.5925 -0.0498
17565TIP3    H174110   1.000   3.146   0.399  0.4532 -0.5392  0.5771
17565TIP3    H274111   1.071   3.096   0.274 -0.5649 -1.5467  0.3963
17566TIP3   OH274112   3.764   5.355  14.983  0.3529 -0.6676  0.0162
17566TIP3    H174113   3.820   5.311  15.047  2.3928 -0.2562 -1.4386
17566TIP3    H274114   3.762   5.297  14.907 -1.4780 -0.8196  0.1367
17567TIP3   OH274115   2.713   3.822  12.382  0.6985 -0.0813  0.0446
17567TIP3    H174116   2.793   3.781  12.413  0.1186 -1.8692 -0.8032
17567TIP3    H274117   2.657   3.750  12.354 -1.5874  1.0530  1.4917
17568TIP3   OH274118   3.519   4.488   0.377 -0.4765  0.2428 -0.0121
17568TIP3    H174119   3.518   4.580   0.403 -2.1946  0.7263 -1.7159
17568TIP3    H274120   3.531   4.490   0.282 -0.6134 -1.2896 -0.0661
17569TIP3   OH274121   3.944   1.068   3.461 -0.2922 -0.3646  0.1441
17569TIP3    H174122   3.993   1.143   3.494 -0.8077 -1.7774  4.5485
17569TIP3    H274123   3.989   1.044   3.380  0.5907  3.9000 -0.7614
17570TIP3   OH274124   6.611   0.964   5.448  0.6043  0.2688 -0.3737
17570TIP3    H174125   6.632   1.052   5.417  2.7278 -0.3567 -0.7988
17570TIP3    H274126   6.597   0.975   5.542  1.2647  1.0178 -0.3497
17571TIP3   OH274127   5.107   6.149  13.108 -0.1998  0.0471  0.0363
17571TIP3    H174128   5.037   6.214  13.104  0.6205  1.0075  0.7676
17571TIP3    H274129   5.099   6.111  13.195  1.0783  1.2118  0.6852
17572TIP3   OH274130   3.816   4.305  13.259 -0.2701  0.3950 -0.2477
17572TIP3    H174131   3.851   4.269  13.340  1.3536  1.8094 -0.3057
17572TIP3    H274132   3.747   4.365  13.287 -1.3736 -0.9373 -0.0495
17573TIP3   OH274133   5.184   6.460   3.079  0.1997 -0.0568 -0.4009
17573TIP3    H174134   5.108   6.502   3.119  0.8125  0.8020 -0.1366
17573TIP3    H274135   5.254   6.469   3.143  1.2145  1.4370 -1.6863
17574TIP3   OH274136   2.283   6.387   4.900 -0.3182 -0.0218 -0.8176
17574TIP3    H174137   2.331   6.368   4.980 -0.1390 -0.3280 -0.9976
17574TIP3    H274138   2.305   6.315   4.841 -0.1882  0.3760 -1.2563
17575TIP3   OH274139   1.294   1.512   4.567  0.1042  0.1886  0.4844
17575TIP3    H174140   1.202   1.497   4.548 -0.0316  0.7919  0.6314
17575TIP3    H274141   1.295   1.541   4.658  0.2516  1.7697  0.0063
17576TIP3   OH274142   5.652   3.657  12.525  0.6640 -0.4283  0.2804
17576TIP3    H174143   5.739   3.617  12.519 -0.8524 -3.7073 -0.9743
17576TIP3    H274144   5.614   3.644  12.438 -0.9504  1.2929  0.7102
17577TIP3   OH274145   1.851   1.283  16.678  0.0281 -0.0094  0.0522
17577TIP3    H174146   1.927   1.309  16.627  2.0185 -0.9352  2.4173
17577TIP3    H274147   1.856   1.187  16.682 -0.4944 -0.0031  1.3260
17578TIP3   OH274148   2.371   4.012  15.780  0.6259 -0.2184 -1.1970
17578TIP3    H174149   2.354   3.922  15.751 -0.7018 -0.5790  0.6405
17578TIP3    H274150   2.428   4.002  15.857 -2.2575  0.3120  1.0575
17579TIP3   OH274151   4.649   0.188  10.684  0.3509 -0.0211 -0.1920
17579TIP3    H174152   4.645   0.104  10.730  0.5284  0.5128  0.8220
17579TIP3    H274153   4.569   0.233  10.709  0.5524  0.3591 -0.2253
17580TIP3   OH274154   5.856   3.569   4.018  0.0117  0.3769  0.4240
17580TIP3    H174155   5.790   3.611   3.964  0.8995  2.2513  0.7702
17580TIP3    H274156   5.806   3.528   4.089 -0.5947  5.3419  3.0820
17581TIP3   OH274157   3.444   3.879  10.536  0.0988  0.1247 -0.1522
17581TIP3    H174158   3.364   3.916  10.572 -0.0160 -1.6335  1.4420
17581TIP3    H274159   3.494   3.955  10.505 -1.7207  1.3067 -0.2587
17582TIP3   OH274160   2.556   1.786  15.913 -0.6406 -0.1867  0.5174
17582TIP3    H174161   2.650   1.771  15.915 -0.3015  0.8828 -3.2014
17582TIP3    H274162   2.546   1.880  15.930 -0.6140  0.5893 -3.2420
17583TIP3   OH274163   0.193   6.582   2.315 -0.5885  0.6825 -0.1502
17583TIP3    H174164   0.282   6.550   2.300 -1.6909 -2.5297 -0.1202
17583TIP3    H274165   0.141   6.540   2.247 -2.4226  1.0591  1.0010
17584TIP3   OH274166   4.705   1.193  13.575  0.2067 -0.4923  0.1425
17584TIP3    H174167   4.720   1.116  13.520  0.5044 -0.6562  0.4538
17584TIP3    H274168   4.780   1.195  13.634 -0.6343 -0.9242  1.2456
17585TIP3   OH274169   6.668   2.667   3.363 -0.3199 -0.1332  0.4801
17585TIP3    H174170   6.586   2.702   3.398  0.0660  0.1509  1.1156
17585TIP3    H274171   6.646   2.639   3.274 -1.3465 -0.9555  0.9776
17586TIP3   OH274172   3.792   3.911   4.316  0.2819  0.2587 -0.7349
17586TIP3    H174173   3.887   3.918   4.328  0.2190 -0.3977  0.1911
17586TIP3    H274174   3.758   3.996   4.344  0.7117  1.0265 -2.4584
17587TIP3   OH274175   6.194   2.718   3.731 -0.3865  0.7185 -0.2095
17587TIP3    H174176   6.122   2.743   3.673 -0.9614  0.7450  0.5034
17587TIP3    H274177   6.235   2.801   3.755  0.5260  0.6348 -1.4167
17588TIP3   OH274178   5.767   4.307   2.156 -0.0125 -0.0544  0.3258
17588TIP3    H174179   5.820   4.370   2.205  1.5041 -0.6778 -0.4783
17588TIP3    H274180   5.824   4.232   2.145 -1.4051 -1.1167  0.2390
17589TIP3   OH274181   5.183   3.619   0.113  0.0465  0.5860 -0.3306
17589TIP3    H174182   5.247   3.658   0.053  1.3221  0.8016  1.1441
17589TIP3    H274183   5.219   3.533   0.133 -1.3656 -0.2647 -1.3958
17590TIP3   OH274184   1.968   0.517   4.153 -0.2198  0.1443 -0.9372
17590TIP3    H174185   1.927   0.442   4.196 -1.9021  2.0639  0.9317
17590TIP3    H274186   2.026   0.554   4.221  1.3009  0.0216 -2.1376
17591TIP3   OH274187   1.192   5.438  12.210 -0.2038  0.1850  0.3048
17591TIP3    H174188   1.238   5.354  12.216  0.4064  0.4651 -0.4294
17591TIP3    H274189   1.260   5.501  12.185 -0.9360  0.6570 -0.5071
17592TIP3   OH274190   0.751   5.641  15.314 -0.3185 -0.2043  0.3999
17592TIP3    H174191   0.823   5.704  15.318 -0.6749  0.2359 -0.0474
17592TIP3    H274192   0.794   5.556  15.306  0.1497  0.1120 -0.5232
17593TIP3   OH274193   4.745   3.509   4.272  0.7718 -0.2881 -0.0200
17593TIP3    H174194   4.690   3.436   4.244  0.7025 -0.1574 -0.2273
17593TIP3    H274195   4.812   3.469   4.327 -0.3464 -0.2909  1.3970
17594TIP3   OH274196   4.740   6.700  16.251 -0.2416 -0.4165 -0.1531
17594TIP3    H174197   4.704   6.770  16.197  1.1817  0.7204  0.3371
17594TIP3    H274198   4.757   6.629  16.190 -0.4541  0.1428 -0.8729
17595TIP3   OH274199   3.257   4.087  13.931  0.0786  0.3804 -0.7334
17595TIP3    H174200   3.191   4.062  13.995 -0.4490 -0.5796 -1.6428
17595TIP3    H274201   3.284   4.175  13.958  2.0633 -1.1680  2.5840
17596TIP3   OH274202   1.995   2.288  12.690  0.2019  0.0522 -0.1077
17596TIP3    H174203   1.948   2.356  12.738  0.2704 -0.1808  0.2902
17596TIP3    H274204   1.964   2.297  12.600 -0.5939 -0.0829  0.1499
17597TIP3   OH274205   0.041   1.892  13.984 -0.6997  0.5654  0.0145
17597TIP3    H174206   0.042   1.907  13.890  0.2644 -0.4169 -0.1439
17597TIP3    H274207  -0.051   1.893  14.008 -1.0953 -1.5321 -1.3373
17598TIP3   OH274208   6.071   2.040  14.510 -0.2429 -0.0634 -0.0155
17598TIP3    H174209   6.108   2.122  14.478 -1.6442 -0.3218 -2.3573
17598TIP3    H274210   6.140   2.003  14.566  0.6062  2.4224  0.6437
17599TIP3   OH274211   3.178   6.639  12.137 -0.0357  0.5093  0.4391
17599TIP3    H174212   3.109   6.698  12.167 -0.4749 -0.5597  1.5952
17599TIP3    H274213   3.258   6.673  12.177 -0.3631  0.0531  1.5050
17600TIP3   OH274214   4.662   0.554  13.858  0.1562 -0.2376 -0.1558
17600TIP3    H174215   4.580   0.589  13.894  0.1161  1.7011 -1.9911
17600TIP3    H274216   4.724   0.626  13.865  0.9991 -0.8628 -1.0863
17601TIP3   OH274217   3.330   5.413   5.321  0.0744  0.4632  0.2100
17601TIP3    H174218   3.253   5.370   5.286  0.3773 -0.3867  0.5800
17601TIP3    H274219   3.403   5.355   5.299  0.3208  0.1035  1.8600
17602TIP3   OH274220   5.922   6.014  15.970 -0.8125  0.3769  0.0902
17602TIP3    H174221   5.942   6.107  15.963 -1.3331  0.3983 -1.2995
17602TIP3    H274222   5.833   6.011  16.006 -1.0035  0.4388 -0.3677
17603TIP3   OH274223   5.820   4.230   1.238 -0.0933  0.4365  0.0673
17603TIP3    H174224   5.879   4.303   1.259  1.3859 -0.6920 -0.0495
17603TIP3    H274225   5.866   4.182   1.170 -1.6335  0.0797 -0.7363
17604TIP3   OH274226   3.827   3.210  11.711  0.2602 -1.2849  0.5205
17604TIP3    H174227   3.853   3.121  11.733  0.7028 -1.1640  0.4969
17604TIP3    H274228   3.889   3.237  11.642 -1.2908 -1.7860 -1.1226
17605TIP3   OH274229   1.466   1.844  14.856  0.5006 -0.1768  0.3252
17605TIP3    H174230   1.395   1.860  14.794  0.5099 -0.8140  0.1531
17605TIP3    H274231   1.526   1.918  14.843  1.0215 -0.8504 -1.1507
17606TIP3   OH274232   0.284   1.932   1.834 -0.4887 -1.1826 -0.0880
17606TIP3    H174233   0.231   1.853   1.828 -0.8517 -0.8623 -1.0745
17606TIP3    H274234   0.221   2.004   1.832 -0.0751 -0.8279 -0.4656
17607TIP3   OH274235   5.543   6.090  11.385 -0.5738  0.4155  0.1817
17607TIP3    H174236   5.469   6.152  11.392  0.0153  0.9679  1.7245
17607TIP3    H274237   5.577   6.104  11.297 -0.5263  2.2171  0.4691
17608TIP3   OH274238   6.115   0.007   0.942  0.4671 -0.1807 -0.2131
17608TIP3    H174239   6.188  -0.055   0.936 -0.0905 -0.7608 -1.3079
17608TIP3    H274240   6.139   0.078   0.882  0.9844  0.5469  0.8404
17609TIP3   OH274241   0.322   3.736  17.200  0.1201 -0.3077  0.0585
17609TIP3    H174242   0.383   3.665  17.178  0.9135  0.3837 -0.0199
17609TIP3    H274243   0.333   3.799  17.128  0.8665  0.7931  1.1166
17610TIP3   OH274244   5.356   2.722  16.697  0.5225 -0.2912  1.1373
17610TIP3    H174245   5.313   2.713  16.782 -1.1914  1.4360  0.4998
17610TIP3    H274246   5.395   2.810  16.699  0.4585 -0.2286  0.1464
17611TIP3   OH274247   1.418   3.275  14.023  0.7433 -0.7094 -0.6103
17611TIP3    H174248   1.469   3.241  14.096  0.4131  1.0065  0.4438
17611TIP3    H274249   1.327   3.264  14.050  0.6297  1.2482 -0.1124
17612TIP3   OH274250   2.894   3.814   4.518 -0.3113  0.4404 -0.0669
17612TIP3    H174251   2.883   3.909   4.514 -0.7825  0.3594 -0.8108
17612TIP3    H274252   2.978   3.798   4.475 -1.5753  0.2803 -2.5419
17613TIP3   OH274253   6.346   2.216   4.419 -0.4329 -0.1960 -0.2540
17613TIP3    H174254   6.335   2.295   4.366  1.7789  0.5674  0.3954
17613TIP3    H274255   6.340   2.144   4.356  0.5331  0.6327 -1.3168
17614TIP3   OH274256   4.985   5.211   1.628  1.2734  0.5687  0.0956
17614TIP3    H174257   4.986   5.279   1.560  3.2170  0.2386 -0.2319
17614TIP3    H274258   5.062   5.158   1.610 -0.3185 -1.8637  0.2431
17615TIP3   OH274259   3.248   4.723   0.250 -0.1804  0.2897  0.2226
17615TIP3    H174260   3.165   4.738   0.206  0.2766  2.6748  0.1258
17615TIP3    H274261   3.266   4.630   0.235 -1.1194  0.5196 -2.6793
17616TIP3   OH274262   5.967   0.026   1.599 -0.9107 -0.4720  0.8800
17616TIP3    H174263   5.969   0.121   1.607 -1.0958 -0.2861 -0.9054
17616TIP3    H274264   5.965  -0.007   1.689 -2.2813  1.2395  1.4942
17617TIP3   OH274265   2.470   1.906  13.307  0.1060  0.0693  0.5255
17617TIP3    H174266   2.446   1.957  13.229  2.4794  1.8343  0.9048
17617TIP3    H274267   2.537   1.845  13.275  0.9451  0.6683  1.1086
17618TIP3   OH274268   3.851   6.371   2.945  0.2185  0.2526 -0.0058
17618TIP3    H174269   3.883   6.454   2.981 -0.8189  1.0851 -0.9653
17618TIP3    H274270   3.786   6.341   3.009  0.5798  0.1824  0.3323
17619TIP3   OH274271   5.313   0.014  15.644 -0.4907 -0.1359 -0.3362
17619TIP3    H174272   5.253  -0.036  15.588 -1.5430  0.2966  0.3839
17619TIP3    H274273   5.271   0.100  15.652 -1.5034 -0.8928  2.9615
17620TIP3   OH274274   2.989   0.065  12.334  0.4407  0.4715  0.2715
17620TIP3    H174275   2.934   0.131  12.375  0.0444 -0.2802  0.9775
17620TIP3    H274276   2.965  -0.017  12.378  0.3754 -0.2715 -1.1114
17621TIP3   OH274277   3.914   5.159   0.769 -0.1296  0.9742 -0.0957
17621TIP3    H174278   3.912   5.179   0.863 -2.9550  0.9157 -0.1051
17621TIP3    H274279   3.858   5.083   0.760 -0.6833  1.5929 -1.9619
17622TIP3   OH274280   5.756   1.618   5.494  0.2531 -0.2093  0.1059
17622TIP3    H174281   5.701   1.608   5.416 -0.6378 -2.1477  0.9642
17622TIP3    H274282   5.699   1.596   5.567  1.4280  0.4197  1.2336
17623TIP3   OH274283   3.996   0.984  11.643  0.1735 -0.5981 -0.2780
17623TIP3    H174284   4.068   1.041  11.615 -1.7023  0.9910 -1.9715
17623TIP3    H274285   3.992   0.996  11.738  0.0826  1.8030 -0.5581
17624TIP3   OH274286   4.330   4.946   2.230 -0.5988  0.3977 -0.3706
17624TIP3    H174287   4.268   4.896   2.177  0.5800  0.0319 -1.4397
17624TIP3    H274288   4.397   4.883   2.256  1.8849  1.6852 -3.2553
17625TIP3   OH274289   4.883   3.807  14.943 -0.0597 -0.4603 -0.2947
17625TIP3    H174290   4.806   3.863  14.934 -0.3726 -0.7075  0.7813
17625TIP3    H274291   4.955   3.860  14.909 -0.0020  1.4272  2.5331
17626TIP3   OH274292   3.198   3.163   4.140 -0.0722  0.3564 -0.2294
17626TIP3    H174293   3.212   3.072   4.166 -1.0468  1.0277  2.8469
17626TIP3    H274294   3.106   3.179   4.160  0.2963  2.2243  0.0295
17627TIP3   OH274295   1.552   4.481  10.443  0.2021 -0.3760  0.0797
17627TIP3    H174296   1.621   4.453  10.503 -0.2359 -1.9079 -0.1248
17627TIP3    H274297   1.493   4.533  10.498  0.6148 -0.4675  0.6179
17628TIP3   OH274298   0.184   4.720  15.500  0.0502 -0.2943  0.4177
17628TIP3    H174299   0.275   4.700  15.519 -0.3592 -1.0987  1.6267
17628TIP3    H274300   0.168   4.802  15.546  0.3372  0.1954 -0.3435
17629TIP3   OH274301   5.119   3.796  13.493  0.2667  0.1485 -0.2235
17629TIP3    H174302   5.156   3.759  13.573  2.4566 -0.6456 -1.5727
17629TIP3    H274303   5.146   3.888  13.493  2.0424 -0.3573 -1.0573
17630TIP3   OH274304   2.044   1.759  16.295  0.4366 -0.0279  0.8094
17630TIP3    H174305   1.949   1.752  16.305  0.2575  1.1956  0.0407
17630TIP3    H274306   2.062   1.852  16.306  1.4888 -0.1825  0.4147
17631TIP3   OH274307   5.144   2.199  14.373 -0.9595 -0.1069 -0.1600
17631TIP3    H174308   5.136   2.289  14.404 -0.6552 -0.9289  2.3619
17631TIP3    H274309   5.191   2.153  14.442 -0.8202 -2.1422 -1.5584
17632TIP3   OH274310   3.623   0.792   1.590 -0.2995  0.4852  0.1983
17632TIP3    H174311   3.650   0.702   1.607 -1.6565  0.0104 -0.0690
17632TIP3    H274312   3.678   0.821   1.518 -0.0766 -0.2515  0.0682
17633TIP3   OH274313   4.485   2.294  13.377  0.2791 -0.1404 -0.4331
17633TIP3    H174314   4.561   2.274  13.322  1.5899  2.3007  0.3858
17633TIP3    H274315   4.524   2.323  13.460 -1.6242 -1.3202  0.9118
17634TIP3   OH274316   2.428   5.945  14.225 -0.4005  0.5085  0.1339
17634TIP3    H174317   2.502   5.975  14.277  1.2471  0.2528 -2.0058
17634TIP3    H274318   2.412   5.856  14.255  1.1016  0.0506 -0.3822
17635TIP3   OH274319   4.881   1.076  10.464  0.4896  0.3871  0.3941
17635TIP3    H174320   4.789   1.061  10.484 -0.3654  2.5028 -1.6687
17635TIP3    H274321   4.922   1.093  10.550 -1.1973  0.2060  1.2479
17636TIP3   OH274322   0.102   3.781   0.271 -0.1889 -0.3011  0.1372
17636TIP3    H174323   0.178   3.724   0.287 -0.6918 -0.6582  1.2742
17636TIP3    H274324   0.027   3.722   0.275 -0.7789  0.5538  2.0523
17637TIP3   OH274325   1.844   2.161  14.117 -0.7610 -0.5282  0.1702
17637TIP3    H174326   1.748   2.157  14.121 -0.8383 -0.2530 -1.0756
17637TIP3    H274327   1.865   2.247  14.153 -0.9398 -0.8431  1.0315
17638TIP3   OH274328   4.057   0.358   4.817 -0.0855 -0.7031 -0.6918
17638TIP3    H174329   3.980   0.358   4.874  0.1237  1.6897 -0.3225
17638TIP3    H274330   4.038   0.425   4.751  2.7877  2.0842  1.1219
17639TIP3   OH274331   1.792   1.956  12.079 -0.0148  0.0906 -0.5349
17639TIP3    H174332   1.769   1.865  12.062  2.5478 -0.4876 -1.0944
17639TIP3    H274333   1.717   1.992  12.126 -0.6088 -2.5862  0.5960
17640TIP3   OH274334   5.533   4.954   0.901  0.0988 -0.1742 -0.6811
17640TIP3    H174335   5.528   4.990   0.813  0.7459  2.0893  0.1865
17640TIP3    H274336   5.472   5.007   0.952  0.8846 -0.4558  0.5760
17641TIP3   OH274337   6.425   2.356  12.188 -0.4580 -0.0157 -0.2944
17641TIP3    H174338   6.333   2.334  12.201 -0.4547 -0.1061 -0.4165
17641TIP3    H274339   6.423   2.433  12.131 -0.4571 -0.0612 -0.3557
17642TIP3   OH274340   1.866   5.796  16.007  0.6578 -0.3001 -0.0850
17642TIP3    H174341   1.851   5.771  15.916  0.1639 -0.0802 -0.0659
17642TIP3    H274342   1.916   5.878  16.001  2.2503 -1.2492 -0.1481
17643TIP3   OH274343   1.141   1.593  14.576  0.1545  0.5349  0.3407
17643TIP3    H174344   1.227   1.633  14.587 -0.0518  0.5074  2.1173
17643TIP3    H274345   1.106   1.633  14.496  1.6280  0.8493 -0.1706
17644TIP3   OH274346   5.211   2.405  12.459  0.0695 -0.4001 -0.0915
17644TIP3    H174347   5.218   2.319  12.501  1.2034 -0.7360 -0.9342
17644TIP3    H274348   5.301   2.427  12.435 -0.1761  1.1485  0.3470
17645TIP3   OH274349   3.236   3.785   0.067  0.1194  0.0098 -0.2509
17645TIP3    H174350   3.176   3.846   0.024 -0.6365  0.2511  1.1366
17645TIP3    H274351   3.322   3.805   0.028 -0.7283 -0.5876 -2.4972
17646TIP3   OH274352   0.070   6.777  11.105  0.0871 -0.1020 -0.1831
17646TIP3    H174353   0.043   6.688  11.131  1.2244 -0.7635 -1.2254
17646TIP3    H274354  -0.009   6.830  11.118 -0.3365 -1.0603  1.4079
17647TIP3   OH274355   5.149   4.259  15.956  0.5265  0.1446  0.7867
17647TIP3    H174356   5.175   4.265  16.048  1.1616 -2.5718  0.8458
17647TIP3    H274357   5.231   4.272  15.907  0.3711  0.6006  0.6528
17648TIP3   OH274358   0.333   2.031   0.665  0.5644  0.1272  0.6939
17648TIP3    H174359   0.272   2.010   0.594 -1.5343  1.0329  2.1968
17648TIP3    H274360   0.336   2.126   0.666  2.3448  0.0865  0.3849
17649TIP3   OH274361   6.728   2.665  15.431  0.1346  0.8091 -0.1416
17649TIP3    H174362   6.683   2.586  15.460  0.5354  0.6355  0.0030
17649TIP3    H274363   6.682   2.691  15.351  0.4868 -0.0034 -0.6093
17650TIP3   OH274364   0.388   5.177  13.960 -0.1830  0.0633  0.2564
17650TIP3    H174365   0.355   5.262  13.932 -0.2164 -0.2219 -0.5645
17650TIP3    H274366   0.310   5.128  13.986 -0.0154  0.8930  2.4336
17651TIP3   OH274367   5.319   6.029   4.856 -0.0630 -0.1025 -0.5609
17651TIP3    H174368   5.331   5.987   4.771 -2.4842 -1.6759 -0.1738
17651TIP3    H274369   5.320   6.123   4.837 -0.2527 -0.4350 -2.2720
17652TIP3   OH274370   6.528   0.449  16.120  0.6215 -0.0811  0.0806
17652TIP3    H174371   6.574   0.475  16.200 -2.4572  0.7325  1.6264
17652TIP3    H274372   6.488   0.365  16.142 -0.4136  0.2450 -0.5494
17653TIP3   OH274373   6.352   2.225  11.559 -1.0578 -0.2056 -0.4473
17653TIP3    H174374   6.274   2.217  11.505 -0.2434  1.1046 -1.8578
17653TIP3    H274375   6.405   2.149  11.537 -0.5389  0.5452 -1.8275
17654TIP3   OH274376   3.577   5.412  15.292 -0.3721 -0.5323  0.3467
17654TIP3    H174377   3.489   5.391  15.261  0.2391 -0.8095 -1.2471
17654TIP3    H274378   3.596   5.498  15.255  0.3044 -0.7999  0.0562
17655TIP3   OH274379   2.496   4.451  15.604 -0.2588 -0.3884  0.1572
17655TIP3    H174380   2.446   4.379  15.566  0.6889 -1.1452  0.3370
17655TIP3    H274381   2.469   4.453  15.696  0.2073 -0.9427  0.3068
17656TIP3   OH274382   0.461   0.552   2.024  0.2910 -0.0725  0.3267
17656TIP3    H174383   0.388   0.551   2.085  0.1016  1.1536  0.1153
17656TIP3    H274384   0.539   0.560   2.079  0.1392  0.7021  0.4334
17657TIP3   OH274385   3.380   5.302   4.288 -0.4424  0.0109 -0.1769
17657TIP3    H174386   3.286   5.298   4.304 -0.1165 -2.5971  1.3153
17657TIP3    H274387   3.389   5.363   4.215 -3.0568  2.3204  1.3445
17658TIP3   OH274388   5.561   4.657  11.809  0.0431  0.0279 -0.0017
17658TIP3    H174389   5.570   4.682  11.717 -1.3570  3.8458  0.8301
17658TIP3    H274390   5.649   4.630  11.835  0.6612 -0.1698 -2.1926
17659TIP3   OH274391   4.383   4.476  16.375 -0.1114  0.0296 -0.7973
17659TIP3    H174392   4.332   4.435  16.306 -1.6913  1.7222 -0.6647
17659TIP3    H274393   4.340   4.560  16.391 -1.0373 -1.1580  3.6612
17660TIP3   OH274394   3.321   4.816  11.517  0.3725 -0.4388  0.1872
17660TIP3    H174395   3.314   4.737  11.464  1.0005 -0.3776  0.0167
17660TIP3    H274396   3.341   4.886  11.455 -0.2305 -0.1303  0.3320
17661TIP3   OH274397   3.461   4.208   4.564  0.5878  0.3560  0.1498
17661TIP3    H174398   3.411   4.258   4.628 -1.4376 -0.4557 -0.7728
17661TIP3    H274399   3.402   4.139   4.535  2.5781 -1.2538 -0.2260
17662TIP3   OH274400   1.954   5.516   2.733  0.1108 -0.1093  0.1911
17662TIP3    H174401   1.905   5.434   2.737  0.7340 -0.3951  2.8213
17662TIP3    H274402   2.045   5.490   2.746  0.1183  1.1530  3.1141
17663TIP3   OH274403   1.495   5.276   2.239  0.3841  0.5913  0.4850
17663TIP3    H174404   1.447   5.270   2.322  1.2674  1.4673  1.0704
17663TIP3    H274405   1.587   5.279   2.266  0.7040  0.2529 -0.5651
17664TIP3   OH274406   6.316   4.705  13.188 -0.5681 -0.1756 -0.3410
17664TIP3    H174407   6.256   4.698  13.262 -0.5701 -0.4295 -0.3654
17664TIP3    H274408   6.303   4.625  13.139 -1.2868  0.4349 -1.1629
17665TIP3   OH274409   5.384   1.156   1.950 -0.0552 -0.6224  0.1242
17665TIP3    H174410   5.331   1.077   1.950  0.3720 -0.9102 -0.2992
17665TIP3    H274411   5.342   1.214   1.887  0.5491 -1.1293 -0.7435
17666TIP3   OH274412   0.793   4.017   1.623 -0.0983 -0.6796 -0.0138
17666TIP3    H174413   0.868   4.053   1.576 -0.8068  0.6816 -0.1025
17666TIP3    H274414   0.730   3.995   1.555 -0.9684  0.9268  0.2631
17667TIP3   OH274415   6.618   6.150  12.599 -0.1754 -0.2146  0.5778
17667TIP3    H174416   6.708   6.145  12.565  0.0238 -0.1435  1.0901
17667TIP3    H274417   6.563   6.142  12.521  0.2915  0.7017  0.1409
17668TIP3   OH274418   1.327   6.763   3.053  0.0204  0.3186  0.4993
17668TIP3    H174419   1.396   6.829   3.044  0.1067  0.1818  0.1401
17668TIP3    H274420   1.252   6.801   3.007  0.0242  0.2320  0.4210
17669TIP3   OH274421   4.380   6.163   6.578 -0.3258 -0.1080  0.7973
17669TIP3    H174422   4.394   6.150   6.672 -1.5322 -2.3734  0.6947
17669TIP3    H274423   4.361   6.075   6.544 -0.4758  0.7675 -1.4707
17670TIP3   OH274424   0.036   6.513   0.107  0.1631 -0.3838  0.0442
17670TIP3    H174425   0.053   6.578   0.175 -3.0628  2.5417 -1.8122
17670TIP3    H274426   0.082   6.546   0.030 -2.7851  0.5684 -1.3426
17671TIP3   OH274427   1.893   4.746  15.159  0.2782 -0.3174 -0.3680
17671TIP3    H174428   1.852   4.764  15.074 -0.1880 -1.8447 -0.4831
17671TIP3    H274429   1.985   4.733  15.138  0.7222  2.3970 -0.2090
17672TIP3   OH274430   2.570   3.593   1.494  0.2981 -0.1000  0.0750
17672TIP3    H174431   2.601   3.540   1.421 -1.2527  0.2400 -0.8732
17672TIP3    H274432   2.475   3.595   1.483  0.2378  2.0294  0.6717
17673TIP3   OH274433   1.365   1.687   2.525 -0.6396  0.3226  0.4638
17673TIP3    H174434   1.334   1.772   2.493 -0.1701  0.5743  0.6673
17673TIP3    H274435   1.439   1.709   2.583  0.5915 -0.3251 -0.8312
17674TIP3   OH274436   2.352   4.776   0.900  0.2963  0.1945  0.0896
17674TIP3    H174437   2.390   4.688   0.905 -0.7524 -0.3042 -0.4887
17674TIP3    H274438   2.426   4.835   0.911  1.4037 -0.7469 -1.9634
17675TIP3   OH274439   0.703   3.684   1.399  0.8791 -0.7582 -0.4274
17675TIP3    H174440   0.689   3.698   1.305 -1.5679 -0.1787 -0.0161
17675TIP3    H274441   0.759   3.757   1.426  0.5282 -0.2050 -1.1853
17676TIP3   OH274442   4.373   3.707   0.162 -0.1253 -0.0319  0.4468
17676TIP3    H174443   4.280   3.730   0.164 -0.3856 -0.8227 -1.1342
17676TIP3    H274444   4.419   3.791   0.162 -0.9475  0.4670 -1.9994
17677TIP3   OH274445   6.308   0.654   3.610  0.4642  0.2292  0.0871
17677TIP3    H174446   6.325   0.644   3.516  0.1592  1.5132 -0.1107
17677TIP3    H274447   6.340   0.572   3.649  1.7747  0.2125 -0.9816
17678TIP3   OH274448   0.979   1.811   3.476  0.2057 -0.7593 -0.0826
17678TIP3    H174449   1.030   1.891   3.488 -0.3474 -0.6209  1.4450
17678TIP3    H274450   1.041   1.740   3.488  0.4842 -0.5729 -0.4190
17679TIP3   OH274451   5.383   1.306   3.670 -0.3311 -0.1388 -0.3748
17679TIP3    H174452   5.477   1.302   3.683 -0.5539  1.2812  2.1954
17679TIP3    H274453   5.370   1.375   3.605  0.3599  0.6615  0.3174
17680TIP3   OH274454   1.532   1.026   5.619  0.2126 -0.2555  0.4110
17680TIP3    H174455   1.619   0.992   5.641  0.7168  1.7275  1.5735
17680TIP3    H274456   1.512   1.089   5.688 -1.6592  0.1712 -0.4805
17681TIP3   OH274457   0.010   4.613   4.215 -0.2351  0.1159 -0.0409
17681TIP3    H174458   0.080   4.675   4.234 -1.5083  1.3558  0.6754
17681TIP3    H274459  -0.014   4.577   4.300  0.8052 -1.7333 -0.4963
17682TIP3   OH274460   0.039   3.406   1.655 -0.5204  0.9384 -0.2399
17682TIP3    H174461  -0.051   3.378   1.638 -1.2201  2.5413  0.6861
17682TIP3    H274462   0.093   3.331   1.629 -2.2064 -0.5904  0.5515
17683TIP3   OH274463   6.015   1.349   2.100 -0.1185  0.2961  0.0768
17683TIP3    H174464   5.922   1.329   2.105  0.0874 -0.6115  0.3863
17683TIP3    H274465   6.022   1.439   2.131 -0.5815 -0.5078  2.6513
17684TIP3   OH274466   6.738   5.485  16.620 -0.3235 -0.4743  0.2741
17684TIP3    H174467   6.822   5.467  16.662 -0.6565 -0.4642  0.9632
17684TIP3    H274468   6.741   5.437  16.537  1.0502  0.9432 -0.5156
17685TIP3   OH274469   6.119   2.064  13.518  0.0016  0.6847 -0.8351
17685TIP3    H174470   6.075   2.068  13.432  0.3144 -1.4785 -1.1379
17685TIP3    H274471   6.058   2.108  13.577 -0.2022  2.2533 -2.1654
17686TIP3   OH274472   5.544   3.608  11.997 -0.3542  0.1534 -0.9819
17686TIP3    H174473   5.622   3.657  11.972  0.4348 -0.5833  0.0312
17686TIP3    H274474   5.539   3.536  11.934 -0.9469  0.9113 -1.8330
17687TIP3   OH274475   0.443   5.688  12.718  0.0615 -0.4577 -0.3734
17687TIP3    H174476   0.439   5.752  12.647  1.4751  0.1425  0.0703
17687TIP3    H274477   0.359   5.697  12.764  0.6365  1.7749  0.2814
17688TIP3   OH274478   2.207   0.828  11.893  0.3200 -0.1282 -0.6754
17688TIP3    H174479   2.185   0.801  11.982 -0.1077 -1.4578 -1.1602
17688TIP3    H274480   2.289   0.783  11.874  0.6242  0.4826 -0.8016
17689TIP3   OH274481   3.880   3.751   2.044  0.2187 -0.4209 -0.1040
17689TIP3    H174482   3.938   3.690   2.090  0.1604  0.6836  1.4856
17689TIP3    H274483   3.816   3.695   1.999  0.0588 -1.5188  1.4684
17690TIP3   OH274484   3.719   0.957   4.201 -0.0984  0.2884 -0.0743
17690TIP3    H174485   3.706   0.895   4.130 -0.4579  1.2978 -0.8995
17690TIP3    H274486   3.814   0.955   4.217 -0.0115  0.0890 -0.6054
17691TIP3   OH274487   6.629   3.516  14.147 -0.1378  0.3854  0.5131
17691TIP3    H174488   6.637   3.488  14.056 -2.0788  1.1716  0.0845
17691TIP3    H274489   6.658   3.608  14.147 -0.8031  0.5950  0.5641
17692TIP3   OH274490   1.205   4.716  11.986 -0.8498  0.1490  0.3235
17692TIP3    H174491   1.221   4.802  12.023  1.1352  0.3874 -0.9492
17692TIP3    H274492   1.129   4.727  11.929 -0.4635  1.1447 -0.0170
17693TIP3   OH274493   4.914   5.400  11.017  0.4721  0.3526 -0.6811
17693TIP3    H174494   5.002   5.374  10.991  0.8667  1.1094 -0.1339
17693TIP3    H274495   4.858   5.328  10.988  1.5495 -1.2156  1.0198
17694TIP3   OH274496   1.533   5.255   5.583 -0.3403  0.0414  0.6012
17694TIP3    H174497   1.598   5.196   5.543 -2.2397 -0.6556 -1.5164
17694TIP3    H274498   1.569   5.342   5.569  1.0771 -0.4267  1.1577
17695TIP3   OH274499   3.265   6.162  12.377  0.7385  0.2095 -0.2195
17695TIP3    H174500   3.176   6.127  12.374  0.3228  1.3020 -1.3928
17695TIP3    H274501   3.315   6.105  12.319  0.7884 -0.3515  0.3716
17696TIP3   OH274502   1.853   4.322  15.542 -0.3731  0.5645  0.5396
17696TIP3    H174503   1.882   4.408  15.513  0.3926 -0.0350 -0.5006
17696TIP3    H274504   1.790   4.340  15.611  1.1442  1.9156  1.5904
17697TIP3   OH274505   1.402   4.055  12.203 -0.0893  0.6525 -0.0256
17697TIP3    H174506   1.395   4.075  12.296 -0.5723 -3.2564  0.8657
17697TIP3    H274507   1.362   4.130  12.159 -0.5020  2.2417  2.9267
17698TIP3   OH274508   2.545   0.100  15.789 -0.0597  0.0391 -0.3497
17698TIP3    H174509   2.535   0.190  15.820 -1.2988 -0.0179 -0.5608
17698TIP3    H274510   2.526   0.104  15.695 -1.1362 -0.5944 -0.1763
17699TIP3   OH274511   1.252   0.860  14.819 -0.5657 -0.5106 -0.4404
17699TIP3    H174512   1.184   0.795  14.801 -1.6516  0.7950 -1.1199
17699TIP3    H274513   1.254   0.916  14.741 -1.2289  1.6469  1.0589
17700TIP3   OH274514   1.622   1.499   3.358  0.2189  0.1299  0.4335
17700TIP3    H174515   1.697   1.478   3.413  0.5154  0.1480  0.0312
17700TIP3    H274516   1.548   1.500   3.419  0.3732 -0.9766  0.6370
17701TIP3   OH274517   4.654   1.968   5.343 -0.1012 -0.3429 -0.3932
17701TIP3    H174518   4.722   1.915   5.385  1.8263  0.0673 -2.8557
17701TIP3    H274519   4.660   2.053   5.387  1.1947 -0.2263 -0.7625
17702TIP3   OH274520   2.726   3.135   0.643  0.1617 -0.2882  0.2141
17702TIP3    H174521   2.630   3.130   0.642 -0.0586  3.0728  0.8103
17702TIP3    H274522   2.753   3.058   0.692 -2.1353 -2.1510 -1.2945
17703TIP3   OH274523   0.528   5.627   1.543 -0.1852  0.1167 -0.4990
17703TIP3    H174524   0.510   5.534   1.527 -1.5240  0.3945 -0.7115
17703TIP3    H274525   0.606   5.646   1.491  0.3903 -1.0022 -0.0719
17704TIP3   OH274526   2.485   4.827   3.169  0.3226 -0.5445 -0.6966
17704TIP3    H174527   2.579   4.840   3.180 -0.0596 -0.4431  2.8143
17704TIP3    H274528   2.458   4.779   3.247 -2.6997  0.1361 -1.2696
17705TIP3   OH274529   1.537   0.233   2.213 -0.4895 -0.2349  0.3952
17705TIP3    H174530   1.498   0.148   2.237 -0.2087 -0.2960  0.6379
17705TIP3    H274531   1.521   0.240   2.119  1.0312 -1.3642  0.0406
17706TIP3   OH274532   0.212   2.199   4.236 -0.6192 -0.3174 -0.0427
17706TIP3    H174533   0.117   2.186   4.241 -0.8994  0.8513 -1.8920
17706TIP3    H274534   0.244   2.122   4.189 -0.8123 -0.1594 -0.4426
17707TIP3   OH274535   1.327   5.593   0.726  0.0416  0.1332  0.8114
17707TIP3    H174536   1.243   5.626   0.759  0.2359  1.7701 -0.2488
17707TIP3    H274537   1.380   5.672   0.714  1.0203 -0.6995 -0.5057
17708TIP3   OH274538   3.241   0.013   3.146 -0.0418  0.6401 -0.4395
17708TIP3    H174539   3.164  -0.041   3.126 -1.1444  1.9824  0.0981
17708TIP3    H274540   3.237   0.085   3.084  1.1517  0.3917 -0.8240
17709TIP3   OH274541   1.221   6.490  15.973 -0.0639  0.2636  0.5317
17709TIP3    H174542   1.140   6.539  15.957  0.6669  1.1360 -0.5703
17709TIP3    H274543   1.287   6.535  15.920  0.8625 -1.2667  0.3583
17710TIP3   OH274544   2.455   1.176  13.822  0.1041  0.5759 -0.3770
17710TIP3    H174545   2.460   1.097  13.876  1.2097  0.8828 -0.0087
17710TIP3    H274546   2.478   1.146  13.734  2.4465  0.8021  0.1136
17711TIP3   OH274547   1.622   4.590  16.549  0.3333  0.4594  0.2446
17711TIP3    H174548   1.558   4.625  16.611  0.4716 -0.6073  0.9932
17711TIP3    H274549   1.665   4.518  16.596  0.1861 -0.5927 -1.2086
17712TIP3   OH274550   4.558   1.671   3.499  0.3580 -0.0101 -0.2771
17712TIP3    H174551   4.654   1.674   3.494  0.5151 -0.6704  1.9786
17712TIP3    H274552   4.534   1.586   3.462  0.6797 -0.1201 -0.2297
17713TIP3   OH274553   2.051   4.169   5.645 -0.7449  0.0014  0.2556
17713TIP3    H174554   2.088   4.117   5.573 -0.8139 -0.1191  0.3065
17713TIP3    H274555   2.002   4.105   5.697 -1.0519  0.1658  0.1677
17714TIP3   OH274556   4.643   0.696  11.466 -0.5007  0.4984 -1.0485
17714TIP3    H174557   4.597   0.687  11.549  0.3648  0.5154 -0.5634
17714TIP3    H274558   4.597   0.637  11.406 -0.9742  0.3027 -0.4918
17715TIP3   OH274559   1.263   1.331  12.350 -0.0555 -0.4115 -0.0814
17715TIP3    H174560   1.274   1.245  12.390  0.5964 -0.6765 -0.8100
17715TIP3    H274561   1.339   1.382  12.379 -0.3872 -0.1068  0.2656
17716TIP3   OH274562   2.094   0.442   3.117  0.6044  0.1988 -0.2805
17716TIP3    H174563   2.183   0.422   3.148  1.0012  1.2502 -0.7078
17716TIP3    H274564   2.084   0.536   3.133 -0.3376  0.1363 -0.4841
17717TIP3   OH274565   3.312   0.779   1.179  0.5731 -0.2032  0.6264
17717TIP3    H174566   3.352   0.850   1.130 -1.5073 -0.2491 -1.2266
17717TIP3    H274567   3.318   0.703   1.121 -1.8319 -0.2871  0.4466
17718TIP3   OH274568   0.019   4.679   1.786 -0.0405  0.8113  0.0270
17718TIP3    H174569   0.002   4.627   1.707 -1.9796  2.4817 -0.6781
17718TIP3    H274570   0.031   4.768   1.754  1.2090  1.1843  1.4488
17719TIP3   OH274571   2.571   1.185  16.916  0.3221  0.6220  0.2431
17719TIP3    H174572   2.499   1.145  16.868  0.1858 -1.4164  2.0934
17719TIP3    H274573   2.537   1.271  16.943 -0.5983  0.5980 -0.7964
17720TIP3   OH274574   1.381   6.258  16.053 -0.1355 -0.3177  0.6139
17720TIP3    H174575   1.444   6.292  15.990  0.2958 -2.3106 -0.0586
17720TIP3    H274576   1.312   6.325  16.057 -0.7181 -0.6407 -2.7696
17721TIP3   OH274577   4.979   2.801   5.157  0.2161 -0.3919  0.0338
17721TIP3    H174578   4.899   2.852   5.141  1.2222  1.7337  1.5153
17721TIP3    H274579   5.049   2.858   5.125  1.3288 -1.1391  1.1219
17722TIP3   OH274580   4.823   6.543  12.607 -0.0688  0.2986  0.1651
17722TIP3    H174581   4.876   6.507  12.679 -0.0690  0.3724  0.2027
17722TIP3    H274582   4.743   6.573  12.649 -0.9140 -1.4594 -0.1617
17723TIP3   OH274583   0.250   0.065   3.780  0.0075  0.1090 -0.2389
17723TIP3    H174584   0.304   0.036   3.706  0.3652 -1.1547  0.5057
17723TIP3    H274585   0.299   0.138   3.817 -0.8402  1.6426 -2.0563
17724TIP3   OH274586   6.151   1.488  14.392 -0.0917  0.5297  0.1152
17724TIP3    H174587   6.235   1.507  14.351 -0.9423 -2.7763 -3.4069
17724TIP3    H274588   6.158   1.396  14.420 -2.1394  0.5520  0.7984
17725TIP3   OH274589   3.081   3.479   4.927  0.0427  0.0896 -0.5361
17725TIP3    H174590   3.141   3.502   4.856  0.1520  1.2613 -0.0721
17725TIP3    H274591   3.045   3.563   4.957  1.9044 -0.1086  2.4720
17726TIP3   OH274592   0.980   5.126   0.683  0.5265 -0.1038  0.1653
17726TIP3    H174593   0.929   5.060   0.637  0.4291 -0.8126  1.2698
17726TIP3    H274594   0.923   5.157   0.753  0.8248  0.6565  0.0778
17727TIP3   OH274595   6.142   6.709  13.612  0.2831  0.1852  0.3651
17727TIP3    H174596   6.117   6.787  13.661  3.3000  0.9672  0.7673
17727TIP3    H274597   6.142   6.736  13.520 -1.1741 -0.0971  0.2622
17728TIP3   OH274598   3.388   5.507  16.864  0.5454 -0.0089  0.6326
17728TIP3    H174599   3.351   5.551  16.940 -0.5919  1.6228 -0.8102
17728TIP3    H274600   3.323   5.440  16.841  1.4819 -1.3482  1.8222
17729TIP3   OH274601   2.897   3.813   0.821 -0.2347  0.4442 -0.3354
17729TIP3    H174602   2.838   3.762   0.766 -0.9907  1.2299 -0.2540
17729TIP3    H274603   2.924   3.886   0.765 -1.7565  1.7753  0.6375
17730TIP3   OH274604   6.638   1.319  14.004  0.0858 -0.5497 -0.4373
17730TIP3    H174605   6.676   1.378  13.939  1.6266 -0.8859  0.1394
17730TIP3    H274606   6.689   1.239  13.996 -0.5875 -1.0579  0.2881
17731TIP3   OH274607   2.208   3.071  15.506  0.4997 -0.6287 -0.3676
17731TIP3    H174608   2.140   3.137  15.490  2.0634  1.0103 -0.5071
17731TIP3    H274609   2.200   3.010  15.432 -0.0389  0.2380 -1.0351
17732TIP3   OH274610   3.870   5.040   7.026 -0.1160 -0.7144 -0.0505
17732TIP3    H174611   3.966   5.043   7.023 -0.1404 -1.0122 -1.7595
17732TIP3    H274612   3.842   5.111   6.968 -0.9413 -0.3498  0.7772
17733TIP3   OH274613   6.751   2.230   3.932 -0.7096  0.2647 -0.0473
17733TIP3    H174614   6.663   2.196   3.947 -1.0325  0.7084 -0.9162
17733TIP3    H274615   6.757   2.239   3.837  0.8716 -1.3693 -0.1381
17734TIP3   OH274616   4.559   3.769  12.729  0.4787 -0.0825 -0.2485
17734TIP3    H174617   4.620   3.702  12.698  0.8432 -0.8366  1.9813
17734TIP3    H274618   4.608   3.817  12.796 -0.6579  0.7050  0.0423
17735TIP3   OH274619   5.800   0.471   5.134  0.2989  0.7647 -0.9573
17735TIP3    H174620   5.842   0.530   5.072  0.9315  1.4398  0.0842
17735TIP3    H274621   5.772   0.529   5.205 -0.7043  0.0528 -0.7685
17736TIP3   OH274622   0.720   4.639  16.060 -0.8995 -0.6015  0.5950
17736TIP3    H174623   0.743   4.731  16.071 -2.3244 -0.1259 -0.1892
17736TIP3    H274624   0.798   4.591  16.086  0.4962  0.8793 -0.7239
17737TIP3   OH274625   6.591   6.560  13.353 -0.6199 -0.2396  0.0373
17737TIP3    H174626   6.557   6.471  13.359 -0.7227  0.0197  4.4022
17737TIP3    H274627   6.515   6.616  13.370 -0.0042  0.6258 -0.0330
17738TIP3   OH274628   3.916   6.033   1.940  0.4975 -0.6280 -0.1875
17738TIP3    H174629   3.846   6.098   1.938  0.4357 -0.7116 -0.7845
17738TIP3    H274630   3.876   5.956   1.981  0.3429 -0.5530 -0.1963
17739TIP3   OH274631   2.087   2.721  11.860  0.2001 -0.1657 -0.3306
17739TIP3    H174632   2.060   2.639  11.819  0.5542 -1.0218  1.1168
17739TIP3    H274633   2.140   2.765  11.794  0.5983 -1.4330 -0.8622
17740TIP3   OH274634   2.981   0.799   3.026 -0.5179  0.4295 -0.6267
17740TIP3    H174635   3.071   0.820   3.000 -0.3678  1.3078  0.5913
17740TIP3    H274636   2.983   0.705   3.042  0.3269  0.5262 -0.0914
17741TIP3   OH274637   3.993   5.041  15.566 -0.1319 -0.4908  0.9235
17741TIP3    H174638   3.975   5.022  15.474 -0.0747 -0.3890  0.8912
17741TIP3    H274639   3.975   5.135  15.575  2.0714  0.0154  0.4539
17742TIP3   OH274640   2.277   4.568  12.122 -0.1200  0.0610  0.2684
17742TIP3    H174641   2.369   4.551  12.103  0.3434  1.4479  1.1705
17742TIP3    H274642   2.254   4.642  12.065 -0.9422 -0.8996 -0.6457
17743TIP3   OH274643   1.080   1.671  14.045 -0.0077  0.4499  0.4241
17743TIP3    H174644   1.035   1.703  14.124 -0.2800  1.5930 -0.1834
17743TIP3    H274645   1.163   1.718  14.044  0.1842  0.1085  0.2572
17744TIP3   OH274646   4.968   3.431   2.075 -0.4311 -0.0556 -0.4846
17744TIP3    H174647   4.981   3.341   2.103 -0.2550  0.3017  0.6308
17744TIP3    H274648   4.918   3.471   2.146  0.4975  1.0293 -0.4282
17745TIP3   OH274649   1.664   0.794   2.662  0.1208 -0.4824 -0.0194
17745TIP3    H174650   1.714   0.818   2.584 -0.4845  0.3601 -0.1500
17745TIP3    H274651   1.707   0.840   2.734 -0.5537  0.3611 -0.1533
17746TIP3   OH274652   3.846   3.558  10.912  0.5190  0.6131 -0.0469
17746TIP3    H174653   3.775   3.494  10.908  2.2894 -1.4054 -0.1397
17746TIP3    H274654   3.910   3.528  10.848  1.1836  2.7736 -0.4494
17747TIP3   OH274655   1.286   1.750  12.892  0.1953 -0.0950 -0.0686
17747TIP3    H174656   1.338   1.810  12.945  1.5862 -0.6996 -0.7304
17747TIP3    H274657   1.322   1.663  12.912  0.1713 -0.4119 -1.3416
17748TIP3   OH274658   0.170   5.834  11.573 -0.8129  0.4594  0.2489
17748TIP3    H174659   0.190   5.909  11.517  1.7025 -0.6820 -0.4381
17748TIP3    H274660   0.233   5.839  11.644  0.1973 -1.6286 -0.4493
17749TIP3   OH274661   6.602   4.785   6.452 -0.4205 -0.0785  0.5224
17749TIP3    H174662   6.661   4.851   6.416 -0.8225  0.1313  0.2357
17749TIP3    H274663   6.572   4.822   6.535 -0.5748  0.0570  0.4055
17750TIP3   OH274664   4.248   3.546   2.825 -0.2836 -0.3165  0.2955
17750TIP3    H174665   4.254   3.473   2.887  2.2376 -0.2901  0.1475
17750TIP3    H274666   4.186   3.517   2.759  0.5075 -2.2402  0.3662
17751TIP3   OH274667   6.706   2.169  12.452 -0.3870 -0.2074 -0.1974
17751TIP3    H174668   6.786   2.117  12.462 -0.6151 -0.6249 -0.5248
17751TIP3    H274669   6.641   2.107  12.417 -1.2137 -0.1900  1.2656
17752TIP3   OH274670   3.867   5.770   5.138  0.2389 -0.1642 -0.3500
17752TIP3    H174671   3.921   5.703   5.096 -0.0364 -0.2058 -0.6354
17752TIP3    H274672   3.920   5.849   5.135  2.0023 -1.1067  2.9987
17753TIP3   OH274673   3.647   5.801  10.854 -0.1781 -0.3018  0.1895
17753TIP3    H174674   3.680   5.725  10.903  2.2885  0.9866  0.6533
17753TIP3    H274675   3.723   5.831  10.803 -1.2652  1.4847 -0.4248
17754TIP3   OH274676   3.491   4.655  17.212  0.0794 -0.7477 -0.0240
17754TIP3    H174677   3.415   4.667  17.156  0.2243 -1.5166 -0.3905
17754TIP3    H274678   3.476   4.571  17.256  0.3890 -0.5782  0.4087
17755TIP3   OH274679   0.245   6.583  16.256 -0.1203 -0.3633 -0.1223
17755TIP3    H174680   0.284   6.670  16.264 -1.7013  0.4409 -0.7401
17755TIP3    H274681   0.244   6.548  16.345  0.2046  0.3991  0.1827
17756TIP3   OH274682   3.033   5.638  12.276 -0.2611  0.1265 -0.5505
17756TIP3    H174683   3.028   5.555  12.322 -0.0412  0.6249  0.3915
17756TIP3    H274684   3.086   5.620  12.199 -0.4373 -0.6630 -0.4880
17757TIP3   OH274685   0.155   4.278  15.149 -0.5423 -0.5286 -0.6261
17757TIP3    H174686   0.093   4.205  15.141 -0.6305 -0.5860  0.4985
17757TIP3    H274687   0.109   4.342  15.203  0.2568 -0.4327 -0.0519
17758TIP3   OH274688   5.333   0.408  16.708  0.0758 -0.0120 -0.7060
17758TIP3    H174689   5.359   0.423  16.799  0.0670 -1.8237 -0.3874
17758TIP3    H274690   5.410   0.431  16.657  0.2490  0.5233 -0.2185
17759TIP3   OH274691   4.540   6.169   0.870 -0.2528 -0.1792  0.7248
17759TIP3    H174692   4.620   6.125   0.899  0.3794  0.3083 -0.2635
17759TIP3    H274693   4.547   6.257   0.908  1.4755  1.0922 -2.2976
17760TIP3   OH274694   4.611   2.152   2.911  0.4796  0.1257  0.2626
17760TIP3    H174695   4.535   2.201   2.881  0.9998  0.8259  0.0880
17760TIP3    H274696   4.645   2.202   2.984  1.6880  0.6419 -0.6395
17761TIP3   OH274697   0.320   2.980   4.677  0.2751 -0.2306 -0.1151
17761TIP3    H174698   0.413   2.980   4.653  0.0804 -2.4618 -1.0528
17761TIP3    H274699   0.276   2.947   4.599 -1.4576  2.0023 -0.1061
17762TIP3   OH274700   4.820   5.718   4.437  0.0942  0.0023 -0.3751
17762TIP3    H174701   4.795   5.805   4.469  0.1241 -0.3258  0.5470
17762TIP3    H274702   4.781   5.657   4.499  3.1300 -0.5227  1.0795
17763TIP3   OH274703   6.004   2.090   1.728 -0.2232 -0.6866 -0.6859
17763TIP3    H174704   6.031   2.099   1.637  0.3827 -0.9339 -0.5363
17763TIP3    H274705   6.036   2.004   1.754 -0.8253 -0.8239 -0.3804
17764TIP3   OH274706   0.739   0.373   5.658  0.3139 -0.1907  0.5682
17764TIP3    H174707   0.770   0.348   5.571 -0.7317 -2.4426  0.8156
17764TIP3    H274708   0.704   0.461   5.645  1.4996  0.1006 -0.9524
17765TIP3   OH274709   5.267   5.470  15.215  0.1789 -0.1860  0.5842
17765TIP3    H174710   5.352   5.467  15.172 -0.6710 -1.5698 -1.0933
17765TIP3    H274711   5.241   5.562  15.211  1.3819  0.1719  0.7212
17766TIP3   OH274712   6.729   6.549   3.806 -0.0605  0.6682  0.1802
17766TIP3    H174713   6.679   6.489   3.861  1.3377 -2.1464 -1.5152
17766TIP3    H274714   6.805   6.572   3.859  0.7657 -1.2393 -0.1133
17767TIP3   OH274715   0.843   6.695  11.036  0.2893  0.6693 -0.0998
17767TIP3    H174716   0.920   6.730  11.081 -1.6029  1.0290  3.0046
17767TIP3    H274717   0.825   6.759  10.967  1.1691  2.0371  0.9079
17768TIP3   OH274718   3.203   5.531  14.492  0.3296 -0.0224  0.0307
17768TIP3    H174719   3.211   5.441  14.461  0.7279  0.4083 -1.1300
17768TIP3    H274720   3.282   5.575  14.460  1.5485  0.0599  2.9638
17769TIP3   OH274721   6.770   6.308   1.706 -0.4415 -0.2356 -0.7655
17769TIP3    H174722   6.806   6.219   1.714 -0.8300 -0.3552 -0.3396
17769TIP3    H274723   6.712   6.317   1.781 -0.3875  0.3904 -0.7959
17770TIP3   OH274724   4.684   5.219   1.967 -0.4877 -1.1198 -0.2665
17770TIP3    H174725   4.618   5.287   1.978  0.3927 -0.1126 -1.1066
17770TIP3    H274726   4.692   5.179   2.054  0.8722  1.6129  0.9363
17771TIP3   OH274727   4.169   6.548  13.772 -0.4247 -0.4604  0.2790
17771TIP3    H174728   4.079   6.518  13.761 -0.5706  0.4272 -1.0123
17771TIP3    H274729   4.161   6.634  13.813 -0.1538 -0.4727  0.3587
17772TIP3   OH274730   2.627   4.208   0.536 -0.3373 -0.2374  0.3727
17772TIP3    H174731   2.564   4.148   0.577  0.7591 -2.0396 -0.5155
17772TIP3    H274732   2.711   4.165   0.546  0.8273  2.2353  1.6894
17773TIP3   OH274733   2.246   3.085  11.237 -0.2720 -0.3194  0.6051
17773TIP3    H174734   2.225   3.002  11.193 -1.9656  1.6194 -2.4728
17773TIP3    H274735   2.329   3.112  11.199 -0.0457 -0.2991  1.1169
17774TIP3   OH274736   5.446   3.548   4.938  0.2464  0.0283  0.2558
17774TIP3    H174737   5.430   3.573   5.029  2.4075  1.9731  0.1573
17774TIP3    H274738   5.417   3.457   4.932 -0.0416 -0.0830  2.8523
17775TIP3   OH274739   2.614   3.309  10.925 -0.1996  0.1108  0.0998
17775TIP3    H174740   2.587   3.399  10.908 -1.3838 -0.4093 -0.7730
17775TIP3    H274741   2.705   3.305  10.895 -0.5370  0.6885 -1.0067
17776TIP3   OH274742   6.782   0.598   5.230 -0.3213 -0.2396  0.2538
17776TIP3    H174743   6.756   0.685   5.200 -0.7225 -1.4026 -2.8627
17776TIP3    H274744   6.702   0.561   5.268 -0.2991  0.5120  1.0426
17777TIP3   OH274745   2.773   2.198  16.903 -0.1979  0.0901  0.1701
17777TIP3    H174746   2.742   2.244  16.981 -1.8153  0.8798 -0.9177
17777TIP3    H274747   2.695   2.187  16.849  0.8332 -0.8067 -1.1623
17778TIP3   OH274748   4.644   2.399   0.983  0.1575  0.2290  0.3832
17778TIP3    H174749   4.692   2.459   0.927  1.0120 -0.2410  0.6019
17778TIP3    H274750   4.685   2.407   1.069 -1.1390  0.9386  0.9475
17779TIP3   OH274751   5.085   3.106   2.870  0.6178 -0.5261  0.0501
17779TIP3    H174752   5.140   3.084   2.795  0.5910 -1.7491  0.3695
17779TIP3    H274753   5.007   3.051   2.859 -0.6891  1.3892 -0.5528
17780TIP3   OH274754   4.798   4.033  14.098  0.0427  0.4228  0.6207
17780TIP3    H174755   4.772   3.978  14.173 -0.8698  0.3622  0.2661
17780TIP3    H274756   4.888   4.057  14.117 -0.7593  1.9860  2.7126
17781TIP3   OH274757   0.669   6.126  11.732 -1.0270 -0.4849  0.1788
17781TIP3    H174758   0.725   6.063  11.686 -0.3984 -0.0056  0.2816
17781TIP3    H274759   0.631   6.180  11.662 -0.6726 -0.2490  0.1666
17782TIP3   OH274760   4.340   1.083  15.795 -0.2869 -0.4686 -0.2542
17782TIP3    H174761   4.404   1.073  15.725  0.5007  0.8824  0.2578
17782TIP3    H274762   4.392   1.096  15.875 -1.1780  0.0289  0.2651
17783TIP3   OH274763   2.682   6.054   3.266 -0.5121  0.6652  0.6443
17783TIP3    H174764   2.608   6.042   3.206  0.9070 -1.2981 -0.7791
17783TIP3    H274765   2.757   6.068   3.208  0.8963 -1.3257  1.9404
17784TIP3   OH274766   0.025   6.749   5.185  0.2674  0.0380 -0.0788
17784TIP3    H174767  -0.009   6.673   5.138  1.4103 -0.4751 -0.0899
17784TIP3    H274768  -0.052   6.805   5.200 -0.8028 -1.6770  0.9886
17785TIP3   OH274769   6.472   6.121   3.181  0.8363 -0.4739 -0.0367
17785TIP3    H174770   6.464   6.034   3.221  0.6218 -1.2149 -1.6556
17785TIP3    H274771   6.484   6.103   3.087  1.4605  1.2227 -0.2903
17786TIP3   OH274772   2.464   3.933  12.949  0.5960  0.2633 -0.5589
17786TIP3    H174773   2.435   3.895  12.866  0.5822  2.9593 -1.8409
17786TIP3    H274774   2.530   3.998  12.923  0.0830  1.6281  1.4757
17787TIP3   OH274775   0.274   3.364  13.813  0.0678  0.3412  0.6768
17787TIP3    H174776   0.342   3.330  13.872 -1.0853 -0.2424  1.7059
17787TIP3    H274777   0.257   3.292  13.753  0.0798  0.3390  0.6772
17788TIP3   OH274778   5.022   5.410   5.176 -0.4559  0.0733  0.5095
17788TIP3    H174779   5.008   5.450   5.090  1.2984  0.7343  0.5110
17788TIP3    H274780   4.969   5.330   5.175  0.0538 -0.2550 -1.4216
17789TIP3   OH274781   6.431   4.072  15.607  0.4956  0.4736 -0.3146
17789TIP3    H174782   6.422   4.031  15.521  1.0650 -0.8736  0.2555
17789TIP3    H274783   6.521   4.052  15.634  0.5263  1.4304  0.3116
17790TIP3   OH274784   3.561   0.904  15.110 -0.6404 -0.1951 -0.6735
17790TIP3    H174785   3.518   0.852  15.042 -1.0194 -0.0489 -0.5446
17790TIP3    H274786   3.492   0.924  15.172 -0.2642 -0.4403 -0.1712
17791TIP3   OH274787   5.345   5.992  10.827 -0.0502 -0.2110  0.6257
17791TIP3    H174788   5.433   5.985  10.791  0.4047  3.1973  0.9151
17791TIP3    H274789   5.358   6.019  10.918 -1.3901  2.2321  0.1356
17792TIP3   OH274790   4.843   5.925   3.509  0.2120 -0.8814 -0.4617
17792TIP3    H174791   4.807   5.839   3.487 -1.0399 -0.1305 -1.3743
17792TIP3    H274792   4.786   5.987   3.465  0.2921  0.4864  1.3138
17793TIP3   OH274793   4.066   6.497   5.350  0.1670 -0.3014  0.2528
17793TIP3    H174794   4.157   6.498   5.322 -0.2609  1.7199 -1.2701
17793TIP3    H274795   4.025   6.428   5.297  0.4772 -0.0637 -0.3026
17794TIP3   OH274796   1.368   1.704   5.426  0.0331  0.2295 -0.6216
17794TIP3    H174797   1.422   1.703   5.347  2.4805 -0.4033  1.0296
17794TIP3    H274798   1.370   1.796   5.455  0.5424  0.1213 -0.3256
17795TIP3   OH274799   6.533   6.373   0.666 -0.2662 -0.7747 -0.7810
17795TIP3    H174800   6.531   6.311   0.740  1.3877  0.2849  0.1859
17795TIP3    H274801   6.455   6.427   0.679  0.5680  0.0746  0.7948
17796TIP3   OH274802   1.978   0.520   3.444 -0.4520  0.2556  0.4598
17796TIP3    H174803   2.024   0.485   3.367 -0.2496 -1.6007  1.4032
17796TIP3    H274804   1.960   0.611   3.421 -0.2122 -0.2003 -1.7227
17797TIP3   OH274805   5.545   5.745   3.011  0.3760 -0.2768 -0.4880
17797TIP3    H174806   5.503   5.706   3.088  2.1468 -0.4066  0.4346
17797TIP3    H274807   5.600   5.675   2.976  2.0534  0.7577  0.0228
17798TIP3   OH274808   2.669   4.890   2.805  0.3043 -0.4750  0.2206
17798TIP3    H174809   2.756   4.929   2.805  0.6772 -1.3067  0.0049
17798TIP3    H274810   2.636   4.905   2.716 -0.3463  1.0802  0.6943
17799TIP3   OH274811   5.361   4.661  12.695  0.2470 -0.4966 -0.6050
17799TIP3    H174812   5.405   4.670  12.611  0.2035  1.0678 -0.4709
17799TIP3    H274813   5.269   4.679  12.676  0.2064 -0.3201 -0.2448
17800TIP3   OH274814   3.200   4.037   2.127  0.4848 -0.1190 -0.1147
17800TIP3    H174815   3.106   4.036   2.144  0.2133  1.3617 -1.4693
17800TIP3    H274816   3.228   3.946   2.143 -1.4185 -0.9033 -1.0438
17801TIP3   OH274817   0.486   6.765  12.958  0.2704 -0.2581 -0.4025
17801TIP3    H174818   0.449   6.690  13.005  0.0192 -0.4811 -0.9443
17801TIP3    H274819   0.564   6.730  12.915 -0.2041 -0.3832 -1.1866
17802TIP3   OH274820   2.323   5.493   0.999  0.2349  0.4721  0.3361
17802TIP3    H174821   2.341   5.569   0.944  1.7963  1.4219  2.0847
17802TIP3    H274822   2.408   5.466   1.033 -0.5982 -0.4386  1.8034
17803TIP3   OH274823   0.327   5.273  11.953  0.1479 -0.3344  0.0974
17803TIP3    H174824   0.304   5.366  11.950 -0.8175 -0.5808 -0.8538
17803TIP3    H274825   0.261   5.231  11.896  1.4824 -1.3948 -0.6921
17804TIP3   OH274826   1.415   0.317  16.065 -0.5821  0.6726 -0.0754
17804TIP3    H174827   1.439   0.327  16.157 -0.8516  1.3071 -0.0701
17804TIP3    H274828   1.432   0.402  16.026  0.2594  0.1857 -0.7918
17805TIP3   OH274829   1.492   2.301   3.159 -0.1923 -0.3210 -0.5981
17805TIP3    H174830   1.411   2.351   3.171 -0.2410 -0.3134 -0.9458
17805TIP3    H274831   1.478   2.252   3.078 -0.1689 -0.9545 -0.2151
17806TIP3   OH274832   5.720   1.829  15.996 -0.3628 -0.6460 -0.7100
17806TIP3    H174833   5.739   1.884  15.920  0.4881 -0.6867 -0.5313
17806TIP3    H274834   5.799   1.834  16.050 -0.4865 -1.6102 -0.4268
17807TIP3   OH274835   6.326   4.479  15.912 -0.1560  0.0314  0.5289
17807TIP3    H174836   6.372   4.556  15.880  0.1545 -0.3622  0.0172
17807TIP3    H274837   6.324   4.419  15.837  1.3706 -1.2604  1.5114
17808TIP3   OH274838   5.627   0.683   1.209  0.0957 -0.0684 -0.3699
17808TIP3    H174839   5.695   0.641   1.262  1.8905  0.4718 -2.1839
17808TIP3    H274840   5.634   0.642   1.124 -1.2235  0.6720 -0.8428
17809TIP3   OH274841   5.274   6.180  11.477 -0.0348  0.4159 -0.5663
17809TIP3    H174842   5.241   6.104  11.524 -1.7360  2.4329  1.6416
17809TIP3    H274843   5.199   6.211  11.426 -0.4540  2.6132  1.2851
17810TIP3   OH274844   1.478   4.167   1.022  0.3874  0.0494  0.3194
17810TIP3    H174845   1.435   4.085   1.045  2.8245 -1.5448 -0.6850
17810TIP3    H274846   1.455   4.182   0.930 -0.1462  0.5653  0.5321
17811TIP3   OH274847   0.841   4.695   3.114 -0.0812 -0.3445  0.0869
17811TIP3    H174848   0.780   4.766   3.135 -0.3885  0.3700 -2.9707
17811TIP3    H274849   0.891   4.682   3.195 -2.2232  1.1195  1.7153
17812TIP3   OH274850   4.941   3.469   2.650 -0.4342  0.0799 -0.0663
17812TIP3    H174851   4.970   3.508   2.732 -0.7562  0.3288 -0.0671
17812TIP3    H274852   4.881   3.534   2.613  0.7452  0.5734 -1.1556
17813TIP3   OH274853   0.064   4.949   1.697  0.0399  0.1188 -0.4190
17813TIP3    H174854   0.051   4.933   1.603  0.5430 -0.1998 -0.4366
17813TIP3    H274855   0.032   5.038   1.711 -0.1446  0.1252 -0.8717
17814TIP3   OH274856   1.786   1.234   5.437 -0.2238 -0.0409  0.0393
17814TIP3    H174857   1.813   1.244   5.346  0.4399  0.4541  0.2777
17814TIP3    H274858   1.790   1.140   5.454 -0.7063 -0.1668 -0.5462
17815TIP3   OH274859   1.662   3.831  12.421  0.6219 -0.3553 -0.3512
17815TIP3    H174860   1.591   3.768  12.409  0.5176 -0.5539  1.2433
17815TIP3    H274861   1.720   3.817  12.346 -0.8454 -0.4090 -1.5005
17816TIP3   OH274862   5.078   6.533   1.706  0.4204 -0.4400 -0.1901
17816TIP3    H174863   5.116   6.543   1.794 -2.3946  1.8273  0.8368
17816TIP3    H274864   5.125   6.597   1.652  0.4977 -0.1077  0.2646
17817TIP3   OH274865   2.481   5.349  11.906 -0.4270 -0.4686  0.0898
17817TIP3    H174866   2.392   5.382  11.913 -0.7389 -1.0530 -1.0576
17817TIP3    H274867   2.522   5.404  11.839 -0.5280 -1.4669 -0.8118
17818TIP3   OH274868   5.224   0.807   1.365 -0.0194  0.0603  0.1650
17818TIP3    H174869   5.236   0.714   1.345  0.2115  0.4427 -1.6208
17818TIP3    H274870   5.154   0.835   1.306 -0.0585  1.0302  0.6632
17819TIP3   OH274871   3.531   1.317  15.629  0.0795  0.6404  0.6628
17819TIP3    H174872   3.528   1.396  15.575  0.3052  1.1703  1.4280
17819TIP3    H274873   3.616   1.319  15.671 -0.2897  0.4790  1.4206
17820TIP3   OH274874   6.052   4.477  11.641 -0.3235 -0.0260  0.2065
17820TIP3    H174875   5.977   4.524  11.604  0.2226  0.2877 -0.5232
17820TIP3    H274876   6.111   4.546  11.672 -0.1408 -0.2602  0.3856
17821TIP3   OH274877   2.335   3.112   5.315 -0.0179  0.3305 -0.2192
17821TIP3    H174878   2.378   3.080   5.394 -0.8678 -2.1808 -0.7305
17821TIP3    H274879   2.340   3.207   5.322  1.2960  0.1272  2.0861
17822TIP3   OH274880   2.136   2.957   0.971  0.1687 -0.2605 -0.7102
17822TIP3    H174881   2.232   2.966   0.970 -0.0017  2.5337  1.1305
17822TIP3    H274882   2.116   2.921   1.057 -0.5553  1.4940 -0.1158
17823TIP3   OH274883   3.629   6.581   1.949 -0.2414  0.6309  0.3158
17823TIP3    H174884   3.696   6.537   1.897  0.1725  2.0121 -0.3477
17823TIP3    H274885   3.640   6.674   1.930 -3.2959  0.8000 -0.9451
17824TIP3   OH274886   6.044   2.177  11.759  0.6968 -0.4801 -0.4292
17824TIP3    H174887   6.010   2.092  11.788  1.3401 -0.4208  0.5231
17824TIP3    H274888   5.980   2.207  11.695 -0.8402 -0.5681  0.9962
17825TIP3   OH274889   0.309   4.427   5.051  0.5010 -0.0616  0.1521
17825TIP3    H174890   0.275   4.393   4.968 -0.2368  1.8786 -0.3854
17825TIP3    H274891   0.283   4.363   5.117 -1.4995 -0.1576 -0.7105
17826TIP3   OH274892   2.595   5.487  11.599 -0.2312 -0.7150 -0.6695
17826TIP3    H174893   2.664   5.554  11.593 -0.8198  0.0258  0.6226
17826TIP3    H274894   2.515   5.537  11.615 -0.9000 -1.6490 -1.0851
17827TIP3   OH274895   1.841   3.099  12.111 -0.4825  0.0585 -0.0269
17827TIP3    H174896   1.850   3.194  12.118 -0.0717  0.1090 -1.0806
17827TIP3    H274897   1.874   3.065  12.194 -0.7156  0.8382  0.3894
17828TIP3   OH274898   5.089   2.088  16.734  0.3042 -0.3512  0.3504
17828TIP3    H174899   5.143   2.161  16.704 -0.2364 -0.0417  0.1263
17828TIP3    H274900   5.144   2.042  16.798  0.3112  0.7837  1.1826
17829TIP3   OH274901   4.958   3.436  15.796  0.4367 -0.5646  0.3163
17829TIP3    H174902   4.956   3.354  15.748  0.8234 -0.2555 -0.2328
17829TIP3    H274903   4.880   3.434  15.852  0.7889 -1.5881  0.7834
17830TIP3   OH274904   2.693   1.473   4.411  0.0369 -0.5059 -0.4838
17830TIP3    H174905   2.604   1.461   4.444 -0.8413  0.5676 -2.4210
17830TIP3    H274906   2.686   1.543   4.347  2.6252  0.8775  0.6665
17831TIP3   OH274907   3.782   0.691  12.616  0.4203  0.1139 -0.2776
17831TIP3    H174908   3.778   0.633  12.540  0.6625  0.7278 -0.7625
17831TIP3    H274909   3.759   0.778  12.582 -1.3130  0.0630  0.7147
17832TIP3   OH274910   3.194   3.918   2.394  0.1885  0.0228 -0.0078
17832TIP3    H174911   3.101   3.938   2.409  0.0882  0.2168 -0.8669
17832TIP3    H274912   3.194   3.826   2.365  0.3604 -0.2787  0.9346
17833TIP3   OH274913   5.597   5.144  16.328 -0.0501 -0.0887  0.0275
17833TIP3    H174914   5.619   5.105  16.413  0.2027 -0.4673 -0.2123
17833TIP3    H274915   5.592   5.238  16.346  1.5272 -0.0102  0.1372
17834TIP3   OH274916   2.312   0.034   1.189 -0.2703 -0.4077 -0.0590
17834TIP3    H174917   2.266   0.105   1.235  0.0929 -0.4561  0.3853
17834TIP3    H274918   2.255  -0.042   1.200  0.2806 -0.6572  1.1645
17835TIP3   OH274919   4.227   4.674   5.143  0.3484  0.8056 -0.2101
17835TIP3    H174920   4.160   4.616   5.105  3.0769 -0.8041 -2.8213
17835TIP3    H274921   4.195   4.762   5.125 -1.3340  0.0780 -0.9424
17836TIP3   OH274922   2.280   3.562   4.228 -0.6071 -0.2768 -0.0885
17836TIP3    H174923   2.215   3.630   4.249 -0.9716 -0.3384 -1.0103
17836TIP3    H274924   2.350   3.610   4.183  0.4669 -0.0407  1.8055
17837TIP3   OH274925   0.937   1.141   5.372 -0.0064 -0.2227  0.3902
17837TIP3    H174926   0.937   1.235   5.391 -1.7578 -0.5238  2.0350
17837TIP3    H274927   0.917   1.099   5.456  1.9550 -2.1542 -0.0412
17838TIP3   OH274928   6.013   6.568   1.334 -0.0309 -0.2520  0.3935
17838TIP3    H174929   6.076   6.504   1.303  0.0997  0.7761 -1.5212
17838TIP3    H274930   6.066   6.632   1.382 -0.0407 -1.0370  1.4724
17839TIP3   OH274931   2.757   4.975  16.471  0.3789 -0.2075  0.2477
17839TIP3    H174932   2.684   4.940  16.521 -0.3864 -1.0961 -1.4621
17839TIP3    H274933   2.816   5.012  16.538 -0.0454 -2.3864  1.8898
17840TIP3   OH274934   1.907   3.141   4.086 -0.5034 -0.0589 -0.2084
17840TIP3    H174935   1.918   3.065   4.030 -2.4607  0.3456 -1.2055
17840TIP3    H274936   1.830   3.120   4.140 -1.1647  1.2588 -0.6167
17841TIP3   OH274937   3.501   0.375   4.760 -0.0237 -0.5512 -0.3703
17841TIP3    H174938   3.485   0.298   4.815 -0.0938  0.0907  0.5237
17841TIP3    H274939   3.595   0.373   4.742  0.2713  0.0608  1.0414
17842TIP3   OH274940   5.105   4.507   1.585 -0.3633  0.0920  1.0781
17842TIP3    H174941   5.141   4.527   1.672  1.3032 -0.0510  0.4476
17842TIP3    H274942   5.164   4.553   1.525 -3.1231  2.5091  0.1351
17843TIP3   OH274943   0.092   4.093   5.814 -0.3300 -0.0729 -0.6371
17843TIP3    H174944   0.074   4.012   5.765 -1.2070 -0.0934 -0.2884
17843TIP3    H274945   0.185   4.087   5.837 -0.7486 -1.6924  0.6934
17844TIP3   OH274946   1.692   1.170   3.226 -0.0900 -0.1055  0.1083
17844TIP3    H174947   1.691   1.080   3.195 -0.5787 -0.0594 -0.0157
17844TIP3    H274948   1.669   1.164   3.319 -0.6491 -0.0616 -0.0265
17845TIP3   OH274949   5.504   0.307  15.411 -0.0928  0.0147 -0.1526
17845TIP3    H174950   5.472   0.397  15.418 -2.5726 -0.9125  0.9941
17845TIP3    H274951   5.451   0.267  15.342  2.6722  0.0764 -2.3970
17846TIP3   OH274952   1.002   1.916   4.807  0.0834  0.0850  0.2663
17846TIP3    H174953   1.037   1.988   4.861 -0.4832  1.2743 -0.9289
17846TIP3    H274954   1.036   1.934   4.719 -1.0707 -0.4204 -0.2923
17847TIP3   OH274955   0.581   2.980   5.625  0.1911 -0.3165  0.2636
17847TIP3    H174956   0.659   3.025   5.596 -0.4549  1.0505  0.6253
17847TIP3    H274957   0.536   3.042   5.683  0.2128 -2.0652  2.2428
17848TIP3   OH274958   4.637   2.202   0.669  0.0771  0.1107  0.3962
17848TIP3    H174959   4.606   2.157   0.747  0.3813  1.6620  1.4412
17848TIP3    H274960   4.732   2.208   0.681  0.3293 -1.0330 -0.8568
17849TIP3   OH274961   4.985   3.859  16.544 -0.1831 -0.3845  0.4793
17849TIP3    H174962   4.980   3.790  16.479  0.5398  1.4863 -1.6480
17849TIP3    H274963   5.058   3.834  16.601  1.3039 -0.4786 -1.4080
17850TIP3   OH274964   1.846   4.872  15.735 -0.2891  0.5174 -0.3173
17850TIP3    H174965   1.800   4.819  15.670 -0.5935 -0.9890  1.0904
17850TIP3    H274966   1.781   4.934  15.765 -0.3171  0.8359 -1.0214
17851TIP3   OH274967   1.990   1.599   1.121  0.7271 -0.3546  0.1480
17851TIP3    H174968   1.894   1.598   1.122  0.6829 -2.8152 -1.6227
17851TIP3    H274969   2.015   1.506   1.116  3.2268  0.2139  1.3320
17852TIP3   OH274970   5.780   1.757   3.637 -0.2036  0.0049 -0.0580
17852TIP3    H174971   5.819   1.698   3.701 -0.4584 -0.3828 -0.2604
17852TIP3    H274972   5.843   1.759   3.565  0.5501  1.2003  0.6127
17853TIP3   OH274973   3.540   3.433   5.597  0.2398  0.2152 -0.3286
17853TIP3    H174974   3.532   3.504   5.534  1.0846 -0.6556 -1.4493
17853TIP3    H274975   3.505   3.356   5.551 -0.9033 -0.0433  0.9565
17854TIP3   OH274976   1.734   4.697   0.971 -0.3259 -0.2889  0.5555
17854TIP3    H174977   1.823   4.708   1.004 -0.1011 -0.0265 -0.1267
17854TIP3    H274978   1.745   4.647   0.890 -0.8962 -1.2208  1.0456
17855TIP3   OH274979   1.777   1.200  12.400  0.0716 -0.1711 -0.7611
17855TIP3    H174980   1.803   1.263  12.333 -0.0547 -0.3486 -0.9761
17855TIP3    H274981   1.849   1.200  12.463  0.0315  0.2545 -0.7161
17856TIP3   OH274982   2.839   4.502  14.934 -0.0467 -0.4876 -0.4551
17856TIP3    H174983   2.744   4.515  14.924 -0.4765 -2.1179  1.2174
17856TIP3    H274984   2.868   4.474  14.848 -1.2092 -0.6995 -0.7930
17857TIP3   OH274985   3.747   1.512  14.942  0.2481 -0.2949  0.4560
17857TIP3    H174986   3.689   1.556  15.003 -0.7465  1.5815 -1.7445
17857TIP3    H274987   3.824   1.489  14.994 -0.5372  1.2835  2.3826
17858TIP3   OH274988   2.005   5.857  13.782 -0.5713  0.3269  0.1204
17858TIP3    H174989   2.083   5.853  13.837 -0.5656  1.3612  0.2023
17858TIP3    H274990   2.022   5.928  13.721 -1.5034  0.6549  0.2272
17859TIP3   OH274991   1.472   2.160  15.685  0.2951  0.4335  0.4784
17859TIP3    H174992   1.532   2.105  15.735  0.5032 -0.6497 -0.9253
17859TIP3    H274993   1.454   2.110  15.605 -1.9472  1.0433  0.5527
17860TIP3   OH274994   4.892   0.393   1.990  0.3932 -0.7389  0.2442
17860TIP3    H174995   4.934   0.412   1.906  0.5654  1.2442  0.7362
17860TIP3    H274996   4.823   0.330   1.970  1.0612 -1.0158 -1.2181
17861TIP3   OH274997   0.375   3.069   4.995 -0.0053  0.3874  0.5542
17861TIP3    H174998   0.444   3.079   4.931 -0.7745 -0.2105 -0.3794
17861TIP3    H274999   0.415   3.019   5.066  0.3272 -0.5163 -0.2701
17862TIP3   OH275000   3.239   1.465  13.405  0.0566  0.2326 -0.5972
17862TIP3    H175001   3.218   1.511  13.323  2.0332  0.1269 -1.1736
17862TIP3    H275002   3.177   1.392  13.408 -1.3498  1.3782 -0.9994
17863TIP3   OH275003   6.546   2.510   6.525  0.2187  0.4228 -0.0263
17863TIP3    H175004   6.480   2.569   6.562  1.2477  0.5131  1.7119
17863TIP3    H275005   6.535   2.518   6.430 -1.6711  1.1023  0.2402
17864TIP3   OH275006   0.483   5.510  13.548 -0.1933 -0.2964 -0.3956
17864TIP3    H175007   0.505   5.418  13.534 -0.4125 -0.2617 -0.9504
17864TIP3    H275008   0.491   5.522  13.643  1.6266 -0.4186 -0.5219
17865TIP3   OH275009   1.621   4.130  14.787 -1.1001  0.5608  0.3261
17865TIP3    H175010   1.640   4.172  14.871  0.5169  0.7870 -0.1384
17865TIP3    H275011   1.535   4.164  14.762 -1.7427  0.2252  2.0470
17866TIP3   OH275012   6.226   5.249  12.296  0.5532  0.3829  0.2542
17866TIP3    H175013   6.305   5.226  12.344  1.6589  0.8400 -1.2950
17866TIP3    H275014   6.205   5.171  12.245  0.1002  0.3213  0.5322
17867TIP3   OH275015   4.203   0.076   3.567 -0.0077 -0.0260 -0.9043
17867TIP3    H175016   4.225   0.021   3.492  1.6855 -0.9642  0.2573
17867TIP3    H275017   4.285   0.121   3.589 -1.1845  2.4240 -1.3885
17868TIP3   OH275018   1.760   3.484  14.397 -0.3513 -0.0226 -0.2674
17868TIP3    H175019   1.807   3.407  14.368 -1.1538 -0.7695  0.4012
17868TIP3    H275020   1.786   3.553  14.335  1.2933 -0.5087 -0.1301
17869TIP3   OH275021   5.739   2.183  11.315 -0.2261 -0.0151  0.4999
17869TIP3    H175022   5.713   2.118  11.250  1.2783  0.4933 -0.6418
17869TIP3    H275023   5.792   2.133  11.378 -0.6470 -0.2573  0.6656
17870TIP3   OH275024   2.267   5.615  14.997 -0.2041 -0.1127 -0.4844
17870TIP3    H175025   2.181   5.618  15.040 -0.6266 -0.2875 -1.3162
17870TIP3    H275026   2.274   5.526  14.963  0.2748 -0.0728 -0.4929
17871TIP3   OH275027   6.260   0.446   1.783 -0.3314 -0.0168 -0.3433
17871TIP3    H175028   6.288   0.537   1.783 -0.7316  0.1110  0.0176
17871TIP3    H275029   6.303   0.407   1.707 -1.6017  0.9273 -1.5629
17872TIP3   OH275030   2.960   4.736   0.185  0.3052  0.2292  0.2254
17872TIP3    H175031   2.914   4.726   0.269  0.4770  3.0132  0.7311
17872TIP3    H275032   2.903   4.695   0.121 -1.2530  0.6299  1.3279
17873TIP3   OH275033   2.653   6.174  13.048  0.1941  0.2241  0.7815
17873TIP3    H175034   2.634   6.267  13.063  1.7446  0.5656  0.7945
17873TIP3    H275035   2.586   6.145  12.986  1.5108  2.1815 -1.6855
17874TIP3   OH275036   1.483   4.131  11.261  0.4706  0.0532  0.2607
17874TIP3    H175037   1.490   4.141  11.166  2.1264 -1.4099  0.2041
17874TIP3    H275038   1.466   4.037  11.274  1.6848  0.0006  1.4698
17875TIP3   OH275039   6.174   1.020   0.514  0.5219  0.5823  0.0476
17875TIP3    H175040   6.225   0.982   0.585 -0.1373 -2.1264 -0.8827
17875TIP3    H275041   6.220   1.102   0.493  1.2707  0.9423  2.9010
17876TIP3   OH275042   2.943   4.261   0.330 -0.4640  0.0979  0.0234
17876TIP3    H175043   2.936   4.166   0.320  1.1911  0.0274 -0.6899
17876TIP3    H275044   2.910   4.279   0.418 -1.2178 -1.0803 -0.0123
17877TIP3   OH275045   0.769   0.536  15.179  0.1132  0.2651  0.1916
17877TIP3    H175046   0.769   0.486  15.260  0.2378  0.2078  0.1580
17877TIP3    H275047   0.797   0.474  15.112 -1.3756 -0.0627 -0.1420
17878TIP3   OH275048   5.220   2.386  13.875  0.1959 -0.2191  0.4185
17878TIP3    H175049   5.224   2.315  13.810  4.0547  0.3417 -0.1361
17878TIP3    H275050   5.228   2.342  13.959 -1.4729 -0.7167  0.3271
17879TIP3   OH275051   3.982   1.219   1.056  0.3363 -0.2358 -0.2763
17879TIP3    H175052   3.975   1.314   1.071 -2.8752 -0.3993 -0.3894
17879TIP3    H275053   3.991   1.182   1.144 -0.0952  0.0685 -0.0989
17880TIP3   OH275054   5.228   5.640   3.785 -0.1818  0.1598 -0.2133
17880TIP3    H175055   5.135   5.625   3.774 -0.3407  0.5952  0.4577
17880TIP3    H275056   5.246   5.614   3.876  0.3627 -0.0096 -0.3675
17881TIP3   OH275057   5.203   5.686  16.858 -0.4541  0.0122  0.8262
17881TIP3    H175058   5.204   5.776  16.889 -0.5117  0.2103  0.2465
17881TIP3    H275059   5.141   5.642  16.916 -1.3937  0.6286  0.2880
17882TIP3   OH275060   3.655   6.562   2.568  0.1704  0.3984  0.3550
17882TIP3    H175061   3.645   6.596   2.657  1.7112  0.7123  0.4285
17882TIP3    H275062   3.703   6.480   2.579  1.7821  1.2369 -0.2968
17883TIP3   OH275063   0.864   2.055   1.030  0.0885  0.2091 -0.6398
17883TIP3    H175064   0.859   1.981   0.969 -3.3566 -0.3508  0.2288
17883TIP3    H275065   0.805   2.121   0.992  0.7449  1.2944  0.2093
17884TIP3   OH275066   5.694   2.666  12.720 -0.2402 -0.1866  0.2913
17884TIP3    H175067   5.730   2.579  12.737  0.7290  0.0515 -0.4761
17884TIP3    H275068   5.642   2.686  12.797 -0.4544 -1.4372  0.4852
17885TIP3   OH275069   2.747   4.796   3.502 -0.2060  0.1635  0.3749
17885TIP3    H175070   2.760   4.750   3.419  3.2851  0.5960  0.6029
17885TIP3    H275071   2.778   4.885   3.486 -3.3561  1.4277  1.0210
17886TIP3   OH275072   4.824   2.698   3.556 -0.1693  0.4630 -0.0981
17886TIP3    H175073   4.833   2.711   3.461  2.5856  1.1588  0.2232
17886TIP3    H275074   4.892   2.753   3.595 -0.4950 -0.7218  2.2373
17887TIP3   OH275075   2.424   3.286  13.706 -0.2013  0.3209 -0.3064
17887TIP3    H175076   2.483   3.279  13.781 -0.7483  0.7488  0.1610
17887TIP3    H275077   2.443   3.208  13.653  0.5043  0.2601  0.0433
17888TIP3   OH275078   6.752   0.500  10.522 -0.1602 -0.0484  0.2623
17888TIP3    H175079   6.772   0.410  10.497  4.0721  0.8192  0.1478
17888TIP3    H275080   6.799   0.514  10.604  0.6712  2.5380 -0.5937
17889TIP3   OH275081   0.344   2.239   5.792 -0.2087  0.1456  0.3708
17889TIP3    H175082   0.408   2.202   5.732 -0.8652 -0.2086 -0.1136
17889TIP3    H275083   0.388   2.316   5.829  0.9419 -0.7845  0.9709
17890TIP3   OH275084   2.001   0.708   1.389  0.3789 -1.0786 -0.3277
17890TIP3    H175085   2.045   0.695   1.304  0.5801 -0.7490 -0.2743
17890TIP3    H275086   1.909   0.688   1.372  0.5381 -1.7306 -0.4543
17891TIP3   OH275087   0.760   1.663   4.062 -0.1388 -0.7881  0.0594
17891TIP3    H175088   0.807   1.619   3.992 -0.2160 -1.0505  0.1718
17891TIP3    H275089   0.733   1.593   4.121  0.1534 -0.5377  0.4869
17892TIP3   OH275090   6.542   2.200  13.510  0.5495  0.3866  0.2411
17892TIP3    H175091   6.482   2.270  13.535  0.9765  1.1513 -0.8431
17892TIP3    H275092   6.625   2.223  13.551  0.6498  0.4424  0.0085
17893TIP3   OH275093   2.885   1.184  12.205 -0.5156 -0.3115 -0.1074
17893TIP3    H175094   2.852   1.097  12.181 -0.2977 -1.0191  2.0752
17893TIP3    H275095   2.970   1.190  12.162 -0.7448 -0.9782 -0.6683
17894TIP3   OH275096   2.170   4.944   2.383 -0.5949 -0.3990 -0.2931
17894TIP3    H175097   2.152   4.852   2.401 -2.2970 -0.1544 -0.6313
17894TIP3    H275098   2.196   4.945   2.290  1.4211 -0.7762  0.2439
17895TIP3   OH275099   1.666   5.991   0.597 -0.1283  0.1979  0.0849
17895TIP3    H175100   1.683   5.995   0.502  2.6564  1.1450  0.5560
17895TIP3    H275101   1.663   6.083   0.624  1.2672 -0.0725  1.2242
17896TIP3   OH275102   0.246   3.807   1.154  0.1901  0.2016 -0.6381
17896TIP3    H175103   0.318   3.859   1.118  0.7150  0.3596  0.6124
17896TIP3    H275104   0.188   3.872   1.193 -0.1721 -0.0008 -0.8374
17897TIP3   OH275105   3.001   5.484  14.977  0.3059 -0.5639 -0.3473
17897TIP3    H175106   3.057   5.407  14.991 -0.7513 -1.3248 -0.2325
17897TIP3    H275107   3.058   5.558  14.995  0.9814 -1.3580  0.8972
17898TIP3   OH275108   5.694   3.340  12.287  0.0157 -0.2440  0.2881
17898TIP3    H175109   5.744   3.309  12.363  0.4032 -0.4251 -0.0362
17898TIP3    H275110   5.760   3.377  12.228 -0.0369 -1.7265 -0.7546
17899TIP3   OH275111   5.229   3.890   0.959  0.2405  0.5208 -0.5592
17899TIP3    H175112   5.267   3.871   1.045  0.8309 -0.4782 -1.0303
17899TIP3    H275113   5.196   3.806   0.927  4.2862 -0.1836 -3.3423
17900TIP3   OH275114   3.625   4.091  11.831  0.3936  0.4982 -0.0490
17900TIP3    H175115   3.629   4.144  11.911 -2.6884 -1.2182  1.3656
17900TIP3    H275116   3.599   4.004  11.862  1.0084 -0.6867 -2.7501
17901TIP3   OH275117   5.604   5.013  14.334  0.2217  0.3054 -0.2382
17901TIP3    H175118   5.521   5.032  14.290  0.6655 -0.5229 -1.4713
17901TIP3    H275119   5.596   5.054  14.420 -0.7364  1.8223 -1.0326
17902TIP3   OH275120   6.129   2.058   5.770 -0.1475 -0.7981  0.1587
17902TIP3    H175121   6.063   2.067   5.839 -2.1125 -0.8654 -1.6511
17902TIP3    H275122   6.180   1.981   5.796 -1.7547 -1.6650  0.8234
17903TIP3   OH275123   3.691   0.787  11.852 -0.1305  0.2339 -0.2658
17903TIP3    H175124   3.691   0.761  11.760 -0.0610  1.0703 -0.5056
17903TIP3    H275125   3.673   0.881  11.851 -0.1556  0.2464  0.5747
17904TIP3   OH275126   3.252   1.132  12.699 -0.1373 -0.1429 -0.2177
17904TIP3    H175127   3.342   1.144  12.668  0.4356 -1.6733  0.8008
17904TIP3    H275128   3.257   1.145  12.793 -0.9948 -0.2072 -0.1592
17905TIP3   OH275129   4.239   0.026  15.207 -0.4289  0.0821  0.4054
17905TIP3    H175130   4.226   0.020  15.112  0.3529  0.0913  0.2962
17905TIP3    H275131   4.162  -0.017  15.244  0.6240 -2.4674 -0.2706
17906TIP3   OH275132   3.371   3.780   2.161 -0.1159 -0.4116 -0.2068
17906TIP3    H175133   3.308   3.731   2.215  0.9416 -1.0809  0.4309
17906TIP3    H275134   3.417   3.836   2.224  2.3713 -2.4927 -0.0992
17907TIP3   OH275135   4.387   6.083   5.044 -0.2867 -0.3818  0.2111
17907TIP3    H175136   4.313   6.071   5.104 -0.6906 -0.4759 -0.2988
17907TIP3    H275137   4.398   6.178   5.038 -0.7093 -0.3561 -0.1306
17908TIP3   OH275138   0.688   0.614  13.753 -0.0678 -0.1535  0.3146
17908TIP3    H175139   0.605   0.648  13.719  0.6501  0.4230 -0.8700
17908TIP3    H275140   0.716   0.550  13.688  0.3127 -0.5214  0.8327
17909TIP3   OH275141   4.935   3.308   2.420 -0.8796  0.0461  0.1877
17909TIP3    H175142   4.936   3.361   2.499 -0.2053 -0.5586  0.5841
17909TIP3    H275143   5.011   3.250   2.428 -0.5702  0.2488 -1.0781
17910TIP3   OH275144   6.296   4.766  13.510  0.5768 -0.3194  0.2451
17910TIP3    H175145   6.229   4.728  13.567 -0.6118  0.8236 -0.3528
17910TIP3    H275146   6.370   4.706  13.516 -0.8876 -2.1756  0.0918
17911TIP3   OH275147   5.316   4.182   3.824  0.2121 -0.2763 -0.0533
17911TIP3    H175148   5.409   4.183   3.800  0.3852 -1.7802  0.4660
17911TIP3    H275149   5.314   4.226   3.909  0.2406  1.0435 -0.7331
17912TIP3   OH275150   5.924   1.174  12.541  0.1664 -0.0046 -0.0430
17912TIP3    H175151   5.992   1.236  12.513 -0.7946  0.8553 -0.5175
17912TIP3    H275152   5.846   1.228  12.552 -0.3136 -0.9071  0.9960
17913TIP3   OH275153   5.266   4.968   3.638  0.4615 -0.4531  0.2764
17913TIP3    H175154   5.263   4.987   3.731 -3.3827  1.4029 -0.1398
17913TIP3    H275155   5.239   5.049   3.596 -1.4112 -2.3319 -2.2807
17914TIP3   OH275156   0.620   3.765  13.819  0.6826  0.1470 -0.0014
17914TIP3    H175157   0.538   3.787  13.863  0.9829 -2.3596  1.9195
17914TIP3    H275158   0.593   3.709  13.746  0.4921  1.5386 -1.0315
17915TIP3   OH275159   4.472   5.518   3.768 -0.2918  0.4558  0.2198
17915TIP3    H175160   4.449   5.547   3.680  0.2897 -0.3346 -0.2007
17915TIP3    H275161   4.536   5.583   3.798 -1.5237  1.5185  0.6175
17916TIP3   OH275162   3.092   1.767  15.726 -0.2709  0.5800  0.4083
17916TIP3    H175163   3.108   1.743  15.818 -1.2227 -0.4756  0.3049
17916TIP3    H275164   3.178   1.758  15.684 -0.2309 -0.8264  0.7825
17917TIP3   OH275165   1.257   4.148  14.298  0.3777  0.3533 -0.2758
17917TIP3    H175166   1.305   4.143  14.216  0.7980 -2.1508  0.0734
17917TIP3    H275167   1.166   4.128  14.274  0.0824  1.8851 -0.4588
17918TIP3   OH275168   5.080   1.433  10.763  0.2721  0.0306 -0.2639
17918TIP3    H175169   5.125   1.353  10.736 -0.9428  0.1305 -2.7330
17918TIP3    H275170   5.070   1.484  10.682 -3.3375  0.4555  0.3434
17919TIP3   OH275171   2.168   6.701  12.729  0.3835 -0.2062 -0.6626
17919TIP3    H175172   2.213   6.784  12.712  1.7328 -0.6294  0.6818
17919TIP3    H275173   2.076   6.725  12.740  0.7435  1.1030 -0.4036
17920TIP3   OH275174   2.551   5.686  14.388 -0.2584 -0.3591 -0.0029
17920TIP3    H175175   2.489   5.678  14.461 -2.3512  0.7475 -1.6078
17920TIP3    H275176   2.505   5.650  14.313  1.6098 -0.8202 -0.9516
17921TIP3   OH275177   0.886   2.520  11.470 -0.0615  0.3524 -0.1824
17921TIP3    H175178   0.822   2.562  11.527 -0.4166 -0.1193 -0.2353
17921TIP3    H275179   0.971   2.543  11.509 -0.2025  1.8728 -0.7173
17922TIP3   OH275180   3.384   1.401   4.344 -0.6866 -0.4549  0.0636
17922TIP3    H175181   3.372   1.364   4.431 -1.0888 -0.7167 -0.1026
17922TIP3    H275182   3.462   1.356   4.310 -1.5866 -1.6786 -0.4153
17923TIP3   OH275183   1.792   2.086   1.666 -0.5348 -0.5426  0.2397
17923TIP3    H175184   1.801   2.104   1.572  1.6293 -0.8058  0.3584
17923TIP3    H275185   1.711   2.035   1.673 -0.3595 -1.1279 -1.5894
17924TIP3   OH275186   3.764   5.997  13.974 -0.6370  0.1742  0.0973
17924TIP3    H175187   3.686   5.948  13.947 -0.2679 -0.4909  0.2231
17924TIP3    H275188   3.837   5.937  13.958 -0.1100  0.9353 -0.3811
17925TIP3   OH275189   3.034   5.727  13.077 -0.1544 -0.0061  0.4426
17925TIP3    H175190   2.943   5.700  13.066  0.2935 -1.1717 -0.5407
17925TIP3    H275191   3.079   5.689  13.001  0.9865  1.2929  0.4542
17926TIP3   OH275192   2.837   6.447   3.363 -0.0083  0.4703  0.3942
17926TIP3    H175193   2.774   6.425   3.294  1.4865 -1.7144 -0.3644
17926TIP3    H275194   2.785   6.485   3.433 -1.9344  0.2096 -0.8703
17927TIP3   OH275195   2.976   5.848  14.820  0.2515 -0.1633 -0.1997
17927TIP3    H175196   2.894   5.879  14.860 -0.6994 -1.4474 -1.1153
17927TIP3    H275197   3.036   5.838  14.893  0.3277  2.9826  0.2444
17928TIP3   OH275198   1.402   0.776  17.119 -0.0261 -0.4332 -0.0243
17928TIP3    H175199   1.362   0.820  17.195  0.0251 -0.2171 -0.1232
17928TIP3    H275200   1.443   0.698  17.156 -2.5227 -1.9019 -0.2473
17929TIP3   OH275201   1.356   5.967   6.321  0.0820 -0.2026 -0.3600
17929TIP3    H175202   1.422   5.902   6.295 -0.4569 -0.3117 -1.4405
17929TIP3    H275203   1.389   6.050   6.286  0.1454 -0.0883 -0.0351
17930TIP3   OH275204   6.741   3.405   4.633 -0.3157  0.1849 -0.0462
17930TIP3    H175205   6.836   3.410   4.633 -0.1594 -2.1644 -1.3579
17930TIP3    H275206   6.720   3.330   4.688 -1.3572  0.1836 -0.4314
17931TIP3   OH275207   4.725   3.085  11.586  0.4321  0.3827  0.4476
17931TIP3    H175208   4.712   2.991  11.596  2.5095  0.0260  0.0288
17931TIP3    H275209   4.772   3.094  11.503 -1.5681  1.9652 -0.5519
17932TIP3   OH275210   4.757   5.815  17.105 -0.3892 -0.1451  0.6788
17932TIP3    H175211   4.715   5.767  17.034  0.5551 -0.5062  0.3583
17932TIP3    H275212   4.706   5.896  17.114 -0.1551  0.1684 -0.8048
17933TIP3   OH275213   4.447   3.841  14.485 -0.0301  0.2946  0.5388
17933TIP3    H175214   4.495   3.918  14.455  0.3935 -0.7526 -1.5545
17933TIP3    H275215   4.507   3.798  14.546 -0.3163  1.6687  1.8134
17934TIP3   OH275216   0.740   3.080  14.281  0.0780  0.1089 -0.5036
17934TIP3    H175217   0.825   3.043  14.303 -0.4001 -0.5881  0.2168
17934TIP3    H275218   0.680   3.042  14.345 -0.6334  1.2334 -0.4765
17935TIP3   OH275219   1.175   6.452  11.207  0.3937 -0.1221  0.1898
17935TIP3    H175220   1.212   6.509  11.140  2.9585 -2.2507 -0.2825
17935TIP3    H275221   1.082   6.445  11.184  0.1612  3.2583 -0.1011
17936TIP3   OH275222   5.415   0.844  13.961  0.4158 -0.0976  0.7352
17936TIP3    H175223   5.441   0.755  13.936  1.1972  0.1295  0.7348
17936TIP3    H275224   5.437   0.850  14.053  0.7828  0.2488  0.6248
17937TIP3   OH275225   4.592   4.056  14.380 -1.0897 -0.3711  0.1260
17937TIP3    H175226   4.658   3.986  14.384  0.6803  1.2829  1.2329
17937TIP3    H275227   4.530   4.027  14.314  0.2197 -2.4694 -0.2353
17938TIP3   OH275228   2.548   4.708   1.276  0.0866 -0.1476  0.0115
17938TIP3    H175229   2.598   4.639   1.233  1.2731 -0.4068  1.7917
17938TIP3    H275230   2.583   4.789   1.239  0.2603 -0.4105 -0.4002
17939TIP3   OH275231   1.176   0.193   2.003  0.0893  0.5303 -0.0321
17939TIP3    H175232   1.092   0.223   2.036 -0.2838 -0.8463  0.3034
17939TIP3    H275233   1.198   0.255   1.933 -0.8220  1.3489  0.3991
17940TIP3   OH275234   5.656   6.021  16.576  0.0571  0.4077  0.5752
17940TIP3    H175235   5.749   5.999  16.573 -0.1275 -0.3466  0.0679
17940TIP3    H275236   5.621   5.971  16.650 -0.0436  0.2726  0.4375
17941TIP3   OH275237   4.563   3.297   4.636 -0.0721 -0.5938 -0.1443
17941TIP3    H175238   4.646   3.344   4.629 -0.7784  0.7839  0.4330
17941TIP3    H275239   4.519   3.313   4.553 -0.0496 -0.7441 -0.1852
17942TIP3   OH275240   3.479   4.801  12.237 -0.6032 -0.0711  0.2871
17942TIP3    H175241   3.454   4.814  12.146 -0.6936  0.1892  0.3504
17942TIP3    H275242   3.552   4.861  12.252  0.6226 -1.4217 -0.1352
17943TIP3   OH275243   3.845   4.339   4.620  0.3012 -0.2929  0.3696
17943TIP3    H175244   3.824   4.370   4.708  0.7875  0.9343  0.0521
17943TIP3    H275245   3.930   4.296   4.630  0.4315 -0.0123  0.4607
17944TIP3   OH275246   4.278   5.781   0.771  0.1203 -0.1935  0.1708
17944TIP3    H175247   4.218   5.735   0.712 -2.4534  2.2426  0.7722
17944TIP3    H275248   4.289   5.722   0.845 -2.5610 -0.1892  0.6130
17945TIP3   OH275249   2.888   3.935   3.537  0.0904 -0.2141 -0.0363
17945TIP3    H175250   2.829   3.983   3.478 -2.9125 -0.8913  2.2938
17945TIP3    H275251   2.880   3.844   3.509  0.6613 -0.2054 -0.2286
17946TIP3   OH275252   5.265   0.549   0.368  0.4988  0.3258 -0.0438
17946TIP3    H175253   5.251   0.470   0.420 -0.4660 -0.0470 -0.8497
17946TIP3    H275254   5.359   0.550   0.351  0.4910 -0.7818 -0.2219
17947TIP3   OH275255   3.546   2.254   1.240  0.2957 -0.9093 -0.6894
17947TIP3    H175256   3.506   2.171   1.212  0.1333 -0.0348 -3.1645
17947TIP3    H275257   3.619   2.227   1.296 -1.0814 -2.6491  0.3454
17948TIP3   OH275258   1.630   3.735   0.096 -0.5849  0.0706  0.3229
17948TIP3    H175259   1.535   3.747   0.097 -0.7102 -0.9053  0.2640
17948TIP3    H275260   1.651   3.695   0.180 -0.6768 -2.9672 -1.0250
17949TIP3   OH275261   1.725   4.285   5.342  0.0147  0.2407 -0.5709
17949TIP3    H175262   1.792   4.226   5.309 -0.0493 -0.1182 -0.0651
17949TIP3    H275263   1.734   4.365   5.290 -0.2358 -0.4057 -1.6053
17950TIP3   OH275264   5.487   1.437   3.136  0.0062 -0.2608  0.2981
17950TIP3    H175265   5.517   1.440   3.227 -3.7645 -2.8215  1.7307
17950TIP3    H275266   5.547   1.376   3.093  0.1272 -1.2089  1.7837
17951TIP3   OH275267   3.993   1.386   4.755  0.6781 -0.1165 -0.3864
17951TIP3    H175268   3.957   1.462   4.799  1.5417 -0.0895  0.2864
17951TIP3    H275269   3.991   1.408   4.662 -0.1541  0.2524 -0.2807
17952TIP3   OH275270   1.529   1.135   5.331  0.0428 -0.4539  0.0131
17952TIP3    H175271   1.571   1.155   5.414  0.9953 -0.1061 -0.5438
17952TIP3    H275272   1.455   1.079   5.354  0.5684 -0.7334  1.0524
17953TIP3   OH275273   6.059   5.773   3.501  0.1462 -0.1542 -0.3224
17953TIP3    H175274   6.039   5.802   3.412 -1.1238  1.3141  0.4024
17953TIP3    H275275   6.145   5.733   3.495 -0.7293 -1.8036 -2.5750
17954TIP3   OH275276   1.790   6.494  14.831  0.2805  0.8873 -0.6993
17954TIP3    H175277   1.751   6.558  14.772  1.6152  0.8495 -1.6356
17954TIP3    H275278   1.734   6.417  14.823 -1.3024  1.8902  0.3934
17955TIP3   OH275279   3.109   2.031   3.410  0.1106  0.1244  0.0749
17955TIP3    H175280   3.014   2.023   3.409  0.0315  0.6729 -3.5292
17955TIP3    H275281   3.141   1.941   3.398 -0.0354  0.2972 -1.7080
17956TIP3   OH275282   1.680   5.345  13.717  0.3834 -0.3568  0.0669
17956TIP3    H175283   1.617   5.358  13.787  0.9602 -1.4433  0.7974
17956TIP3    H275284   1.633   5.297  13.650  0.1447 -0.2948  0.1910
17957TIP3   OH275285   1.272   3.911   2.709  0.3757 -0.0151 -0.2771
17957TIP3    H175286   1.196   3.962   2.736  1.0986  1.0141 -0.1786
17957TIP3    H275287   1.278   3.841   2.775  0.0465  0.4119  0.2135
17958TIP3   OH275288   4.997   5.184   3.897  0.6145  0.3866  0.1017
17958TIP3    H175289   4.960   5.210   3.982  1.3689  0.1866  0.4991
17958TIP3    H275290   5.089   5.209   3.903  0.7606 -0.0007 -0.5086
17959TIP3   OH275291   1.904   0.689  14.005  0.4190  0.0600 -0.6071
17959TIP3    H175292   1.817   0.649  14.010  1.2039 -1.7453 -1.0094
17959TIP3    H275293   1.894   0.759  13.940 -0.6026 -0.4337 -0.9987
17960TIP3   OH275294   5.169   6.545  16.017 -0.2337 -0.5747  0.0431
17960TIP3    H175295   5.173   6.570  16.109  2.3281 -0.2015 -0.1165
17960TIP3    H275296   5.202   6.622  15.970  0.3738 -1.4673 -1.0158
17961TIP3   OH275297   2.619   5.667   1.377 -0.3081 -0.5674  0.1491
17961TIP3    H175298   2.674   5.743   1.396 -2.2433  0.9354 -0.1028
17961TIP3    H275299   2.656   5.596   1.431  0.0819  1.1634  2.2325
17962TIP3   OH275300   5.963   5.095   5.707 -0.7237 -0.5528  0.1998
17962TIP3    H175301   6.029   5.147   5.753 -0.1730  0.3819 -1.6150
17962TIP3    H275302   5.950   5.019   5.764 -0.1211  0.5920  1.9398
17963TIP3   OH275303   4.794   6.728   3.087  0.0787 -0.3737  0.3652
17963TIP3    H175304   4.784   6.818   3.056  2.5451 -0.1933  0.0186
17963TIP3    H275305   4.737   6.722   3.163 -1.2876  1.0058 -0.5211
17964TIP3   OH275306   4.163   0.086  14.284 -0.2334 -0.3652 -0.0896
17964TIP3    H175307   4.098   0.120  14.222 -0.9848  1.2983  1.5448
17964TIP3    H275308   4.116   0.080  14.367  1.2524 -0.7552  0.7435
17965TIP3   OH275309   4.683   3.560  11.713 -0.1297  0.0893 -0.1614
17965TIP3    H175310   4.680   3.501  11.638  0.1562  0.6263 -0.5956
17965TIP3    H275311   4.633   3.515  11.781  1.8702 -1.6354  0.2165
17966TIP3   OH275312   1.371   2.715  15.306  0.2538 -0.4914 -0.2748
17966TIP3    H175313   1.421   2.784  15.349  1.5262  0.2512 -2.8212
17966TIP3    H275314   1.342   2.754  15.224 -2.7465 -1.6090  0.1746
17967TIP3   OH275315   0.671   2.530  16.935  0.4648 -0.1557 -0.0123
17967TIP3    H175316   0.611   2.456  16.931  0.5094 -0.2158  0.4246
17967TIP3    H275317   0.758   2.491  16.939  0.4384 -0.1172  1.4347
17968TIP3   OH275318   2.933   1.643  13.737 -0.3764  0.4528 -0.4527
17968TIP3    H175319   2.974   1.725  13.764  0.9395 -0.4255  0.2153
17968TIP3    H275320   2.974   1.622  13.653 -0.6613  0.4309 -0.5884
17969TIP3   OH275321   5.859   1.249  17.092 -0.0623  0.1397 -0.4679
17969TIP3    H175322   5.764   1.262  17.094  0.1073  1.4957 -0.5500
17969TIP3    H275323   5.872   1.177  17.029 -0.9387  0.9132 -1.5621
17970TIP3   OH275324   5.464   4.794   3.258  0.0097  0.8582 -0.2691
17970TIP3    H175325   5.510   4.711   3.247  0.4122  1.0155  0.2134
17970TIP3    H275326   5.411   4.781   3.337  1.2055  1.5619  0.6710
17971TIP3   OH275327   3.720   6.625  11.576  0.2468 -0.3981 -0.3460
17971TIP3    H175328   3.660   6.690  11.537 -1.2488 -0.2568  2.0881
17971TIP3    H275329   3.796   6.676  11.603  0.8340 -0.3292 -2.0792
17972TIP3   OH275330   3.567   2.322   3.501  0.0885  0.3131  0.3203
17972TIP3    H175331   3.511   2.365   3.436 -0.4010 -0.7712  0.0225
17972TIP3    H275332   3.538   2.231   3.502  0.5604  0.1592  1.5566
17973TIP3   OH275333   1.875   1.401  15.392  0.6540  0.1556  0.1678
17973TIP3    H175334   1.934   1.327  15.377 -0.4515 -0.5698 -0.6252
17973TIP3    H275335   1.905   1.439  15.475  1.0318 -1.3472  0.7309
17974TIP3   OH275336   4.423   0.668   3.101 -0.2693  0.2746  0.2164
17974TIP3    H175337   4.467   0.644   3.183 -0.0064 -0.4935 -0.1455
17974TIP3    H275338   4.345   0.715   3.130  0.7290  1.5772  0.8594
17975TIP3   OH275339   5.056   6.330   4.805  0.4684 -0.5716 -0.2130
17975TIP3    H175340   5.035   6.375   4.724  1.0143 -1.4249 -0.8380
17975TIP3    H275341   4.987   6.264   4.815  0.8856 -1.0471 -0.4452
17976TIP3   OH275342   5.751   4.788   2.330  0.4131 -0.0439 -0.7276
17976TIP3    H175343   5.753   4.782   2.425  0.3230  0.8565 -0.6656
17976TIP3    H275344   5.781   4.877   2.311  1.6178 -0.6150 -1.5849
17977TIP3   OH275345   6.735   5.687  15.266  0.0269 -0.2699 -0.4891
17977TIP3    H175346   6.643   5.669  15.249  0.1584 -2.1445  0.6186
17977TIP3    H275347   6.782   5.639  15.197  0.2017  0.2479 -0.7350
17978TIP3   OH275348   5.944   2.945  16.021 -0.0316  0.4513 -0.2458
17978TIP3    H175349   5.908   2.917  15.937  0.0136  0.2525 -0.2010
17978TIP3    H275350   5.976   2.864  16.061  0.5792  0.6386 -0.3460
17979TIP3   OH275351   6.073   1.753  14.837  0.3393  0.3206 -0.3724
17979TIP3    H175352   6.090   1.770  14.744  1.6930  1.3366  0.0476
17979TIP3    H275353   5.983   1.783  14.850  0.3820  0.8409 -1.2045
17980TIP3   OH275354   5.284   2.030  16.200 -0.3920 -0.4142 -0.0130
17980TIP3    H175355   5.323   2.109  16.163 -0.4563 -1.4203 -2.3781
17980TIP3    H275356   5.355   1.966  16.202 -0.7821 -0.8522  0.0538
17981TIP3   OH275357   1.594   5.865  15.122 -0.1396  0.7535 -0.3296
17981TIP3    H175358   1.685   5.887  15.138 -0.4594  1.8139  0.0595
17981TIP3    H275359   1.548   5.949  15.122 -1.0363  0.2791 -1.0526
17982TIP3   OH275360   3.635   5.106  14.140  1.0124 -0.4621  0.2475
17982TIP3    H175361   3.546   5.107  14.176  0.2102  0.6423 -1.7054
17982TIP3    H275362   3.638   5.027  14.087  0.8910 -0.0274 -0.4109
17983TIP3   OH275363   1.155   5.603  15.375  1.0728  0.3442  0.1606
17983TIP3    H175364   1.113   5.523  15.406  0.0945  1.0545  0.6950
17983TIP3    H275365   1.204   5.576  15.297 -0.9234 -0.3853 -0.8945
17984TIP3   OH275366   0.094   3.174   1.551 -0.3794 -0.1561  0.7873
17984TIP3    H175367   0.088   3.103   1.614  1.6522 -1.4649 -0.4123
17984TIP3    H275368   0.052   3.141   1.472  0.1523  0.1319  0.3728
17985TIP3   OH275369   0.030   3.195   2.898 -0.0468  0.6118  0.1689
17985TIP3    H175370  -0.050   3.152   2.928  0.3966 -0.1735  0.2253
17985TIP3    H275371   0.082   3.209   2.977  0.9377 -1.0902 -0.1412
17986TIP3   OH275372   1.067   3.909   0.251  0.7625 -0.9223 -0.0140
17986TIP3    H175373   1.036   3.865   0.171 -0.2103 -1.1728  0.4988
17986TIP3    H275374   1.083   3.838   0.312  0.5587 -0.6569  0.3458
17987TIP3   OH275375   4.816   0.916   0.505  0.0080  0.2947 -1.1461
17987TIP3    H175376   4.888   0.933   0.566 -0.0822  0.6151 -1.1281
17987TIP3    H275377   4.824   0.823   0.484 -0.1941  0.0950 -0.3477
17988TIP3   OH275378   1.495   0.703  14.776 -0.6231  0.0391 -0.1738
17988TIP3    H175379   1.484   0.665  14.863  0.1270  1.3158  0.4941
17988TIP3    H275380   1.431   0.775  14.773 -1.7476 -0.9670 -1.2716
17989TIP3   OH275381   2.285   5.993  12.605  0.0705 -0.3387 -0.5253
17989TIP3    H175382   2.247   6.010  12.519  0.9573 -0.6401 -0.9849
17989TIP3    H275383   2.364   6.046  12.607  0.3870 -0.8206 -0.1365
17990TIP3   OH275384   5.034   0.920  12.397 -0.0168 -0.7309 -0.4205
17990TIP3    H175385   5.078   0.837  12.416  0.1251 -0.4778  0.3721
17990TIP3    H275386   4.948   0.912  12.438  0.4511 -0.0132  0.7136
17991TIP3   OH275387   0.432   2.228   3.810 -0.1119 -0.4825 -0.0633
17991TIP3    H175388   0.367   2.157   3.813  2.6519 -3.1620 -0.9786
17991TIP3    H275389   0.456   2.243   3.902 -2.2478  0.7981  0.3151
17992TIP3   OH275390   1.973   3.973   1.077 -0.3305  0.3669 -0.4219
17992TIP3    H175391   2.037   3.915   1.034  0.6084  0.0253  1.3832
17992TIP3    H275392   2.027   4.040   1.120 -1.2277  0.4603  0.5632
17993TIP3   OH275393   3.569   5.135   1.862  0.5657  0.5697  0.3679
17993TIP3    H175394   3.496   5.124   1.801  0.2189 -0.1211  0.9085
17993TIP3    H275395   3.559   5.064   1.925  2.0678  0.1064  0.0949
17994TIP3   OH275396   1.737   2.426   1.129  0.1614 -0.4724  0.3501
17994TIP3    H175397   1.790   2.432   1.208  0.4208  1.2325  0.0569
17994TIP3    H275398   1.757   2.340   1.093 -0.6062 -1.6202  2.5743
17995TIP3   OH275399   5.794   1.104  12.198 -0.4366 -0.1574 -0.0311
17995TIP3    H175400   5.726   1.037  12.191 -1.4405  0.9317 -0.8677
17995TIP3    H275401   5.872   1.062  12.163 -1.6685 -0.0441 -3.0494
17996TIP3   OH275402   3.584   6.452  15.809  0.5698 -0.2538  0.3032
17996TIP3    H175403   3.552   6.480  15.894 -1.6886  2.4261 -1.3435
17996TIP3    H275404   3.506   6.420  15.763  1.6210 -0.9093 -1.0666
17997TIP3   OH275405   0.245   2.737  14.374  0.5073 -0.1383  0.8153
17997TIP3    H175406   0.325   2.783  14.346 -0.7803  1.6562 -0.0139
17997TIP3    H275407   0.259   2.719  14.467  1.5196  0.9221  0.8779
17998TIP3   OH275408   3.045   5.377   6.251  0.0083 -0.3314  0.0470
17998TIP3    H175409   2.955   5.376   6.284 -0.1533 -0.0894 -0.3834
17998TIP3    H275410   3.090   5.311   6.303 -1.1462 -2.6055 -1.7664
17999TIP3   OH275411   0.186   3.509   5.463 -0.0404 -0.7226 -0.7793
17999TIP3    H175412   0.105   3.512   5.413 -0.9327 -0.1412  0.6606
17999TIP3    H275413   0.199   3.416   5.483 -1.4268 -0.6299  0.6544
18000TIP3   OH275414   0.101   1.893  11.580  0.4580  0.2416 -0.0682
18000TIP3    H175415   0.125   1.841  11.503 -0.3570 -2.4041  1.4074
18000TIP3    H275416   0.041   1.959  11.546 -0.9940 -1.7602 -1.5245
18001TIP3   OH275417   6.664   5.458   1.717  0.1043  0.3840  0.6190
18001TIP3    H175418   6.611   5.480   1.640  1.8627  0.1481 -0.6852
18001TIP3    H275419   6.623   5.506   1.788  0.1781  3.0373 -1.0331
18002TIP3   OH275420   1.870   2.903  12.342 -0.0493  0.6086 -0.1056
18002TIP3    H175421   1.856   2.928  12.434  0.2995  1.8735 -0.3902
18002TIP3    H275422   1.786   2.868  12.314 -0.9939  2.8329 -0.1212
18003TIP3   OH275423   4.789   6.105  11.795 -0.1688 -0.4083 -0.2149
18003TIP3    H175424   4.801   6.085  11.888  2.0617  1.0235 -0.1443
18003TIP3    H275425   4.706   6.152  11.791 -0.0581 -0.0642  1.1168
18004TIP3   OH275426   2.859   1.561   3.469 -0.2723 -0.9736 -0.2887
18004TIP3    H175427   2.831   1.518   3.550  1.6085 -2.8297 -0.5726
18004TIP3    H275428   2.949   1.588   3.485 -0.4920  0.2982 -1.1322
18005TIP3   OH275429   4.646   1.772  14.837  0.0708  0.0981 -0.3344
18005TIP3    H175430   4.693   1.830  14.897 -1.3769  1.0459 -0.0807
18005TIP3    H275431   4.655   1.815  14.752  0.3511 -0.1437 -0.4260
18006TIP3   OH275432   3.584   5.518   5.040 -0.0848  0.0016 -0.1995
18006TIP3    H175433   3.658   5.486   4.988 -1.5124 -3.2477 -0.3036
18006TIP3    H275434   3.625   5.569   5.110  2.1645 -0.3848 -1.1924
18007TIP3   OH275435   3.754   2.101  16.712 -0.0290  0.1779  0.2476
18007TIP3    H175436   3.765   2.158  16.636  1.6902 -0.7818 -0.2401
18007TIP3    H275437   3.761   2.160  16.787  2.2112  0.5632 -0.2341
18008TIP3   OH275438   0.331   2.350  17.179 -0.0281 -0.1803 -0.5521
18008TIP3    H175439   0.365   2.340  17.090  0.3514  1.6396 -0.6346
18008TIP3    H275440   0.305   2.442  17.184  0.3393 -0.1616  1.3604
18009TIP3   OH275441   4.109   3.816  16.710  0.7860 -0.4247 -0.1804
18009TIP3    H175442   4.068   3.745  16.759 -0.3729  0.0697 -0.4268
18009TIP3    H275443   4.085   3.800  16.619 -0.4246  0.8843 -0.1182
18010TIP3   OH275444   2.732   0.124  11.249 -0.1761  0.0129  0.1481
18010TIP3    H175445   2.682   0.077  11.316 -0.5061  0.2168  0.0449
18010TIP3    H275446   2.774   0.196  11.297  0.0002 -0.1421  0.2300
18011TIP3   OH275447   3.876   5.540   5.634  0.0581 -0.5317 -0.2858
18011TIP3    H175448   3.874   5.629   5.600  0.6948  0.2271  1.6063
18011TIP3    H275449   3.943   5.496   5.581  1.9095  0.9722  0.7611
18012TIP3   OH275450   6.015   1.738   2.177 -0.2349 -0.5115 -0.0776
18012TIP3    H175451   5.938   1.683   2.186 -0.5933 -0.2615 -1.5145
18012TIP3    H275452   5.992   1.819   2.223  0.1429 -1.3885  1.6879
18013TIP3   OH275453   5.514   5.218   4.697  1.0340 -0.5300 -0.0476
18013TIP3    H175454   5.477   5.162   4.629 -0.4002  1.1477 -0.6947
18013TIP3    H275455   5.558   5.158   4.757  1.4447 -2.1301 -1.9009
18014TIP3   OH275456   2.323   4.687  16.878 -0.3709 -0.1723  0.3348
18014TIP3    H175457   2.260   4.641  16.933 -2.7664  2.0924 -0.4179
18014TIP3    H275458   2.323   4.777  16.910  2.1095  0.0129 -0.0417
18015TIP3   OH275459   6.446   6.476   0.947 -0.3995  0.0297  0.3479
18015TIP3    H175460   6.359   6.456   0.912 -0.7122  0.6492  0.7501
18015TIP3    H275461   6.430   6.501   1.039  0.2791 -0.4976  0.6146
18016TIP3   OH275462   3.475   5.099   4.023 -0.1424 -0.0560  0.2121
18016TIP3    H175463   3.540   5.133   4.085 -0.1282 -0.2415  0.3000
18016TIP3    H275464   3.492   5.004   4.020 -0.4788 -0.1199  0.3196
18017TIP3   OH275465   5.613   2.187   2.857 -0.0842 -0.3817 -0.5082
18017TIP3    H175466   5.580   2.174   2.946 -0.7392 -0.1653 -0.7132
18017TIP3    H275467   5.671   2.263   2.864  0.6384 -0.9702 -0.0789
18018TIP3   OH275468   3.653   3.345  11.014 -0.2824  0.2842 -0.0703
18018TIP3    H175469   3.572   3.365  11.062 -0.2309  0.0688  0.1067
18018TIP3    H275470   3.628   3.352  10.922 -0.7513 -0.7223 -0.0316
18019TIP3   OH275471   1.065   2.595  15.648 -0.0850 -0.0590  0.0166
18019TIP3    H175472   1.005   2.560  15.583  0.9510 -0.0168 -0.9846
18019TIP3    H275473   1.133   2.528  15.657  0.7054  0.6859 -0.2504
18020TIP3   OH275474   0.221   1.925   0.982  0.3860  0.2308 -0.1899
18020TIP3    H175475   0.256   2.002   1.028  0.7180  0.3588 -0.6544
18020TIP3    H275476   0.287   1.857   0.998  0.2657  0.1392 -0.0784
18021TIP3   OH275477   0.618   3.513   4.101  0.2812  0.2352 -0.8230
18021TIP3    H175478   0.653   3.597   4.132 -0.0666  0.2248 -0.3917
18021TIP3    H275479   0.523   3.523   4.106  0.2381 -0.1929 -0.7467
18022TIP3   OH275480   6.503   6.108  13.758  0.1102 -0.1276 -0.6559
18022TIP3    H175481   6.563   6.176  13.788 -1.1140 -0.0604  1.7812
18022TIP3    H275482   6.460   6.146  13.681  0.7157  1.1347 -0.3739
18023TIP3   OH275483   5.070   0.908   2.293 -0.9372  0.2004 -0.5372
18023TIP3    H175484   5.082   0.945   2.381 -1.8815  2.3641 -1.2926
18023TIP3    H275485   5.151   0.931   2.247 -0.4852 -0.8482 -0.3032
18024TIP3   OH275486   3.255   4.029   4.289  0.1506 -0.2816 -0.4082
18024TIP3    H175487   3.170   4.004   4.254 -0.2832 -2.1063  1.8604
18024TIP3    H275488   3.238   4.112   4.334 -0.8023 -1.3523  1.2857
18025TIP3   OH275489   6.399   5.276   5.984 -0.0486  0.3431 -0.3152
18025TIP3    H175490   6.444   5.220   5.920 -0.0456  0.6388 -0.5732
18025TIP3    H275491   6.432   5.246   6.069  0.1173  0.0985 -0.4646
18026TIP3   OH275492   2.396   4.228   1.471  0.3944 -0.0096  0.1682
18026TIP3    H175493   2.378   4.322   1.458 -0.5911 -0.2520 -0.2598
18026TIP3    H275494   2.477   4.226   1.521  0.1299  1.0926  0.6604
18027TIP3   OH275495   4.865   0.809  15.484  0.4388  0.1140  0.0750
18027TIP3    H175496   4.874   0.808  15.579 -1.3827  0.5446  0.2663
18027TIP3    H275497   4.774   0.784  15.468  1.0361 -1.0554 -1.6061
18028TIP3   OH275498   0.219   2.059   3.898  0.1835  0.1832  0.2597
18028TIP3    H175499   0.148   2.030   3.841  0.3162  1.3832 -0.5459
18028TIP3    H275500   0.182   2.132   3.948  1.1058  1.4295 -0.8386
18029TIP3   OH275501   2.180   0.054  11.669 -0.5158  0.3208  0.1360
18029TIP3    H175502   2.263   0.079  11.628 -1.3315  0.7562 -1.2843
18029TIP3    H275503   2.156  -0.029  11.627 -0.5161 -0.1118  0.9681
18030TIP3   OH275504   4.430   0.305  11.932 -0.1196  0.5210  0.8692
18030TIP3    H175505   4.489   0.301  11.856 -1.4931 -0.7578 -0.1563
18030TIP3    H275506   4.381   0.386  11.918 -2.0513 -0.8995 -0.9278
18031TIP3   OH275507   5.318   1.355   1.136  0.0056  0.6975 -0.3283
18031TIP3    H175508   5.286   1.267   1.113  1.6249  0.1607 -0.6234
18031TIP3    H275509   5.285   1.411   1.066  2.4351 -0.4123 -2.4384
18032TIP3   OH275510   5.338   4.504   4.512  0.3880 -0.3045  0.2722
18032TIP3    H175511   5.341   4.511   4.608 -0.6903 -1.2213  0.3747
18032TIP3    H275512   5.273   4.570   4.486  1.7065  0.9346  0.0506
18033TIP3   OH275513   3.094   4.657   1.618  0.0859 -0.3268 -0.0893
18033TIP3    H175514   3.176   4.688   1.659  0.9526  2.0672 -3.4025
18033TIP3    H275515   3.123   4.603   1.545 -1.3634 -1.8055  0.4251
18034TIP3   OH275516   2.615   5.347   2.797  0.4450  0.1681 -0.3448
18034TIP3    H175517   2.706   5.367   2.775 -0.3259  2.5152 -1.5296
18034TIP3    H275518   2.563   5.397   2.734 -1.6962  0.2579  1.4278
18035TIP3   OH275519   0.538   0.010  15.044  0.1364  0.1777  0.0687
18035TIP3    H175520   0.556   0.068  14.970 -0.4549  0.7250  0.3507
18035TIP3    H275521   0.448   0.029  15.068  0.5705  0.5704  1.4293
18036TIP3   OH275522   3.609   6.096  12.397  0.4281 -0.2289 -0.4682
18036TIP3    H175523   3.696   6.056  12.399  0.2150 -0.8733 -2.5996
18036TIP3    H275524   3.624   6.188  12.417  1.4845 -0.5165  0.0813
18037TIP3   OH275525   5.288   5.553   5.832 -0.3415  0.1669 -0.1795
18037TIP3    H175526   5.229   5.495   5.784 -1.1440  0.9425 -0.1328
18037TIP3    H275527   5.365   5.561   5.775 -0.9037  0.3475 -0.9168
18038TIP3   OH275528   0.403   1.003   1.931 -0.0955 -0.3169 -0.2826
18038TIP3    H175529   0.462   0.987   2.005  0.3194 -1.5885 -0.8823
18038TIP3    H275530   0.404   1.098   1.920 -0.4592 -0.0797  1.5858
18039TIP3   OH275531   1.459   5.913   5.136 -0.1150  0.2452 -1.0977
18039TIP3    H175532   1.460   6.001   5.172 -0.3747 -0.8882  1.8207
18039TIP3    H275533   1.513   5.919   5.057  0.6175  2.7964 -0.4574
18040TIP3   OH275534   2.649   1.156   0.898  0.7519  0.3121  0.7102
18040TIP3    H175535   2.687   1.244   0.901  0.6235  0.3625  0.8910
18040TIP3    H275536   2.723   1.098   0.915  1.6639  0.1274 -3.3357
18041TIP3   OH275537   1.182   5.828   3.045  0.0160  0.3622 -0.3043
18041TIP3    H175538   1.146   5.833   2.957 -1.1895 -0.3632  0.1473
18041TIP3    H275539   1.124   5.882   3.099  0.6160  0.6226  0.0971
18042TIP3   OH275540   0.016   6.532  12.017  0.3654  0.1714 -0.4805
18042TIP3    H175541  -0.069   6.503  12.050  0.7848  0.3234  0.7610
18042TIP3    H275542   0.073   6.528  12.093  1.0022  1.9923 -0.8590
18043TIP3   OH275543   1.988   1.040   3.459 -0.4232 -0.0516 -0.1063
18043TIP3    H175544   2.026   0.964   3.502 -1.1037 -0.5397 -0.3623
18043TIP3    H275545   1.900   1.048   3.497 -0.1545  0.9534  0.3405
18044TIP3   OH275546   3.794   3.939   5.705  0.1775 -0.4558 -0.8444
18044TIP3    H175547   3.752   3.855   5.720  0.7908 -0.4628  0.9247
18044TIP3    H275548   3.742   4.001   5.756  0.2625  0.0949 -1.4221
18045TIP3   OH275549   4.498   3.657   4.520  0.5515 -0.3662 -0.1098
18045TIP3    H175550   4.577   3.697   4.485  0.1806 -0.1498 -0.7003
18045TIP3    H275551   4.529   3.602   4.592  1.3272 -0.8697 -0.8159
18046TIP3   OH275552   0.844   4.184   0.105  0.3393  0.1303  0.0314
18046TIP3    H175553   0.772   4.124   0.125  1.6244 -1.4798 -0.1672
18046TIP3    H275554   0.891   4.143   0.033  1.0378  1.5503 -0.3495
18047TIP3   OH275555   2.967   5.140   3.228  0.3990 -0.3585 -0.3701
18047TIP3    H175556   2.901   5.207   3.243 -0.3230 -1.3219  0.8635
18047TIP3    H275557   2.985   5.145   3.134 -1.6871 -0.2990 -0.8041
18048TIP3   OH275558   4.025   0.837   1.668  0.4082  0.3051  0.2792
18048TIP3    H175559   4.069   0.837   1.583 -0.3420  1.0755 -0.1175
18048TIP3    H275560   3.948   0.781   1.655  0.3490  0.3428  0.4698
18049TIP3   OH275561   1.656   5.886  12.851 -0.2470 -0.0278  0.3085
18049TIP3    H175562   1.626   5.854  12.766 -0.4495  0.4776  0.1864
18049TIP3    H275563   1.626   5.977  12.853 -0.9291 -0.2733  1.2525
18050TIP3   OH275564   4.909   5.482   4.301  0.2401 -0.2359 -0.3586
18050TIP3    H175565   4.994   5.500   4.341 -0.1889 -0.9641  0.9027
18050TIP3    H275566   4.850   5.547   4.339  0.0362 -0.2963 -0.5678
18051TIP3   OH275567   1.900   3.290  16.380 -0.0723 -0.0337 -0.6707
18051TIP3    H175568   1.968   3.246  16.329  1.0689 -0.3768  1.0694
18051TIP3    H275569   1.948   3.336  16.449 -1.5478  0.3699  0.1217
18052TIP3   OH275570   4.089   4.845  11.653 -0.0896 -0.2043  0.0375
18052TIP3    H175571   4.048   4.872  11.571 -0.0798 -2.1096 -0.6428
18052TIP3    H275572   4.029   4.874  11.721 -0.5166  0.6604 -0.7035
18053TIP3   OH275573   1.926   5.740  14.018  0.0529 -0.3272  0.0511
18053TIP3    H175574   1.972   5.753  13.934  0.9237  0.8496  0.6976
18053TIP3    H275575   1.888   5.826  14.038 -0.2528 -0.6378  0.8087
18054TIP3   OH275576   2.225   1.213   2.680 -0.0696 -0.1507  0.2862
18054TIP3    H175577   2.167   1.190   2.607  0.2586  0.5327 -0.1838
18054TIP3    H275578   2.166   1.242   2.749 -0.2692  0.9650 -0.3434
18055TIP3   OH275579   4.239   3.341  12.805  0.0119 -0.0429 -0.4936
18055TIP3    H175580   4.150   3.336  12.841  0.9196 -1.0506  1.7294
18055TIP3    H275581   4.270   3.251  12.803  0.9948  0.3024 -1.2227
18056TIP3   OH275582   2.614   0.291   4.380  0.0919  0.2833  0.8460
18056TIP3    H175583   2.629   0.218   4.320  0.2226  2.5209 -1.9655
18056TIP3    H275584   2.578   0.361   4.324 -0.3255  2.2571  3.4904
18057TIP3   OH275585   1.276   1.295  15.121  0.8813  0.0637 -0.5368
18057TIP3    H175586   1.290   1.210  15.079  1.8923 -0.9443  1.7655
18057TIP3    H275587   1.275   1.358  15.048  0.6773 -1.8428 -2.2138
18058TIP3   OH275588   2.484   0.863  16.914  0.2906 -0.5637  0.1976
18058TIP3    H175589   2.574   0.888  16.935  0.5955  1.2155 -2.9924
18058TIP3    H275590   2.492   0.779  16.869  0.5417  0.5245 -1.8065
18059TIP3   OH275591   2.806   6.213  12.775 -0.6888  0.2450 -0.2132
18059TIP3    H175592   2.860   6.204  12.696 -1.0438 -1.2826 -0.2987
18059TIP3    H275593   2.720   6.240  12.742 -0.8818 -0.5485 -0.3793
18060TIP3   OH275594   0.110   2.614  13.019  0.0946 -0.3143 -0.2164
18060TIP3    H175595   0.188   2.609  13.075  0.4848 -2.8499 -0.9092
18060TIP3    H275596   0.142   2.650  12.937  0.3554 -0.3983 -0.1516
18061TIP3   OH275597   1.363   2.148  11.750  0.2665 -0.2839 -0.2183
18061TIP3    H175598   1.331   2.061  11.773  1.3921 -0.9945 -1.2604
18061TIP3    H275599   1.458   2.141  11.755  0.3762  0.9175 -0.2665
18062TIP3   OH275600   0.447   0.594  15.458 -0.7894 -0.4727  0.1277
18062TIP3    H175601   0.431   0.548  15.541 -0.2407  2.8167  2.1348
18062TIP3    H275602   0.368   0.646  15.444 -0.1046  0.4313 -0.4165
18063TIP3   OH275603   3.046   1.109   1.302 -0.1034 -0.0222 -0.6133
18063TIP3    H175604   3.061   1.173   1.232 -1.3492 -1.0514 -1.8568
18063TIP3    H275605   3.053   1.024   1.259  1.1433 -0.7359  0.9463
18064TIP3   OH275606   1.375   2.659  16.931  0.2478 -0.1766  0.5327
18064TIP3    H175607   1.292   2.660  16.883  0.8582  0.1947 -0.5221
18064TIP3    H275608   1.353   2.695  17.017 -0.1089  2.7197 -0.6976
18065TIP3   OH275609   1.744   3.495  11.843  0.3956 -0.0688  0.0984
18065TIP3    H175610   1.795   3.506  11.924  2.1449  0.2277 -1.0061
18065TIP3    H275611   1.738   3.583  11.806  0.3318 -0.3277 -0.5154
18066TIP3   OH275612   3.728   6.358  11.513 -0.5217 -0.5055 -0.4347
18066TIP3    H175613   3.695   6.310  11.589  0.8339 -2.6757 -1.1794
18066TIP3    H275614   3.716   6.451  11.536 -0.6200 -1.1384  2.2007
18067TIP3   OH275615   6.398   5.021   2.471  0.6242 -0.1969 -0.1156
18067TIP3    H175616   6.347   5.096   2.501  0.9608  0.9224 -2.2787
18067TIP3    H275617   6.460   5.004   2.543 -0.7452  0.3389  1.2227
18068TIP3   OH275618   4.005   2.849  12.866 -0.3164 -0.7200  0.1342
18068TIP3    H175619   3.926   2.815  12.824 -0.5968  1.6078 -1.2667
18068TIP3    H275620   4.062   2.876  12.794  0.0049  1.5088  1.1869
18069TIP3   OH275621   2.792   4.071   4.677 -0.0666  0.3324  0.2592
18069TIP3    H175622   2.826   4.146   4.725 -0.3671 -0.1608  1.2644
18069TIP3    H275623   2.758   4.013   4.745  1.1664 -1.2063 -0.3973
18070TIP3   OH275624   6.528   2.389   3.781  0.5713  0.0451 -0.3288
18070TIP3    H175625   6.562   2.322   3.722  0.3298  0.4237 -0.9089
18070TIP3    H275626   6.447   2.352   3.817  1.0301 -0.4243  0.2234
18071TIP3   OH275627   4.853   0.290   1.085  0.0152 -0.2056  0.2743
18071TIP3    H175628   4.907   0.315   1.010  0.5088 -0.3325  0.5919
18071TIP3    H275629   4.808   0.210   1.056  0.2652 -0.2976  0.1440
18072TIP3   OH275630   3.274   6.575   2.656 -0.6618  0.1206 -0.8069
18072TIP3    H175631   3.264   6.629   2.578 -0.0048  4.7466  2.1406
18072TIP3    H275632   3.357   6.529   2.642  1.1273  3.4106 -1.4587
18073TIP3   OH275633   3.029   6.257  15.331 -0.0956 -0.3009 -0.3702
18073TIP3    H175634   3.071   6.340  15.307 -0.1106 -0.6518 -1.6592
18073TIP3    H275635   3.103   6.198  15.350 -0.0454 -0.3435 -0.6855
18074TIP3   OH275636   5.324   3.426  14.636 -0.2301  0.5681 -0.1236
18074TIP3    H175637   5.319   3.347  14.691 -0.0685  0.2776 -0.5218
18074TIP3    H275638   5.268   3.406  14.561  0.4321  0.5231 -0.6104
18075TIP3   OH275639   3.653   4.753   1.288  0.0467  0.2015 -0.1371
18075TIP3    H175640   3.688   4.802   1.213 -2.1568 -0.1705 -1.4580
18075TIP3    H275641   3.573   4.713   1.255 -1.1632  0.3158  2.5411
18076TIP3   OH275642   4.747   0.298   4.885  0.0138 -0.1514 -0.1291
18076TIP3    H175643   4.800   0.368   4.924  0.3327 -0.1785 -0.5079
18076TIP3    H275644   4.699   0.261   4.958 -0.3879  0.6710  0.0255
18077TIP3   OH275645   1.219   3.586  12.605 -0.0009 -0.0724 -0.5984
18077TIP3    H175646   1.253   3.651  12.542  1.2144 -0.6734 -0.5905
18077TIP3    H275647   1.256   3.503  12.574  0.0539 -0.4691  0.5302
18078TIP3   OH275648   2.491   4.234   5.581  0.0589  0.2174 -0.3519
18078TIP3    H175649   2.489   4.209   5.673 -0.7744 -1.9664 -0.9458
18078TIP3    H275650   2.416   4.293   5.571 -1.0921 -1.1754 -0.0679
18079TIP3   OH275651   4.293   5.248   2.829  0.1478  0.7848 -0.4279
18079TIP3    H175652   4.242   5.327   2.846  0.7279  0.7599  1.5584
18079TIP3    H275653   4.360   5.275   2.767  0.2663  1.8407  0.1516
18080TIP3   OH275654   5.485   0.181   0.819 -0.2049  0.3433  0.2805
18080TIP3    H175655   5.438   0.232   0.753  0.2392 -0.0047 -0.3137
18080TIP3    H275656   5.571   0.167   0.780  0.1654  0.4136  1.0813
18081TIP3   OH275657   4.274   3.044   4.186 -0.1344  0.0208 -0.0399
18081TIP3    H175658   4.183   3.070   4.195 -0.7305 -2.1221  0.4422
18081TIP3    H275659   4.314   3.068   4.269 -0.7097 -0.6827  0.4514
18082TIP3   OH275660   1.823   4.110   3.658 -0.2604 -0.1826 -0.0512
18082TIP3    H175661   1.763   4.036   3.672 -1.4222  0.8096  0.3590
18082TIP3    H275662   1.874   4.085   3.581 -1.7970 -0.7104 -0.9303
18083TIP3   OH275663   5.896   2.783   3.001  0.4622 -0.1168 -0.0179
18083TIP3    H175664   5.957   2.714   3.029 -1.1382 -1.7719 -0.5174
18083TIP3    H275665   5.823   2.777   3.062 -0.3468  0.1824 -0.9382
18084TIP3   OH275666   1.984   0.794  14.797  0.5648 -0.7247  0.7401
18084TIP3    H175667   2.038   0.784  14.719  1.3408 -0.5176  1.2511
18084TIP3    H275668   2.039   0.762  14.869  0.0604 -0.3867  1.2771
18085TIP3   OH275669   5.079   4.092   1.268 -0.0932  0.1766 -0.0843
18085TIP3    H175670   5.062   4.126   1.180  0.5294  0.3673 -0.1278
18085TIP3    H275671   5.053   4.000   1.262 -0.2038  0.2263 -0.4223
18086TIP3   OH275672   1.986   4.330  11.385  0.0450  0.0068 -0.2714
18086TIP3    H175673   1.913   4.372  11.341 -0.1917  1.1226  1.1655
18086TIP3    H275674   2.036   4.289  11.314 -1.5578 -0.1551 -1.3269
18087TIP3   OH275675   4.213   3.008   5.917 -0.0627 -0.1941  0.8043
18087TIP3    H175676   4.155   2.932   5.911  0.3114 -0.5927  2.1042
18087TIP3    H275677   4.238   3.012   6.009 -0.1711  1.5867  0.7710
18088TIP3   OH275678   5.341   1.608  13.142  0.1704  0.5462 -0.4868
18088TIP3    H175679   5.298   1.675  13.090 -0.3743  0.6315  0.0637
18088TIP3    H275680   5.425   1.647  13.167 -0.2178  1.0870 -0.0279
18089TIP3   OH275681   1.586   5.916   5.658 -0.2946  0.7788 -0.2260
18089TIP3    H175682   1.583   5.994   5.602 -0.0169  0.9137 -0.0549
18089TIP3    H275683   1.647   5.939   5.728 -1.9594  1.2515  1.1000
18090TIP3   OH275684   6.034   3.482   1.685  0.2728  0.1342 -0.1149
18090TIP3    H175685   6.038   3.506   1.592  0.4833  1.2669  0.1751
18090TIP3    H275686   6.115   3.518   1.722 -0.3039  0.5897  0.7085
18091TIP3   OH275687   1.821   6.335   4.366  0.5536 -0.0139  0.2609
18091TIP3    H175688   1.833   6.311   4.458 -0.6190 -2.2927 -0.1389
18091TIP3    H275689   1.900   6.305   4.322  0.6665  0.1492  0.3526
18092TIP3   OH275690   4.538   3.884   1.545  0.2200 -0.0715 -0.2005
18092TIP3    H175691   4.603   3.897   1.614 -0.8419 -0.8604  0.9736
18092TIP3    H275692   4.486   3.964   1.545  0.9594  0.4153 -0.9022
18093TIP3   OH275693   1.892   5.495   3.630 -0.5360 -0.6558  0.1778
18093TIP3    H175694   1.920   5.405   3.615 -1.0646 -0.7987  0.0418
18093TIP3    H275695   1.861   5.526   3.545 -2.2956 -1.0372  0.6506
18094TIP3   OH275696   2.386   4.082  11.594 -0.8215 -0.2448  0.3200
18094TIP3    H175697   2.318   4.026  11.558  0.9393 -1.4641 -1.1772
18094TIP3    H275698   2.462   4.025  11.602 -0.5537  0.5101  4.0757
18095TIP3   OH275699   3.966   2.080   3.398 -0.3491 -0.4552  0.0921
18095TIP3    H175700   4.059   2.103   3.393 -0.4736 -0.1208 -0.7326
18095TIP3    H275701   3.927   2.150   3.450 -0.3280 -0.0115 -0.4839
18096TIP3   OH275702   0.568   5.570  13.805 -0.1871  0.4361  0.6209
18096TIP3    H175703   0.561   5.659  13.839  3.1673  0.8485  0.3444
18096TIP3    H275704   0.592   5.517  13.880  0.9534  0.3112  0.1834
18097TIP3   OH275705   4.749   6.407  16.581 -0.4064  0.1794  0.0828
18097TIP3    H175706   4.774   6.433  16.493 -2.2080 -0.2743 -0.5960
18097TIP3    H275707   4.818   6.346  16.608 -0.0243  0.0337 -1.1595
18098TIP3   OH275708   4.392   2.458   1.936  0.6431 -0.6465  0.2275
18098TIP3    H175709   4.389   2.527   1.869  0.2556 -0.2564  0.6421
18098TIP3    H275710   4.300   2.437   1.952  0.7876 -2.1083 -0.7616
18099TIP3   OH275711   4.384   3.938  14.198 -0.2266  0.0058 -0.1999
18099TIP3    H175712   4.313   4.000  14.216  0.3908  0.5755  0.3282
18099TIP3    H275713   4.341   3.854  14.185 -0.9927  0.3267  0.2421
18100TIP3   OH275714   6.403   5.242  14.987 -0.2681 -0.1147  0.4763
18100TIP3    H175715   6.421   5.230  15.080  0.5895  0.3650  0.3802
18100TIP3    H275716   6.365   5.329  14.980  0.3004  0.1238  0.3030
18101TIP3   OH275717   1.972   3.179   4.769 -0.2606  0.2368 -0.6773
18101TIP3    H175718   1.895   3.218   4.727 -0.5055 -1.5130 -1.8669
18101TIP3    H275719   1.938   3.138   4.849 -0.2265  1.1371 -0.1834
18102TIP3   OH275720   2.716   1.564  17.008  0.1609 -0.3607  0.2421
18102TIP3    H175721   2.663   1.488  17.027 -0.0311 -0.0881  0.7883
18102TIP3    H275722   2.697   1.626  17.078 -0.0229  0.3650 -0.4313
18103TIP3   OH275723   3.063   1.369   0.695  0.1970  0.4634  0.0457
18103TIP3    H175724   3.061   1.275   0.713  0.8457  0.6279  1.0566
18103TIP3    H275725   3.149   1.398   0.728 -0.3177  1.5404  0.4740
18104TIP3   OH275726   1.983   5.329  11.167  0.0552 -0.3770 -0.0415
18104TIP3    H175727   1.894   5.294  11.171 -0.4285  0.9137  0.9757
18104TIP3    H275728   1.997   5.350  11.074 -0.9958  0.1408 -0.0867
18105TIP3   OH275729   3.151   2.778   3.097 -0.2284  0.4006 -0.1550
18105TIP3    H175730   3.080   2.841   3.108 -1.2429 -0.8909  1.0071
18105TIP3    H275731   3.205   2.789   3.175 -0.6705 -0.4658  0.2827
18106TIP3   OH275732   2.353   3.464  14.882 -0.3270 -0.4419  0.0518
18106TIP3    H175733   2.318   3.500  14.800  1.7617 -0.5917 -0.9403
18106TIP3    H275734   2.436   3.510  14.895  1.1196 -3.0178  0.1561
18107TIP3   OH275735   0.078   1.758   6.228  0.5637  0.0972  0.0323
18107TIP3    H175736   0.047   1.849   6.227  1.2385  0.3416 -2.0667
18107TIP3    H275737  -0.002   1.705   6.229  0.1712  0.7145  1.5826
18108TIP3   OH275738   1.079   4.848   1.881  0.7874 -0.2717 -0.9282
18108TIP3    H175739   1.044   4.935   1.863 -0.0762 -0.2509  0.7091
18108TIP3    H275740   1.141   4.862   1.953  0.5852 -0.9995 -0.6030
18109TIP3   OH275741   6.416   4.057  11.145  0.1449  0.8693  0.2324
18109TIP3    H175742   6.374   4.143  11.141 -3.7068 -0.8292  1.0241
18109TIP3    H275743   6.394   4.015  11.062 -0.1762 -0.2234  0.8411
18110TIP3   OH275744   4.041   3.197   2.708  0.4761  0.4172  0.5560
18110TIP3    H175745   4.060   3.287   2.682  2.1772  0.1053  0.7174
18110TIP3    H275746   4.061   3.145   2.630 -2.0460  0.3084 -0.0923
18111TIP3   OH275747   2.470   2.213   0.043  0.0311  0.1608  0.3999
18111TIP3    H175748   2.434   2.252   0.122 -0.2076  0.4475  0.1499
18111TIP3    H275749   2.395   2.207  -0.017 -0.2677 -1.9398  0.9098
18112TIP3   OH275750   4.114   5.482   3.360  0.5225  0.5870 -0.1493
18112TIP3    H175751   4.148   5.413   3.416 -0.6288  0.1679  0.0390
18112TIP3    H275752   4.049   5.439   3.305 -1.0205  1.7141  0.7407
18113TIP3   OH275753   2.560   5.188  12.290 -0.4947 -0.1383 -0.2693
18113TIP3    H175754   2.501   5.125  12.249  1.0474 -2.0881  0.4548
18113TIP3    H275755   2.591   5.143  12.369  2.1922  0.7454 -0.8021
18114TIP3   OH275756   5.100   1.245  11.423 -0.3075 -0.2781  0.1434
18114TIP3    H175757   5.150   1.266  11.502 -0.7502  1.3275  0.0208
18114TIP3    H275758   5.156   1.184  11.375  0.6455 -0.0624  0.9537
18115TIP3   OH275759   5.251   3.999  16.162 -0.1270  0.0164  0.9015
18115TIP3    H175760   5.319   4.054  16.202 -0.1709  0.1128  0.8431
18115TIP3    H275761   5.169   4.030  16.200 -0.3836  1.4793 -0.7717
18116TIP3   OH275762   1.170   6.554   1.638 -0.4886 -0.3121 -0.0661
18116TIP3    H175763   1.197   6.612   1.709 -0.0778 -0.3423 -0.1968
18116TIP3    H275764   1.134   6.613   1.572 -1.5949 -0.3473  0.4857
18117TIP3   OH275765   2.287   5.801   4.318 -0.1929  0.4783  0.4409
18117TIP3    H175766   2.371   5.761   4.296  0.1569  1.4237  0.0572
18117TIP3    H275767   2.222   5.742   4.280  0.2582 -0.8518  1.7007
18118TIP3   OH275768   5.352   5.267   0.144  0.6810 -0.1244  0.9987
18118TIP3    H175769   5.418   5.319   0.098  0.7073  0.3214  1.5449
18118TIP3    H275770   5.326   5.200   0.080  1.4067 -0.0878  0.6649
18119TIP3   OH275771   4.350   5.354   3.566 -0.3818 -0.4138  0.1211
18119TIP3    H175772   4.291   5.290   3.527  0.3202  0.1864 -2.0113
18119TIP3    H275773   4.328   5.353   3.659 -3.9079 -0.0195 -0.6357
18120TIP3   OH275774   2.496   5.262   7.084 -0.4727  0.2586  0.0944
18120TIP3    H175775   2.434   5.211   7.032 -1.1243 -0.0588  1.1613
18120TIP3    H275776   2.524   5.201   7.153  0.2400  0.7282  0.2179
18121TIP3   OH275777   3.765   2.683   5.960  0.4259  0.1131 -0.0726
18121TIP3    H175778   3.680   2.699   5.917 -0.1229 -0.0875  0.9261
18121TIP3    H275779   3.777   2.588   5.953 -0.3846 -0.1227  1.5300
18122TIP3   OH275780   1.058   1.939  10.880  0.1306  0.0063  0.1273
18122TIP3    H175781   1.005   1.903  10.951  0.2463 -2.2281 -0.8705
18122TIP3    H275782   1.000   1.936  10.803  0.7542  0.2067 -0.3526
18123TIP3   OH275783   2.139   2.615  15.479  0.0662  0.1638  0.5042
18123TIP3    H175784   2.136   2.684  15.546 -0.8556  0.8913 -0.2680
18123TIP3    H275785   2.204   2.645  15.416 -2.1471  1.6206 -1.1759
18124TIP3   OH275786   0.360   0.482  12.357 -0.3493 -0.1467  0.0077
18124TIP3    H175787   0.330   0.438  12.277  1.2576 -1.5569  0.1831
18124TIP3    H275788   0.352   0.417  12.426  2.5247 -0.3829  0.1779
18125TIP3   OH275789   1.829   3.290  14.760 -0.3599  0.2576  0.4987
18125TIP3    H175790   1.788   3.337  14.832  0.6155  0.5245  0.8905
18125TIP3    H275791   1.874   3.217  14.801 -0.2218  0.1188  0.1059
18126TIP3   OH275792   4.443   3.191  11.336  0.0083 -0.1741  0.3739
18126TIP3    H175793   4.482   3.187  11.249 -1.7717  0.2492 -0.4649
18126TIP3    H275794   4.440   3.100  11.365  3.0026 -0.0834  1.1155
18127TIP3   OH275795   3.961   3.512   0.910  0.1439  0.4873 -0.1129
18127TIP3    H175796   3.926   3.443   0.965  1.2974  0.3966  0.5170
18127TIP3    H275797   3.994   3.578   0.971 -1.8594  2.0844 -0.6986
18128TIP3   OH275798   3.154   4.794  14.176  0.0508 -0.0522  0.1660
18128TIP3    H175799   3.072   4.813  14.223  0.0475  2.1106 -0.6589
18128TIP3    H275800   3.209   4.751  14.241 -2.3497 -3.1913  0.2545
18129TIP3   OH275801   4.257   0.667   0.269  0.7097 -0.5516 -0.2795
18129TIP3    H175802   4.167   0.689   0.245 -0.2442 -0.7434  2.8651
18129TIP3    H275803   4.305   0.750   0.261 -0.4595  0.2744  1.0631
18130TIP3   OH275804   6.407   2.447   0.297  0.2988 -0.2990  0.2062
18130TIP3    H175805   6.410   2.427   0.391 -0.0421 -0.7261  0.1279
18130TIP3    H275806   6.332   2.507   0.288 -0.1617 -0.8899  0.0910
18131TIP3   OH275807   5.178   5.221   3.325 -0.0651 -0.4760  0.3830
18131TIP3    H175808   5.177   5.247   3.417  1.3507  0.3423  0.1802
18131TIP3    H275809   5.243   5.152   3.320  1.0019  0.5526 -0.2674
18132TIP3   OH275810   4.382   1.215  13.913 -1.0358 -1.0441  0.0073
18132TIP3    H175811   4.320   1.185  13.979 -1.4110 -1.4874 -0.5381
18132TIP3    H275812   4.397   1.138  13.858 -1.7119 -0.3543 -1.1796
18133TIP3   OH275813   4.657   0.680   0.754 -0.2080  0.4336 -0.3029
18133TIP3    H175814   4.672   0.601   0.702  1.3391  1.0503 -0.8307
18133TIP3    H275815   4.735   0.686   0.809 -1.2449  0.5017  1.1744
18134TIP3   OH275816   0.081   3.566   4.181 -0.2710  0.4037  0.0083
18134TIP3    H175817   0.075   3.473   4.160 -5.0148  0.5815 -0.0425
18134TIP3    H275818   0.064   3.571   4.275 -1.5452  1.2838 -0.2550
18135TIP3   OH275819   2.919   5.355   3.020 -0.2172  0.0637 -0.0367
18135TIP3    H175820   2.837   5.334   3.064  0.6416 -0.8840  1.1458
18135TIP3    H275821   2.920   5.450   3.015 -0.8727  0.1341  0.9717
18136TIP3   OH275822   3.273   1.164  13.001  0.5715  0.0486  0.3426
18136TIP3    H175823   3.185   1.174  13.038  0.2697  0.7293 -0.5506
18136TIP3    H275824   3.326   1.129  13.073 -1.1372 -3.4542 -0.0169
18137TIP3   OH275825   1.960   6.454   2.352  0.2389 -0.4343 -0.2311
18137TIP3    H175826   1.870   6.422   2.346 -0.0055  0.5343 -2.2243
18137TIP3    H275827   1.967   6.490   2.440 -1.0241 -1.3636  0.2695
18138TIP3   OH275828   6.335   3.430   5.606 -0.1255 -0.1928 -0.0375
18138TIP3    H175829   6.408   3.477   5.565  0.6393 -1.0618  0.2942
18138TIP3    H275830   6.311   3.484   5.681 -0.6456  0.7239 -0.8658
18139TIP3   OH275831   4.321   0.939  11.352  0.2632 -0.5838  0.0833
18139TIP3    H175832   4.329   0.906  11.262 -1.1337  0.0694 -0.2909
18139TIP3    H275833   4.253   0.884  11.391 -0.8965  0.7526 -0.0319
18140TIP3   OH275834   5.548   2.833  15.705  0.3539 -0.6802 -0.0679
18140TIP3    H175835   5.509   2.920  15.700 -1.8079 -1.6893 -0.9446
18140TIP3    H275836   5.539   2.808  15.797 -0.4842 -0.6396 -0.1367
18141TIP3   OH275837   5.364   6.332   4.546  0.5195 -0.5131 -0.2676
18141TIP3    H175838   5.308   6.281   4.489  1.2721 -2.6149  0.8266
18141TIP3    H275839   5.326   6.420   4.545  0.1379 -0.6641 -3.4332
18142TIP3   OH275840   4.132   0.731   2.520 -0.8765  0.2214  0.4447
18142TIP3    H175841   4.161   0.735   2.429 -1.0918  1.7402  0.4360
18142TIP3    H275842   4.201   0.774   2.569  0.5308 -2.9424  1.3488
18143TIP3   OH275843   1.014   6.331   1.292 -0.1795 -0.1832 -0.3792
18143TIP3    H175844   1.067   6.280   1.231  0.3331 -0.5687  0.3858
18143TIP3    H275845   0.934   6.279   1.304 -0.0181 -0.4069 -0.2569
18144TIP3   OH275846   1.373   1.527  16.721  0.3283  0.1644  0.1660
18144TIP3    H175847   1.381   1.435  16.699  0.2074  0.0161  0.7494
18144TIP3    H275848   1.459   1.565  16.700 -0.0919  0.2216 -1.4989
18145TIP3   OH275849   4.953   5.998  16.713 -0.4914  0.0718  0.6820
18145TIP3    H175850   5.030   6.018  16.661  0.1906 -0.7808  1.3515
18145TIP3    H275851   4.976   6.024  16.802 -0.5686 -1.2052  1.0835
18146TIP3   OH275852   2.486   6.378   0.844  0.1352 -0.4886  0.0748
18146TIP3    H175853   2.542   6.456   0.843  1.6741 -1.5359  0.7786
18146TIP3    H275854   2.542   6.310   0.883 -3.0528 -0.5301  4.9075
18147TIP3   OH275855   5.157   2.281  10.957 -0.0387 -0.2986 -0.2433
18147TIP3    H175856   5.079   2.310  10.910  0.0373 -0.5504 -0.5265
18147TIP3    H275857   5.154   2.185  10.953 -0.2308 -0.3364  0.5915
18148TIP3   OH275858   1.825   2.067   3.175 -0.9060  0.1666  0.1553
18148TIP3    H175859   1.779   2.055   3.092 -0.5123  1.8520 -0.3180
18148TIP3    H275860   1.898   2.125   3.154  1.4636 -2.4732  0.8950
18149TIP3   OH275861   4.032   2.112   4.110  0.5521 -0.2459 -0.2866
18149TIP3    H175862   3.963   2.171   4.078 -0.7771 -1.4414  0.3030
18149TIP3    H275863   4.109   2.137   4.059 -0.9631 -0.6372 -2.9057
18150TIP3   OH275864   0.460   4.511  15.057 -0.2682 -0.1858 -0.1166
18150TIP3    H175865   0.384   4.535  15.111 -0.3644  1.1266 -0.8085
18150TIP3    H275866   0.536   4.530  15.113 -0.3797  0.8490 -0.2955
18151TIP3   OH275867   1.590   0.381   2.459  0.2585 -0.1103 -0.0563
18151TIP3    H175868   1.597   0.466   2.414  2.5664 -0.8982 -1.2840
18151TIP3    H275869   1.539   0.326   2.399  2.2878 -0.7915 -1.2080
18152TIP3   OH275870   6.109   2.894   1.447 -0.0090 -0.2571 -0.4447
18152TIP3    H175871   6.042   2.961   1.460  1.5356  1.0874  0.8440
18152TIP3    H275872   6.184   2.942   1.412  0.4399 -1.6623 -1.4468
18153TIP3   OH275873   0.426   5.919   0.640 -0.7430 -0.0963 -0.0070
18153TIP3    H175874   0.454   5.953   0.725 -0.0032  0.1800 -0.3572
18153TIP3    H275875   0.389   5.833   0.660  0.2019 -0.3937  0.4790
18154TIP3   OH275876   6.532   3.890   3.185  0.3683 -0.3397 -0.4648
18154TIP3    H175877   6.480   3.880   3.265 -0.2299  0.5659 -0.7273
18154TIP3    H275878   6.623   3.889   3.216  0.1440 -0.0580  0.2258
18155TIP3   OH275879   4.058   6.766  12.445  0.1311  0.6029 -0.2756
18155TIP3    H175880   4.111   6.712  12.386 -1.0795  1.1427 -1.8629
18155TIP3    H275881   4.102   6.851  12.446  0.0008  0.6729 -0.5997
18156TIP3   OH275882   0.032   4.736   4.961  0.5565  0.1109 -0.5564
18156TIP3    H175883   0.083   4.747   5.041 -0.3543  0.2914  0.0069
18156TIP3    H275884  -0.015   4.653   4.974 -1.8578  1.5538  0.3858
18157TIP3   OH275885   4.079   5.831  14.634  0.7627 -0.2149  0.0930
18157TIP3    H175886   4.057   5.833  14.727 -1.3504 -0.6619 -0.3471
18157TIP3    H275887   4.034   5.753  14.601  1.9035 -0.3426 -1.2073
18158TIP3   OH275888   4.570   3.326  11.596  0.3553 -0.4037 -0.3345
18158TIP3    H175889   4.584   3.255  11.534 -1.5579  0.8779 -2.3347
18158TIP3    H275890   4.479   3.316  11.623  0.2296  0.9209 -0.2063
18159TIP3   OH275891   2.269   1.353   5.974  0.0991  0.4643  0.3762
18159TIP3    H175892   2.245   1.436   6.016  2.1805  0.2336  2.1206
18159TIP3    H275893   2.364   1.355   5.970  0.1381 -1.4872 -0.3110
18160TIP3   OH275894   1.596   6.222   5.940  0.1840  0.2344 -0.3854
18160TIP3    H175895   1.642   6.160   5.883  1.6973 -1.9393  2.9896
18160TIP3    H275896   1.663   6.287   5.963  0.2122 -0.1793  0.7035
18161TIP3   OH275897   5.990   6.048  14.672 -0.2754  0.1357  0.3298
18161TIP3    H175898   5.931   6.083  14.606  1.8784 -0.0600 -1.7487
18161TIP3    H275899   5.952   5.963  14.696 -0.4630 -0.3048 -1.4816
18162TIP3   OH275900   5.614   3.227   5.181  0.2297  0.1425  0.0756
18162TIP3    H175901   5.586   3.219   5.272 -2.3363  1.2572 -0.5666
18162TIP3    H275902   5.595   3.141   5.142  0.7041 -0.1194  0.4177
18163TIP3   OH275903   4.700   1.185   0.680  0.4653 -0.3612 -0.0390
18163TIP3    H175904   4.608   1.196   0.657  0.5392  3.1611  1.1075
18163TIP3    H275905   4.702   1.107   0.736 -2.0269  0.4395  1.1778
18164TIP3   OH275906   5.969   4.502  14.029  0.1367  0.1881 -0.3828
18164TIP3    H175907   5.905   4.531  13.965  0.5007  0.8175 -0.4656
18164TIP3    H275908   6.041   4.466  13.976  0.7523  1.3516 -0.3657
18165TIP3   OH275909   3.346   3.224   2.807 -0.1049  0.7861 -0.2171
18165TIP3    H175910   3.409   3.276   2.857  2.6232 -2.2366 -0.3999
18165TIP3    H275911   3.343   3.267   2.721  0.2271  2.0932  0.4151
18166TIP3   OH275912   4.632   2.260  14.372  0.0197 -0.4968  0.4565
18166TIP3    H175913   4.719   2.255  14.333 -0.6287 -0.9560 -0.9784
18166TIP3    H275914   4.573   2.231  14.302 -1.2908 -0.0778  1.3714
18167TIP3   OH275915   3.576   0.489  14.024  0.8111  0.7120 -0.2224
18167TIP3    H175916   3.597   0.465  13.934 -0.1641  1.6937 -0.7075
18167TIP3    H275917   3.579   0.405  14.072  2.8895  0.4115 -0.8438
18168TIP3   OH275918   1.222   6.274   0.020 -0.4331 -0.2545 -0.0901
18168TIP3    H175919   1.210   6.368   0.036 -1.5611 -0.2166 -1.1125
18168TIP3    H275920   1.271   6.243   0.097  1.8901  1.5677 -0.7843
18169TIP3   OH275921   6.016   3.833  12.671 -0.6194  0.0928  0.2383
18169TIP3    H175922   6.054   3.747  12.689 -1.5602 -0.4770 -0.4219
18169TIP3    H275923   6.091   3.888  12.648 -0.1194 -0.8375 -0.3887
18170TIP3   OH275924   4.398   4.527   5.568 -1.0799 -0.2364 -0.2995
18170TIP3    H175925   4.449   4.600   5.532 -1.7781 -0.9891 -2.8395
18170TIP3    H275926   4.465   4.467   5.602 -0.3955  0.0893 -1.0527
18171TIP3   OH275927   5.398   3.310  16.550 -0.5146  0.2643 -0.2877
18171TIP3    H175928   5.420   3.225  16.513  0.5972 -0.3040  1.6541
18171TIP3    H275929   5.440   3.312  16.635 -0.8380  2.6160 -0.1316
18172TIP3   OH275930   1.351   1.610  16.129 -0.1801 -0.3540  0.1907
18172TIP3    H175931   1.420   1.555  16.168  0.0170  0.1956  0.6229
18172TIP3    H275932   1.302   1.550  16.073  0.6271 -0.7642 -0.0859
18173TIP3   OH275933   0.619   0.127  11.548  0.1406 -0.0956 -0.0050
18173TIP3    H175934   0.601   0.150  11.457  1.0113  1.8699  0.3004
18173TIP3    H275935   0.563   0.051  11.565  1.2226 -1.5685 -2.6912
18174TIP3   OH275936   6.533   1.056   1.807 -0.1175  0.0108 -0.0449
18174TIP3    H175937   6.559   0.975   1.851  1.2863  0.6176  0.2623
18174TIP3    H275938   6.455   1.085   1.854  1.1337  0.4284  1.8149
18175TIP3   OH275939   0.843   0.350   4.969 -0.0728 -0.0273  0.3057
18175TIP3    H175940   0.850   0.446   4.971  1.0470 -0.1373  2.0689
18175TIP3    H275941   0.859   0.327   4.877  0.1828  1.4319 -0.0301
18176TIP3   OH275942   4.124   1.363   0.647  0.3329 -0.0304 -0.4161
18176TIP3    H175943   4.171   1.281   0.662 -1.5375 -0.5635  3.0382
18176TIP3    H275944   4.043   1.337   0.603  0.4823  0.1692 -0.8123
18177TIP3   OH275945   0.366   1.471  12.466  0.0525 -0.1121 -0.0715
18177TIP3    H175946   0.363   1.543  12.403 -1.5138 -0.4495 -0.3925
18177TIP3    H275947   0.392   1.395  12.413 -1.2214 -0.3868 -0.3176
18178TIP3   OH275948   0.261   3.883   0.679 -0.4557 -0.4882 -0.4908
18178TIP3    H175949   0.230   3.865   0.591 -1.9315  0.7584 -0.2604
18178TIP3    H275950   0.255   3.978   0.688 -0.4756 -0.6136  0.9974
18179TIP3   OH275951   5.846   4.604   4.155  0.1023 -0.1167 -0.2572
18179TIP3    H175952   5.864   4.532   4.095  4.1980 -2.6580  3.6390
18179TIP3    H275953   5.906   4.674   4.129  1.2097 -0.8569  0.2891
18180TIP3   OH275954   1.344   0.720   5.148 -0.4361 -0.2555  0.2656
18180TIP3    H175955   1.406   0.761   5.208 -0.8036  1.9969 -0.8624
18180TIP3    H275956   1.285   0.790   5.122 -0.8612 -1.4184 -2.0198
18181TIP3   OH275957   5.496   4.238   3.318  0.2284 -0.0444 -0.1808
18181TIP3    H175958   5.497   4.214   3.226 -1.1121  2.0579 -0.7752
18181TIP3    H275959   5.405   4.228   3.345  0.6514 -0.8553  0.9858
18182TIP3   OH275960   2.298   4.557  15.269 -0.5042 -0.2355  0.1791
18182TIP3    H175961   2.232   4.598  15.214 -0.4303 -0.1850  0.1274
18182TIP3    H275962   2.336   4.629  15.320  0.4088 -0.0580 -0.7289
18183TIP3   OH275963   6.014   3.384   5.671 -0.4713  0.0207 -0.2184
18183TIP3    H175964   6.063   3.392   5.589  1.7343  0.6551  1.1232
18183TIP3    H275965   5.963   3.465   5.676  0.4253  0.6046 -0.3232
18184TIP3   OH275966   1.429   0.707  11.631  0.2541  0.1674  0.2219
18184TIP3    H175967   1.446   0.788  11.678  3.2174  0.0290 -0.4659
18184TIP3    H275968   1.385   0.734  11.551 -0.0645  0.9583  0.6671
18185TIP3   OH275969   1.027   4.486   4.624 -0.4488  0.2957  0.0335
18185TIP3    H175970   0.938   4.489   4.587 -0.7328  0.1137  0.7027
18185TIP3    H275971   1.040   4.394   4.647 -0.2919  0.4204  0.4425
18186TIP3   OH275972   3.756   6.173  10.820  0.2071  0.4080  0.1333
18186TIP3    H175973   3.769   6.253  10.770  1.9765 -0.5195 -0.9252
18186TIP3    H275974   3.783   6.103  10.760 -1.0211 -0.9620  1.1473
18187TIP3   OH275975   6.073   5.789   0.429 -0.0119  0.6604  0.5162
18187TIP3    H175976   6.117   5.728   0.370  0.2933  0.0640  1.3508
18187TIP3    H275977   6.144   5.833   0.476 -0.2208  1.7733 -0.1710
18188TIP3   OH275978   4.673   1.663  12.534  0.8249 -0.5249 -0.5280
18188TIP3    H175979   4.648   1.594  12.596 -0.4041 -0.2360 -0.6794
18188TIP3    H275980   4.652   1.745  12.579 -2.9368 -0.3439 -2.4138
18189TIP3   OH275981   0.181   5.577  13.552 -0.1946  0.0515  0.0049
18189TIP3    H175982   0.089   5.558  13.533 -0.5862  0.7737  1.0985
18189TIP3    H275983   0.208   5.508  13.613 -0.3851  0.5672  0.6762
18190TIP3   OH275984   3.767   1.742  14.107 -0.0838  0.0384  0.1972
18190TIP3    H175985   3.780   1.752  14.012  1.9647 -1.0140  0.3368
18190TIP3    H275986   3.831   1.802  14.145 -0.6226  0.1486  0.9225
18191TIP3   OH275987   2.056   1.221  16.944  0.2805 -0.9040  0.3685
18191TIP3    H175988   2.141   1.264  16.940  0.5814 -1.5681 -0.3596
18191TIP3    H275989   2.016   1.239  16.859 -0.4193 -0.3793  0.7961
18192TIP3   OH275990   1.557   3.318  11.743 -0.2764  0.2172 -0.6352
18192TIP3    H175991   1.633   3.355  11.789  0.6220 -0.9313 -1.1913
18192TIP3    H275992   1.483   3.340  11.799  0.5798  0.5009  0.4089
18193TIP3   OH275993   0.531   2.696  13.140  0.2241 -0.1958  0.7363
18193TIP3    H175994   0.514   2.720  13.231  1.0256 -2.0646  1.4021
18193TIP3    H275995   0.627   2.697  13.133  0.2149 -1.7145  0.3852
18194TIP3   OH275996   2.439   6.317  15.825 -0.2844 -0.1171 -0.0425
18194TIP3    H175997   2.502   6.318  15.752  0.0717 -0.5390  0.2567
18194TIP3    H275998   2.360   6.279  15.788 -0.0851 -0.3818 -0.1926
18195TIP3   OH275999   2.790   1.392  15.251 -0.8623 -0.1368 -0.0596
18195TIP3    H176000   2.882   1.404  15.226 -0.6310 -1.7112 -0.0584
18195TIP3    H276001   2.745   1.469  15.217  0.2965  0.1713 -0.9355
18196TIP3   OH276002   1.768   4.971  11.837  0.4769  0.2071  0.4096
18196TIP3    H176003   1.778   5.065  11.853 -2.0804  0.6841 -0.4949
18196TIP3    H276004   1.689   4.947  11.886  0.1561 -1.0813 -0.7122
18197TIP3   OH276005   1.159   6.071   0.651  0.3408  0.2906  0.5034
18197TIP3    H176006   1.108   6.013   0.706  1.1378  0.7898  1.7946
18197TIP3    H276007   1.204   6.129   0.712 -0.5667  2.3796 -0.7538
18198TIP3   OH276008   2.365   0.424   3.136  0.3052  0.6392 -0.5431
18198TIP3    H176009   2.387   0.510   3.172  3.2040 -0.8291  1.4173
18198TIP3    H276010   2.443   0.398   3.088 -0.5947 -0.8673 -1.2187
18199TIP3   OH276011   6.514   4.898  13.594  0.1393  0.2092 -0.0286
18199TIP3    H176012   6.435   4.861  13.556 -0.4267  1.3434  0.0225
18199TIP3    H276013   6.546   4.959  13.527 -0.2885  1.4345  0.8585
18200TIP3   OH276014   4.881   0.669   0.906 -0.1118 -0.5027 -0.3823
18200TIP3    H176015   4.975   0.687   0.908  0.3696 -2.8750  0.3236
18200TIP3    H276016   4.864   0.626   0.990 -2.0193  0.7644 -0.1036
18201TIP3   OH276017   0.240   2.516   2.684  0.1938  0.0851 -0.0498
18201TIP3    H176018   0.306   2.447   2.688  0.6622  0.5592  0.2585
18201TIP3    H276019   0.278   2.583   2.627  0.2999  0.7056  0.7565
18202TIP3   OH276020   5.934   2.830   0.028  0.1888 -0.4451  0.1959
18202TIP3    H176021   5.953   2.910   0.078 -1.1189  0.0186 -0.0286
18202TIP3    H276022   5.992   2.764   0.066  0.1364  0.2188  1.4652
18203TIP3   OH276023   6.359   4.804   2.792 -0.7315 -0.4018 -0.1268
18203TIP3    H176024   6.434   4.788   2.849  0.1370  2.1808 -0.4701
18203TIP3    H276025   6.332   4.894   2.813 -1.2888  0.0692 -2.7183
18204TIP3   OH276026   2.082   1.375  13.921  0.6740 -0.1229 -0.4021
18204TIP3    H176027   2.143   1.361  13.848  0.2539 -0.6580 -0.6509
18204TIP3    H276028   2.017   1.306  13.912 -0.1043  0.5880 -0.2667
18205TIP3   OH276029   5.293   6.476   3.540 -0.4455  0.1948 -0.3379
18205TIP3    H176030   5.295   6.388   3.580  1.2086  0.0060 -0.8013
18205TIP3    H276031   5.349   6.529   3.596 -0.2183  0.5834 -0.9295
18206TIP3   OH276032   5.839   0.794   4.921  0.5825  0.1504 -0.0038
18206TIP3    H176033   5.744   0.804   4.923  0.4541 -1.3666  3.0852
18206TIP3    H276034   5.867   0.850   4.848 -2.6134  0.8622 -0.7590
18207TIP3   OH276035   6.538   2.598  14.804  0.8343 -0.8355 -0.5962
18207TIP3    H176036   6.513   2.669  14.745  1.4565 -0.5191 -0.4881
18207TIP3    H276037   6.455   2.556  14.829  0.4226  0.1724 -0.2622
18208TIP3   OH276038   4.563   0.537   4.950  0.1268 -0.6169 -0.2088
18208TIP3    H176039   4.504   0.471   4.985 -0.8054 -0.1631 -0.8877
18208TIP3    H276040   4.605   0.496   4.875  0.1601 -0.7158 -0.1348
18209TIP3   OH276041   0.510   3.559  12.844 -0.0638 -0.4489 -0.1377
18209TIP3    H176042   0.420   3.567  12.875 -0.2612 -0.1142 -0.7949
18209TIP3    H276043   0.502   3.528  12.753  0.4465  0.7359 -0.5933
18210TIP3   OH276044   1.671   6.066   2.747  0.4263  0.5820 -0.7373
18210TIP3    H176045   1.710   5.979   2.755 -1.8641 -0.4804 -0.5499
18210TIP3    H276046   1.672   6.084   2.653 -0.3795 -0.2933 -0.9233
18211TIP3   OH276047   3.888   0.574  15.208  0.7362  0.6241 -0.2012
18211TIP3    H176048   3.962   0.606  15.259  0.9917  0.0975 -0.2365
18211TIP3    H276049   3.863   0.649  15.152  2.0874  0.3946 -1.1423
18212TIP3   OH276050   6.274   4.102  13.206  0.0901  0.2576  0.4118
18212TIP3    H176051   6.208   4.049  13.250  0.0246  0.1904  0.2349
18212TIP3    H276052   6.281   4.063  13.119 -0.5208  1.0088  0.0170
18213TIP3   OH276053   2.684   6.080  15.561  0.3515  0.1405 -0.6720
18213TIP3    H176054   2.734   6.156  15.532 -0.9806  1.3377  0.0881
18213TIP3    H276055   2.666   6.097  15.653 -0.4689 -0.8247 -0.6467
18214TIP3   OH276056   1.852   1.786   1.745  0.0257  0.0584 -0.0580
18214TIP3    H176057   1.929   1.729   1.748  0.6460  0.9409  0.8991
18214TIP3    H276058   1.858   1.830   1.660  0.1212 -0.4823 -0.3375
18215TIP3   OH276059   0.633   4.946  11.742  0.6009  0.2838  0.3002
18215TIP3    H176060   0.625   4.857  11.708 -1.7972  0.1210  1.1569
18215TIP3    H276061   0.692   4.939  11.817 -1.4907 -1.0563  1.8622
18216TIP3   OH276062   1.601   2.266  13.494 -0.3093 -0.1029 -0.0970
18216TIP3    H176063   1.639   2.293  13.578 -2.0344 -0.2744  0.7620
18216TIP3    H276064   1.590   2.171  13.502 -2.7781  0.1979  0.4793
18217TIP3   OH276065   6.781   3.220  15.898  0.1507  0.0258  0.0559
18217TIP3    H176066   6.812   3.269  15.822  2.3561  1.7883  2.0120
18217TIP3    H276067   6.772   3.130  15.866  1.0514  0.7169 -2.2759
18218TIP3   OH276068   5.767   6.172  13.864 -0.5828 -0.2511 -0.3017
18218TIP3    H176069   5.714   6.246  13.835 -0.8620  0.1453  1.1696
18218TIP3    H276070   5.773   6.183  13.959 -0.2279 -1.8543 -0.1291
18219TIP3   OH276071   3.384   1.484   3.486 -0.0301 -0.4634  0.2489
18219TIP3    H176072   3.462   1.492   3.431 -0.2495  0.8298  0.1203
18219TIP3    H276073   3.415   1.505   3.574 -0.3898  0.8939  0.0689
18220TIP3   OH276074   3.900   4.440  15.009 -0.0959 -0.2845 -0.3537
18220TIP3    H176075   3.908   4.535  14.998 -0.8326 -0.0394  1.0515
18220TIP3    H276076   3.956   4.421  15.084 -2.2996 -0.4957  1.2661
18221TIP3   OH276077   6.442   1.472  14.550  0.3664  0.4109 -0.3601
18221TIP3    H176078   6.439   1.419  14.630 -1.7436  1.0148 -0.0024
18221TIP3    H276079   6.527   1.453  14.512 -0.1092 -2.8432  0.0354
18222TIP3   OH276080   5.121   3.705   0.815 -0.0248 -0.1610 -0.1541
18222TIP3    H176081   5.057   3.634   0.809  0.0246 -0.2570  0.4228
18222TIP3    H276082   5.177   3.693   0.738  0.5486 -1.3120  0.4198
18223TIP3   OH276083   4.370   2.696  12.091 -0.1203  0.0693  0.6685
18223TIP3    H176084   4.420   2.616  12.073  0.2781  0.0494  1.8445
18223TIP3    H276085   4.433   2.767  12.074  0.0556  0.0731  1.3395
18224TIP3   OH276086   5.822   0.581   2.983  0.5313 -0.3328 -1.1130
18224TIP3    H176087   5.787   0.540   2.904 -0.6787  1.0777 -1.3148
18224TIP3    H276088   5.911   0.607   2.959  0.7495 -1.3965 -1.4768
18225TIP3   OH276089   0.448   3.899   5.811 -0.0251 -0.1080 -0.6128
18225TIP3    H176090   0.523   3.929   5.760 -0.7147  0.8452 -1.0806
18225TIP3    H276091   0.460   3.939   5.897  0.0998 -0.1104 -0.6285
18226TIP3   OH276092   6.105   4.582   6.514  0.0279  0.2045  0.4256
18226TIP3    H176093   6.121   4.565   6.606 -2.4106  0.2459  0.8720
18226TIP3    H276094   6.146   4.509   6.468 -2.6491 -2.2330  1.8062
18227TIP3   OH276095   1.619   4.144   0.649  0.1361  0.6855 -0.4862
18227TIP3    H176096   1.657   4.181   0.569 -1.4176  1.3464 -0.9276
18227TIP3    H276097   1.654   4.199   0.720 -0.6955  1.8528 -0.9698
18228TIP3   OH276098   5.968   5.701  16.623 -0.0683 -0.2217 -0.4746
18228TIP3    H176099   5.951   5.792  16.601  1.5383 -0.2122 -1.8009
18228TIP3    H276100   5.971   5.699  16.719 -1.1647  0.8984 -0.4010
18229TIP3   OH276101   1.949   2.727  14.039  0.0968 -0.2006  0.1696
18229TIP3    H176102   1.989   2.803  13.998 -1.5368  0.4006 -0.3479
18229TIP3    H276103   1.983   2.727  14.128  1.4520  0.1245 -0.3452
18230TIP3   OH276104   5.796   3.567  12.873  0.4447  0.3498  0.2866
18230TIP3    H176105   5.802   3.519  12.790 -0.0614  2.4819 -1.0168
18230TIP3    H276106   5.785   3.499  12.939  0.2191 -1.3618 -1.4640
18231TIP3   OH276107   0.165   4.487   0.690 -0.8437  0.0761  0.4440
18231TIP3    H176108   0.184   4.410   0.745  0.5421 -0.0415 -0.1912
18231TIP3    H276109   0.150   4.451   0.603 -0.0527  0.5433  0.1143
18232TIP3   OH276110   4.250   3.203  12.304 -0.0144  0.0802  0.8727
18232TIP3    H176111   4.212   3.291  12.301 -2.3900 -0.9499 -0.3218
18232TIP3    H276112   4.250   3.180  12.397  2.3227  2.0071  1.4019
18233TIP3   OH276113   1.136   1.261  16.708  0.4753  0.2254  0.1761
18233TIP3    H176114   1.118   1.314  16.630  0.5367  1.3214  0.8949
18233TIP3    H276115   1.052   1.256  16.754  0.5520  0.0044  0.2920
18234TIP3   OH276116   4.171   3.836  12.762  0.1297  0.1731 -0.1339
18234TIP3    H176117   4.115   3.783  12.819 -1.9037  1.0969 -1.2061
18234TIP3    H276118   4.133   3.825  12.675  0.4336  2.3652 -0.5670
18235TIP3   OH276119   3.592   5.700  13.618 -0.6419 -0.4191  0.0911
18235TIP3    H176120   3.500   5.713  13.637 -1.1327 -0.1767 -2.3234
18235TIP3    H276121   3.594   5.660  13.531  1.5218 -0.3872  0.0814
18236TIP3   OH276122   2.612   4.286   2.327 -0.2686 -0.3938 -0.1719
18236TIP3    H176123   2.680   4.307   2.263  0.2007 -0.6852  0.2186
18236TIP3    H276124   2.537   4.258   2.275 -0.4882  1.0679 -0.6448
18237TIP3   OH276125   4.952   0.663   2.302 -0.0205 -0.5921  0.0118
18237TIP3    H176126   4.865   0.685   2.337  0.7577  2.0904  0.3829
18237TIP3    H276127   4.984   0.745   2.265  1.0643 -2.2964 -3.0429
18238TIP3   OH276128   1.111   1.448   3.191 -0.2488 -0.2639 -0.1832
18238TIP3    H176129   1.165   1.447   3.112 -1.3693  0.6806 -0.9613
18238TIP3    H276130   1.028   1.409   3.164 -0.0562 -1.5420  0.9720
18239TIP3   OH276131   3.879   0.792  15.809  0.4646  0.2166  0.3224
18239TIP3    H176132   3.849   0.754  15.892  0.2800  0.9151  0.5818
18239TIP3    H276133   3.887   0.885  15.828 -0.1050  0.4526 -0.6090
18240TIP3   OH276134   2.537   4.683  15.491  0.2746  0.2229 -0.4690
18240TIP3    H176135   2.616   4.682  15.438  0.5952 -0.1991  0.0180
18240TIP3    H276136   2.538   4.600  15.538  0.7082  1.1898  1.2607
18241TIP3   OH276137   6.281   0.573   1.434 -0.6341  0.0354 -0.0470
18241TIP3    H176138   6.260   0.509   1.367  0.1188 -0.6695  0.3863
18241TIP3    H276139   6.375   0.566   1.447 -0.3736  1.9551 -0.7226
18242TIP3   OH276140   2.226   6.571   0.835  0.1081 -0.7594 -0.2123
18242TIP3    H176141   2.317   6.543   0.850  0.0917  0.0201  1.5120
18242TIP3    H276142   2.174   6.493   0.856  0.2632 -0.5102  1.1811
18243TIP3   OH276143   5.465   4.576  14.689 -0.3402  0.3410 -0.2541
18243TIP3    H176144   5.445   4.579  14.783  1.3416 -0.9412  0.1609
18243TIP3    H276145   5.496   4.665  14.669  1.6722 -0.0478  0.9722
18244TIP3   OH276146   2.766   6.350  13.305  0.2728 -0.2602 -0.0307
18244TIP3    H176147   2.832   6.358  13.236  0.8306 -1.7808  0.2884
18244TIP3    H276148   2.697   6.411  13.281  0.8736 -0.1381 -1.4586
18245TIP3   OH276149   3.770   2.770   4.868 -0.0518 -0.0850 -0.3902
18245TIP3    H176150   3.828   2.785   4.943  0.3864 -0.5580 -0.6311
18245TIP3    H276151   3.822   2.795   4.792 -0.5244  0.4696 -0.5368
18246TIP3   OH276152   3.704   3.878   3.626  0.1114  0.0900  0.2225
18246TIP3    H176153   3.676   3.865   3.535  2.2751  0.8294 -0.5686
18246TIP3    H276154   3.798   3.894   3.620  0.3168 -0.1205  2.6318
18247TIP3   OH276155   4.093   3.298  14.598  0.1180  0.3047  0.6188
18247TIP3    H176156   4.091   3.235  14.526 -0.6675  0.9198  0.0984
18247TIP3    H276157   4.010   3.344  14.592  1.1222  2.1118  0.3649
18248TIP3   OH276158   3.285   4.825  16.518  0.0578 -0.3803  0.0880
18248TIP3    H176159   3.335   4.807  16.439  2.8584  2.5806  1.0877
18248TIP3    H276160   3.280   4.920  16.523 -3.7028 -0.5639  1.2961
18249TIP3   OH276161   1.342   5.005  15.760  0.9346 -0.7952 -0.1608
18249TIP3    H176162   1.345   5.100  15.754 -1.0872 -0.6777  0.4250
18249TIP3    H276163   1.357   4.986  15.853 -0.8152 -0.9070  0.1246
18250TIP3   OH276164   1.336   1.255   4.506  0.3124  0.3176  0.0645
18250TIP3    H176165   1.379   1.214   4.581 -0.1780 -0.1984  0.0692
18250TIP3    H276166   1.328   1.347   4.530  1.3802  0.4165  0.0800
18251TIP3   OH276167   5.633   3.514   5.414 -0.0967 -0.4639  0.2009
18251TIP3    H176168   5.584   3.435   5.435 -0.1770 -0.4517  0.0651
18251TIP3    H276169   5.722   3.483   5.396  0.5834 -0.2125  2.8786
18252TIP3   OH276170   2.350   1.910   4.713 -0.2197 -0.3721 -0.0992
18252TIP3    H176171   2.333   1.843   4.779 -0.4066 -0.7822 -0.5571
18252TIP3    H276172   2.400   1.977   4.759 -0.6969 -0.4602  0.5585
18253TIP3   OH276173   6.552   0.183   2.608  0.4373 -0.1696  0.1024
18253TIP3    H176174   6.586   0.163   2.521  2.0030 -0.0625  0.6778
18253TIP3    H276175   6.512   0.101   2.638 -0.2186 -0.1719 -0.7466
18254TIP3   OH276176   4.402   0.506   5.294 -0.0674  0.3645 -0.1840
18254TIP3    H176177   4.316   0.470   5.270 -1.1475  1.5965  1.7077
18254TIP3    H276178   4.414   0.581   5.235  1.2234 -1.7044 -2.6675
18255TIP3   OH276179   0.929   6.538   1.057 -0.2359  0.5104  0.6683
18255TIP3    H176180   0.870   6.488   1.114 -0.0663  0.3369  0.6921
18255TIP3    H276181   1.001   6.478   1.038  0.1228  0.8431  0.9441
18256TIP3   OH276182   6.723   3.756  11.278  0.3470  0.1577  0.2095
18256TIP3    H176183   6.754   3.713  11.198 -0.2775  0.2069 -0.0570
18256TIP3    H276184   6.712   3.684  11.341 -1.0130 -0.1289 -0.3354
18257TIP3   OH276185   6.063   2.494   5.356  0.2388 -0.0547 -0.2542
18257TIP3    H176186   6.130   2.503   5.289  0.9510  1.3879  0.6223
18257TIP3    H276187   6.006   2.570   5.344  1.6858  1.5003  2.1620
18258TIP3   OH276188   0.135   2.029  12.453  0.3491 -0.2020  0.3944
18258TIP3    H176189   0.215   2.076  12.431 -0.7743  1.6393  0.1966
18258TIP3    H276190   0.162   1.965  12.520  2.1270 -0.1660 -0.2766
18259TIP3   OH276191   0.166   1.539   6.121  0.5850  0.4016 -0.4926
18259TIP3    H176192   0.103   1.502   6.059 -0.1595  1.5467 -0.4450
18259TIP3    H276193   0.136   1.629   6.135  1.6661  0.6568  0.3016
18260TIP3   OH276194   0.135   2.304  15.019 -0.3443  0.0996  0.7853
18260TIP3    H176195   0.148   2.238  14.951  1.3984  0.3686  0.8294
18260TIP3    H276196   0.052   2.346  14.996  0.1265  0.0589 -1.0818
18261TIP3   OH276197   1.682   5.522  12.007 -1.0824  0.2554  0.5740
18261TIP3    H176198   1.620   5.464  12.050 -0.2509 -1.5931 -0.6525
18261TIP3    H276199   1.768   5.483  12.024 -0.5889  0.5706 -1.0579
18262TIP3   OH276200   4.076   4.358   1.693  0.2433  0.5340 -0.2509
18262TIP3    H176201   4.020   4.343   1.770 -2.5942 -2.2212 -2.7137
18262TIP3    H276202   4.050   4.445   1.661 -1.4977  0.0024 -0.3758
18263TIP3   OH276203   5.407   3.819  11.660  0.1019  0.1874 -0.2495
18263TIP3    H176204   5.462   3.889  11.626  0.2336 -1.2275 -3.1861
18263TIP3    H276205   5.363   3.784  11.582  0.0612 -2.9695  1.1216
18264TIP3   OH276206   4.663   4.679   1.851  0.4454  0.5465 -0.3018
18264TIP3    H176207   4.734   4.632   1.807 -0.3519  0.1400 -1.1698
18264TIP3    H276208   4.670   4.768   1.818  0.7804  0.5962 -0.1033
18265TIP3   OH276209   3.909   6.745   2.381 -0.5120  0.4835 -0.5384
18265TIP3    H176210   3.964   6.672   2.411  0.7557  0.9597 -1.6212
18265TIP3    H276211   3.879   6.718   2.294 -0.1313  1.1819 -0.8956
18266TIP3   OH276212   1.554   3.919  13.357 -0.0325 -0.0464 -0.0843
18266TIP3    H176213   1.609   3.976  13.303 -0.0119 -0.0683 -0.0861
18266TIP3    H276214   1.556   3.960  13.444 -0.0300 -0.0354 -0.0892
18267TIP3   OH276215   5.068   2.266  15.879  0.3761  0.1308 -0.4144
18267TIP3    H176216   5.050   2.186  15.830 -4.2911  0.7667  0.0697
18267TIP3    H276217   5.050   2.337  15.817  1.3867  0.8774  0.1290
18268TIP3   OH276218   5.630   5.751  13.061 -0.5173 -0.2391 -0.0832
18268TIP3    H176219   5.713   5.708  13.082 -0.3602  0.9284  1.8420
18268TIP3    H276220   5.568   5.717  13.126 -0.6249  1.6788  0.8454
18269TIP3   OH276221   5.970   6.363   4.046  0.2505  0.1270  0.0279
18269TIP3    H176222   5.971   6.428   3.976 -0.1015  0.5740  0.4347
18269TIP3    H276223   5.948   6.413   4.125 -0.1437 -0.5003  0.3187
18270TIP3   OH276224   1.564   4.293   2.842 -0.3847  0.2808  0.0526
18270TIP3    H176225   1.524   4.353   2.779 -0.1965 -0.2539 -0.5743
18270TIP3    H276226   1.641   4.259   2.797  1.7801  2.5912  1.8632
18271TIP3   OH276227   5.733   3.232   4.842  0.0745 -0.1831 -0.3813
18271TIP3    H176228   5.702   3.310   4.888  0.1964 -0.5828  0.3851
18271TIP3    H276229   5.813   3.207   4.889  0.8286  0.0492 -1.4959
18272TIP3   OH276230   3.762   6.698  17.063  0.3570 -0.0681 -0.0092
18272TIP3    H176231   3.807   6.666  17.141  1.0629 -0.0181 -0.3920
18272TIP3    H276232   3.700   6.628  17.041 -0.6074  0.3867  1.2143
18273TIP3   OH276233   0.580   6.560   0.935  0.2154 -0.2008 -0.2520
18273TIP3    H176234   0.514   6.492   0.949  2.1086 -2.2648 -0.9480
18273TIP3    H276235   0.585   6.569   0.839  1.8737 -1.0612 -0.2646
18274TIP3   OH276236   6.460   3.226   1.173 -0.3524  0.1748  0.0598
18274TIP3    H176237   6.492   3.296   1.230  2.7095  0.1584 -1.5392
18274TIP3    H276238   6.459   3.148   1.228  1.8174  0.3269  0.3535
18275TIP3   OH276239   3.572   3.526  13.581  0.0064 -0.3619 -0.4252
18275TIP3    H176240   3.485   3.558  13.561 -0.9308 -1.9273  1.0118
18275TIP3    H276241   3.592   3.466  13.510  0.9549  1.8331 -2.0623
18276TIP3   OH276242   3.449   6.632  12.713  0.0372 -0.6531  0.1993
18276TIP3    H176243   3.530   6.606  12.757  0.2004 -1.3103 -0.4812
18276TIP3    H276244   3.475   6.706  12.659  0.0644 -0.5158  0.3983
18277TIP3   OH276245   1.040   2.405   2.551  0.2712 -0.5261 -0.0494
18277TIP3    H176246   1.087   2.351   2.613  0.0364 -1.2511 -0.4977
18277TIP3    H276247   1.099   2.413   2.476  0.1282 -0.5195 -0.1622
18278TIP3   OH276248   5.345   1.117   6.199  0.3711 -0.2270  0.3698
18278TIP3    H176249   5.338   1.023   6.213 -2.1797  0.0119  1.0003
18278TIP3    H276250   5.411   1.127   6.130  0.9775 -2.4257  0.6137
18279TIP3   OH276251   3.884   1.525  13.442  0.3710 -0.1053  0.1313
18279TIP3    H176252   3.869   1.431  13.444  1.3906 -0.2503  1.1725
18279TIP3    H276253   3.949   1.541  13.510  0.6781  1.2656 -0.4567
18280TIP3   OH276254   3.579   4.483   5.498 -0.2557  0.2819  0.3390
18280TIP3    H176255   3.575   4.455   5.589 -1.9001 -0.0932  0.1667
18280TIP3    H276256   3.643   4.554   5.498  0.3368 -0.2240  1.6377
18281TIP3   OH276257   5.575   3.620   2.561 -0.1256 -0.5796  0.6178
18281TIP3    H176258   5.521   3.590   2.487  1.0452 -1.0142 -0.0715
18281TIP3    H276259   5.525   3.692   2.598 -1.0593 -0.7915 -0.1904
18282TIP3   OH276260   3.059   3.711  12.174  0.0601 -0.3724 -1.7330
18282TIP3    H176261   3.149   3.692  12.150  0.3647 -1.3274  0.1066
18282TIP3    H276262   3.010   3.632  12.149 -0.0166 -0.4340 -1.3909
18283TIP3   OH276263   2.159   5.409   2.366 -0.1729  0.2767 -0.3022
18283TIP3    H176264   2.131   5.498   2.387 -1.8529  0.0001 -1.2817
18283TIP3    H276265   2.253   5.416   2.353 -0.7233  2.5687 -3.5601
18284TIP3   OH276266   2.955   5.600   2.716  0.2802 -0.0979  0.3001
18284TIP3    H176267   2.996   5.671   2.766 -2.3293 -0.0797  2.5424
18284TIP3    H276268   2.946   5.529   2.780 -1.3358 -0.7978 -0.6984
18285TIP3   OH276269   0.156   6.483  12.255  0.1978  0.4076 -0.2733
18285TIP3    H176270   0.251   6.472  12.247  0.3493 -0.0516  1.8631
18285TIP3    H276271   0.143   6.578  12.259  0.2792  0.6047 -3.3794
18286TIP3   OH276272   0.213   5.896  15.905 -0.2837 -0.1324 -0.2861
18286TIP3    H176273   0.308   5.883  15.906 -0.1695  0.7139  2.5193
18286TIP3    H276274   0.196   5.959  15.974 -3.1279 -1.7777  0.6015
18287TIP3   OH276275   3.718   4.508   2.858 -0.6323  0.1302  1.0296
18287TIP3    H176276   3.686   4.525   2.769 -0.5970  0.0473  1.0005
18287TIP3    H276277   3.802   4.554   2.862 -0.3510 -0.3567  0.8199
18288TIP3   OH276278   2.404   6.246   3.195 -0.4336 -0.0572 -0.4487
18288TIP3    H176279   2.368   6.279   3.278 -1.2559 -0.2414 -0.7310
18288TIP3    H276280   2.345   6.175   3.170  0.5510 -0.8434 -0.5410
18289TIP3   OH276281   2.609   5.194   5.223 -0.3203  0.1756 -0.0087
18289TIP3    H176282   2.643   5.281   5.204 -2.4488  1.2539  0.9885
18289TIP3    H276283   2.544   5.178   5.155 -0.2387 -0.4794  0.0572
18290TIP3   OH276284   0.762   5.774   2.462  0.2093  0.3772 -0.2816
18290TIP3    H176285   0.819   5.732   2.398  0.8811 -0.5890  0.9244
18290TIP3    H276286   0.803   5.755   2.547 -1.7810 -0.1174  0.5934
18291TIP3   OH276287   1.165   6.080   1.952  0.1539  0.2153  0.6636
18291TIP3    H176288   1.181   5.989   1.928 -0.2748 -0.5968  3.2778
18291TIP3    H276289   1.119   6.117   1.877  1.2182 -1.4415 -0.8425
18292TIP3   OH276290   3.263   1.971  16.398  0.2715  0.1625 -0.6239
18292TIP3    H176291   3.208   2.042  16.433 -0.8070  0.0486 -2.0555
18292TIP3    H276292   3.270   1.909  16.470 -0.7730  0.5885 -0.1441
18293TIP3   OH276293   5.172   2.644   0.413  0.4872  0.1402  0.3543
18293TIP3    H176294   5.078   2.633   0.400  0.6666 -3.1566  1.3649
18293TIP3    H276295   5.208   2.649   0.324 -0.6496  1.7199 -0.0286
18294TIP3   OH276296   1.886   1.306   1.308 -0.4508 -0.2624  0.3784
18294TIP3    H176297   1.924   1.266   1.230  0.5982 -0.0707  0.7862
18294TIP3    H276298   1.845   1.232   1.354 -0.4409 -0.4950  0.0213
18295TIP3   OH276299   5.609   0.250   5.332  0.4934  0.3101 -0.1902
18295TIP3    H176300   5.639   0.335   5.365  1.7834 -0.1948 -0.0548
18295TIP3    H276301   5.686   0.212   5.289 -0.2001 -0.5948 -0.6529
18296TIP3   OH276302   6.666   1.293   2.845 -0.1566 -0.3944  0.1654
18296TIP3    H176303   6.706   1.207   2.857  0.8697  0.0153 -0.1967
18296TIP3    H276304   6.703   1.346   2.915  2.2398  0.7569 -1.8534
18297TIP3   OH276305   0.886   4.193   2.488  0.1148  0.9451  0.1963
18297TIP3    H176306   0.851   4.243   2.415  0.2449  0.3691 -0.2718
18297TIP3    H276307   0.944   4.253   2.533 -1.3187  1.8440  0.8598
18298TIP3   OH276308   2.271   6.405   5.425 -0.1216 -0.5879 -0.0286
18298TIP3    H176309   2.286   6.310   5.430 -0.0500 -0.5317  0.8455
18298TIP3    H276310   2.347   6.443   5.468 -1.2801 -0.2033  1.6965
18299TIP3   OH276311   1.337   2.998  13.152  0.0974 -0.2964  0.6913
18299TIP3    H176312   1.370   3.028  13.237 -1.0828 -0.4228  1.2053
18299TIP3    H276313   1.246   2.973  13.169 -0.4019  0.4601 -0.7933
18300TIP3   OH276314   6.340   0.037  11.514 -0.0862 -0.0775  1.3057
18300TIP3    H176315   6.314  -0.052  11.535  0.0349 -0.2401  0.7728
18300TIP3    H276316   6.274   0.092  11.555 -1.1978 -0.4769  0.1054
18301TIP3   OH276317   1.161   0.198  15.382  0.0173 -0.2409 -0.4063
18301TIP3    H176318   1.083   0.148  15.356  0.2218 -0.2898 -0.9330
18301TIP3    H276319   1.192   0.238  15.300 -0.8899  1.8153  0.2139
18302TIP3   OH276320   1.954   5.052  12.446  0.7900  0.4049  0.3620
18302TIP3    H176321   1.928   5.093  12.364  0.0945 -0.4849  0.1307
18302TIP3    H276322   1.926   5.113  12.514 -0.5064  0.1715  0.0363
18303TIP3   OH276323   5.562   2.027   0.589  0.3808 -0.1993  0.2153
18303TIP3    H176324   5.536   2.015   0.498  0.5184 -0.3070  0.1891
18303TIP3    H276325   5.641   2.081   0.584 -0.8801  1.6819  0.3955
18304TIP3   OH276326   3.633   6.411   4.877 -0.8552 -0.1177 -0.2071
18304TIP3    H176327   3.603   6.476   4.940 -1.3612  0.4048 -0.9924
18304TIP3    H276328   3.564   6.345   4.875 -0.8258 -0.1497 -0.1919
18305TIP3   OH276329   6.014   0.872  16.652 -0.4332  0.3246 -0.1740
18305TIP3    H176330   6.058   0.883  16.568  0.1081  1.1388  0.2111
18305TIP3    H276331   5.983   0.781  16.651  1.3121 -0.2877 -0.4193
18306TIP3   OH276332   5.814   5.015   2.232 -0.6658  0.6140 -0.3501
18306TIP3    H176333   5.763   5.038   2.155 -2.0213 -0.0347  0.3321
18306TIP3    H276334   5.901   4.993   2.198 -1.9628 -2.2433 -1.9905
18307TIP3   OH276335   3.175   0.438   2.979 -0.4700 -0.3877  0.5736
18307TIP3    H176336   3.227   0.359   2.961 -0.1666 -0.3564  1.3007
18307TIP3    H276337   3.235   0.496   3.026 -1.3825 -0.6551  2.1065
18308TIP3   OH276338   0.292   1.645   1.650 -0.1257 -0.0636 -0.6472
18308TIP3    H176339   0.248   1.621   1.732 -1.6013  0.0118 -1.3848
18308TIP3    H276340   0.240   1.601   1.583  0.4710  0.6998 -1.6117
18309TIP3   OH276341   5.215   1.588  12.187  0.0578  0.1904  0.4802
18309TIP3    H176342   5.189   1.502  12.218  0.2240 -0.5460 -1.3705
18309TIP3    H276343   5.161   1.649  12.238 -0.2291 -0.9920  1.6348
18310TIP3   OH276344   1.291   4.301  15.185 -0.1755 -0.4159  0.0487
18310TIP3    H176345   1.295   4.387  15.228 -0.3978 -0.9029  1.0625
18310TIP3    H276346   1.198   4.284  15.176 -0.2565  1.6545 -4.7010
18311TIP3   OH276347   6.569   5.049   0.086  0.1716  0.4192  0.0375
18311TIP3    H176348   6.506   5.052   0.159 -0.3858 -0.0217 -0.4137
18311TIP3    H276349   6.625   4.974   0.106 -0.4142 -0.1241 -0.3245
18312TIP3   OH276350   0.678   5.351   1.177 -0.0396  0.0938 -0.1685
18312TIP3    H176351   0.672   5.386   1.266  1.3631 -1.6025  0.6214
18312TIP3    H276352   0.752   5.398   1.137  0.8572 -0.8297  0.3779
18313TIP3   OH276353   6.306   4.429  10.706  0.7362  0.5845 -0.4844
18313TIP3    H176354   6.365   4.504  10.701 -1.2306  2.1705 -0.4233
18313TIP3    H276355   6.235   4.458  10.763 -0.2376 -1.1972 -0.7737
18314TIP3   OH276356   3.727   5.989   2.927 -0.0368 -0.3116 -0.0331
18314TIP3    H176357   3.814   5.950   2.915  0.4267  0.4753  0.6841
18314TIP3    H276358   3.714   5.989   3.022 -0.3849  0.4999 -0.0765
18315TIP3   OH276359   0.298   4.377  12.827  0.0334 -0.0414 -0.2937
18315TIP3    H176360   0.244   4.362  12.904 -0.2779 -0.8642 -0.6658
18315TIP3    H276361   0.284   4.299  12.772  1.6190 -0.2903 -0.3712
18316TIP3   OH276362   1.358   5.303   0.695 -0.1489  0.1488 -0.4460
18316TIP3    H176363   1.343   5.397   0.706  0.9264  0.3666 -0.7929
18316TIP3    H276364   1.384   5.273   0.782 -1.1960  0.0311 -0.1672
18317TIP3   OH276365   1.455   6.182  14.500  0.3396 -0.1143  0.0855
18317TIP3    H176366   1.549   6.193  14.509  0.6536 -2.5049  0.0847
18317TIP3    H276367   1.429   6.245  14.433  1.8064  1.0636  0.6097
18318TIP3   OH276368   5.698   4.849  12.182 -0.7150  0.0747  0.0060
18318TIP3    H176369   5.605   4.826  12.177 -0.7598  0.6331 -1.8957
18318TIP3    H276370   5.699   4.945  12.182 -0.0788  0.0676 -1.2060
18319TIP3   OH276371   1.260   3.949  15.094  0.4092  0.2001 -0.6973
18319TIP3    H176372   1.339   4.003  15.100 -1.6716  3.2091  1.3969
18319TIP3    H276373   1.268   3.903  15.011  3.7345  1.4456 -1.1361
18320TIP3   OH276374   4.921   3.159  12.283 -0.6295 -0.0146  0.5001
18320TIP3    H176375   4.854   3.137  12.219 -0.3360  0.8599 -0.1113
18320TIP3    H276376   4.895   3.112  12.362 -0.7272 -1.4875 -0.3974
18321TIP3   OH276377   5.848   3.240  14.740 -0.6041  0.0899 -0.3206
18321TIP3    H176378   5.868   3.230  14.647 -0.5846 -0.9305 -0.2131
18321TIP3    H276379   5.870   3.155  14.779  0.5060  0.8758  0.8169
18322TIP3   OH276380   5.801   6.118   1.784  0.0488 -0.1797  0.0682
18322TIP3    H176381   5.816   6.163   1.866  0.8185 -3.0290  1.5609
18322TIP3    H276382   5.862   6.159   1.722  0.3841  1.1091  1.2263
18323TIP3   OH276383   3.466   1.442   1.515 -0.4635  0.1205 -0.2869
18323TIP3    H176384   3.380   1.450   1.474 -1.2419 -2.5151  0.7864
18323TIP3    H276385   3.455   1.377   1.583  2.1707  0.4529  0.5279
18324TIP3   OH276386   2.560   4.473  14.951  0.1492  0.2494  0.2057
18324TIP3    H176387   2.477   4.465  14.906  1.1503 -1.6123 -1.3804
18324TIP3    H276388   2.537   4.507  15.038 -2.0684  1.1959 -0.7143
18325TIP3   OH276389   5.258   5.814   0.417  0.5390 -0.1775  0.5734
18325TIP3    H176390   5.215   5.740   0.458 -0.5066  1.4529  2.5143
18325TIP3    H276391   5.186   5.873   0.392  1.3510  0.2574 -0.7776
18326TIP3   OH276392   4.430   6.588   3.609  0.5302  0.2583  0.3430
18326TIP3    H176393   4.417   6.649   3.536  0.8820 -0.0511  0.0224
18326TIP3    H276394   4.386   6.508   3.582  0.2539  0.2945  0.6755
18327TIP3   OH276395   2.853   0.930  10.640  0.1296  0.0105 -0.2646
18327TIP3    H176396   2.859   1.014  10.687  1.0842  0.3435 -0.9598
18327TIP3    H276397   2.924   0.877  10.677 -0.2519 -0.3654 -0.0723
18328TIP3   OH276398   1.767   6.060  14.636  0.0554 -0.2894  0.2809
18328TIP3    H176399   1.856   6.033  14.657  0.2897  1.8555  2.3661
18328TIP3    H276400   1.731   6.088  14.720 -1.5445  1.7273 -1.0348
18329TIP3   OH276401   3.938   0.182  14.076 -0.1419 -0.5935 -0.2082
18329TIP3    H176402   3.863   0.183  14.017 -0.6285 -1.6116  0.3874
18329TIP3    H276403   3.977   0.269  14.066 -2.4469  0.6057  0.8097
18330TIP3   OH276404   0.850   2.109  13.355  0.0198 -0.0040  0.2069
18330TIP3    H176405   0.941   2.140  13.358 -0.3544  0.9695  2.8313
18330TIP3    H276406   0.855   2.016  13.376  0.3602  0.2287  1.1991
18331TIP3   OH276407   0.118   0.554   2.815 -0.4643  0.0683 -0.3170
18331TIP3    H176408   0.157   0.469   2.794 -3.2173 -1.8303  1.8961
18331TIP3    H276409   0.136   0.567   2.908 -2.9597  0.2549  0.1888
18332TIP3   OH276410   0.988   2.915  11.990 -0.2169 -0.0340  0.0357
18332TIP3    H176411   1.042   2.861  11.932  0.3934 -0.1323  0.6870
18332TIP3    H276412   0.910   2.936  11.938  0.6245  0.4425 -1.0419
18333TIP3   OH276413   1.303   4.839   2.891 -0.4644  0.0696 -0.5305
18333TIP3    H176414   1.210   4.837   2.870 -0.5321  0.7394 -0.3230
18333TIP3    H276415   1.326   4.932   2.888  0.0218 -0.0263  0.1700
18334TIP3   OH276416   1.668   6.501  13.535  0.1600  0.0860 -0.4036
18334TIP3    H176417   1.617   6.463  13.464  0.3554  0.7444 -0.9056
18334TIP3    H276418   1.642   6.593  13.536 -0.5590 -0.1206  1.0080
18335TIP3   OH276419   0.274   0.714   4.720 -0.0087 -0.0599  0.6112
18335TIP3    H176420   0.308   0.657   4.790  0.8900  0.8200  0.9151
18335TIP3    H276421   0.282   0.802   4.756 -1.1414  0.2813  0.0432
18336TIP3   OH276422   6.755   2.945  15.832  0.1224 -0.1312  0.9286
18336TIP3    H176423   6.805   2.875  15.873 -0.3697 -0.5419  0.8369
18336TIP3    H276424   6.672   2.904  15.807  0.5964 -0.0410 -0.9383
18337TIP3   OH276425   5.679   1.640   2.727  0.4557  0.9161 -0.2600
18337TIP3    H176426   5.668   1.733   2.750 -1.4059  0.5269  0.5239
18337TIP3    H276427   5.595   1.615   2.688  1.5122 -0.0317 -1.9354
18338TIP3   OH276428   3.217   5.923   3.981 -0.0279 -0.0612  0.1287
18338TIP3    H176429   3.270   5.844   3.970 -0.3411 -0.4192  1.1905
18338TIP3    H276430   3.127   5.891   3.984 -0.0842  0.2313  1.6314
18339TIP3   OH276431   1.165   4.341   0.984 -0.4983 -0.2886 -0.0618
18339TIP3    H176432   1.209   4.338   0.899 -0.0188 -1.9864  0.2436
18339TIP3    H276433   1.129   4.254   0.996 -1.3806  0.2159  1.0660
18340TIP3   OH276434   0.214   4.782   4.256 -0.3009 -0.4104 -0.0822
18340TIP3    H176435   0.263   4.706   4.286 -0.3123 -0.2793  0.2720
18340TIP3    H276436   0.280   4.848   4.237 -0.3300 -0.2964  0.2168
18341TIP3   OH276437   6.055   6.318  11.164  0.3690 -0.3817 -0.3936
18341TIP3    H176438   5.983   6.358  11.213  1.5508  0.7251  0.4675
18341TIP3    H276439   6.053   6.226  11.190 -0.0460 -0.1312  0.5059
18342TIP3   OH276440   3.239   4.213   0.048 -0.4916 -0.8051 -0.3383
18342TIP3    H176441   3.234   4.296   0.095 -0.5415  0.2666 -2.2214
18342TIP3    H276442   3.322   4.175   0.077 -0.4071 -0.0623  0.4380
18343TIP3   OH276443   0.317   3.274   3.930 -0.1058 -0.0584  0.2251
18343TIP3    H176444   0.315   3.350   3.872 -0.5118 -0.1977  0.0557
18343TIP3    H276445   0.410   3.251   3.936  0.0869  0.8720  0.8416
18344TIP3   OH276446   4.140   3.039   4.634  0.3863  0.8402 -0.0316
18344TIP3    H176447   4.103   3.124   4.661  0.6356  0.8629  0.2486
18344TIP3    H276448   4.065   2.981   4.629  0.2676  0.9682  0.2179
18345TIP3   OH276449   6.282   0.525  15.786  0.8434  0.4988 -0.4181
18345TIP3    H176450   6.218   0.466  15.826  0.2016  1.2398 -0.3594
18345TIP3    H276451   6.311   0.582  15.857  2.1002 -0.2903 -0.2810
18346TIP3   OH276452   2.263   4.580  11.350  0.2864  0.3626  0.2002
18346TIP3    H176453   2.200   4.517  11.383  0.0706 -0.1671 -1.1686
18346TIP3    H276454   2.347   4.533  11.350  1.0376  1.5646  3.5182
18347TIP3   OH276455   5.523   2.787   3.746 -0.2728 -0.4886  0.7135
18347TIP3    H176456   5.568   2.710   3.710 -1.5950  0.2252 -2.6716
18347TIP3    H276457   5.594   2.847   3.768  0.7105 -2.0894  2.0055
18348TIP3   OH276458   5.305   0.635   1.132  0.0554 -0.0153 -0.4659
18348TIP3    H176459   5.399   0.650   1.142 -0.2235  1.1423  0.6099
18348TIP3    H276460   5.286   0.564   1.193  0.0332  0.5586  0.2026
18349TIP3   OH276461   5.506   0.526   5.390  0.5829 -0.2259  0.3897
18349TIP3    H176462   5.526   0.548   5.481 -1.7148  0.1073  0.8344
18349TIP3    H276463   5.422   0.568   5.373  0.5868 -1.0024 -1.6233
18350TIP3   OH276464   6.028   4.447   6.141  0.0047  0.2686  0.2265
18350TIP3    H176465   6.011   4.379   6.075  1.2997  0.6424 -0.5160
18350TIP3    H276466   6.068   4.399   6.214 -0.4844  0.0066  0.3253
18351TIP3   OH276467   4.452   4.697   3.783 -0.1772  0.5868  0.4695
18351TIP3    H176468   4.429   4.730   3.869  0.6402 -0.8725  1.2629
18351TIP3    H276469   4.440   4.602   3.788 -1.4211  0.6116 -1.4350
18352TIP3   OH276470   4.622   6.006   4.006 -0.6879  0.1261 -0.3196
18352TIP3    H176471   4.539   5.987   3.963 -2.3585  4.0361  0.9267
18352TIP3    H276472   4.684   6.017   3.935 -2.0209  0.4602 -1.4598
18353TIP3   OH276473   6.070   5.597   5.791  0.0589  0.1866  0.2498
18353TIP3    H176474   5.976   5.581   5.804 -0.2685  1.2247 -0.8247
18353TIP3    H276475   6.076   5.690   5.772  1.4601  0.3807  1.6292
18354TIP3   OH276476   5.889   6.753  12.249  0.0888 -0.3745  0.2618
18354TIP3    H176477   5.966   6.805  12.270  1.7925 -2.9212  0.5347
18354TIP3    H276478   5.893   6.678  12.309 -2.1805 -0.9654 -0.2394
18355TIP3   OH276479   3.191   1.886  12.598  0.4513 -0.0455 -0.0392
18355TIP3    H176480   3.177   1.978  12.572  0.4061  0.2275  0.9299
18355TIP3    H276481   3.142   1.836  12.534 -1.4303  0.7265  0.7455
18356TIP3   OH276482   1.201   4.661   5.598 -0.0070  0.0729  0.7183
18356TIP3    H176483   1.246   4.596   5.544 -1.1835  0.0518 -0.2498
18356TIP3    H276484   1.266   4.688   5.662  1.3457 -0.0568 -0.5755
18357TIP3   OH276485   1.266   6.212   3.105 -0.6671 -0.0351 -0.5254
18357TIP3    H176486   1.172   6.193   3.105 -0.7798  0.5242  0.6134
18357TIP3    H276487   1.271   6.307   3.097 -0.3237  0.4430  4.2482
18358TIP3   OH276488   6.110   0.914   0.258  0.3402  0.1209 -0.5080
18358TIP3    H176489   6.187   0.898   0.203  0.0698 -0.3372 -0.7551
18358TIP3    H276490   6.145   0.922   0.346  0.3501 -3.7388 -0.0455
18359TIP3   OH276491   5.862   2.015   3.141 -0.2035  0.4074  0.3817
18359TIP3    H176492   5.794   2.018   3.208 -0.5006  0.2144  0.0921
18359TIP3    H276493   5.842   1.937   3.090  1.2533 -0.6392  1.3568
18360TIP3   OH276494   1.918   0.290  13.089 -0.3371  0.2245 -0.2484
18360TIP3    H176495   1.877   0.376  13.082 -0.2570  0.1379 -1.8851
18360TIP3    H276496   1.911   0.252  13.002 -3.0694 -2.6871  1.1483
18361TIP3   OH276497   3.466   0.371  15.095 -0.4678  0.1567  0.0881
18361TIP3    H176498   3.419   0.332  15.022  1.8314  0.2601 -1.4863
18361TIP3    H276499   3.486   0.460  15.067  2.0770 -0.3937  0.0145
18362TIP3   OH276500   3.776   2.293  16.508 -0.4572 -0.3365  0.3859
18362TIP3    H176501   3.853   2.310  16.454 -1.0073 -1.6258 -0.8170
18362TIP3    H276502   3.703   2.297  16.447 -1.1824 -0.8225  1.2181
18363TIP3   OH276503   3.811   5.702  11.256  0.0550 -0.0505  0.2351
18363TIP3    H176504   3.786   5.665  11.171  0.3875 -1.7378  0.8520
18363TIP3    H276505   3.806   5.797  11.243  1.2320 -0.2520 -2.0084
18364TIP3   OH276506   6.262   5.757  16.207 -0.6545 -0.1520  0.2105
18364TIP3    H176507   6.255   5.731  16.299 -0.5129 -1.2080 -0.0750
18364TIP3    H276508   6.339   5.814  16.204  0.2306 -1.3145  0.4898
18365TIP3   OH276509   4.018   1.954   2.221 -0.1972  0.6190 -0.5495
18365TIP3    H176510   3.981   1.921   2.302 -0.3121  1.2067 -0.3623
18365TIP3    H276511   4.113   1.941   2.231 -0.3214 -0.7107 -0.9541
18366TIP3   OH276512   1.364   5.450   1.326 -0.5616 -0.0699 -0.4560
18366TIP3    H176513   1.422   5.490   1.261 -0.4294  0.4614 -0.0205
18366TIP3    H276514   1.420   5.436   1.402 -0.8290 -0.2463 -0.2940
18367TIP3   OH276515   0.969   4.505  15.696  0.1673 -0.2945  0.1662
18367TIP3    H176516   0.990   4.572  15.762  2.0020 -0.8015  0.1022
18367TIP3    H276517   1.042   4.507  15.635  1.2828 -3.7390  1.2644
18368TIP3   OH276518   2.423   1.141  12.192  0.0480 -0.0019  0.1669
18368TIP3    H176519   2.389   1.180  12.111 -0.6020  0.2433  0.5540
18368TIP3    H276520   2.384   1.193  12.262 -0.4269 -1.0384  0.6850
18369TIP3   OH276521   3.552   0.645  14.250 -0.4795 -0.3358  0.2897
18369TIP3    H176522   3.564   0.594  14.170 -1.5678 -1.8259  1.0484
18369TIP3    H276523   3.602   0.599  14.317 -1.1054 -0.1684  0.8869
18370TIP3   OH276524   4.591   1.859   1.370 -0.3411 -0.5290 -0.5468
18370TIP3    H176525   4.619   1.941   1.409  0.8861 -0.7256 -1.0074
18370TIP3    H276526   4.559   1.806   1.443  0.5932 -0.3479 -0.0052
18371TIP3   OH276527   1.300   3.416   0.909  0.3749  0.2448  0.1139
18371TIP3    H176528   1.295   3.472   0.987  0.0999  1.4167 -0.7290
18371TIP3    H276529   1.379   3.364   0.922  0.6428  0.8397  0.9099
18372TIP3   OH276530   6.769   5.157  16.710 -0.0203  0.0838 -0.3655
18372TIP3    H176531   6.760   5.148  16.616 -1.3068  0.8532 -0.3240
18372TIP3    H276532   6.697   5.214  16.736  1.1972  1.0999  0.8742
18373TIP3   OH276533   3.498   5.548  10.821 -0.2232  0.3710 -0.4493
18373TIP3    H176534   3.548   5.468  10.835  0.3328  1.0419  1.5482
18373TIP3    H276535   3.544   5.593  10.750  2.0253  0.9580  1.3301
18374TIP3   OH276536   3.781   1.958  16.154  0.6593 -0.5249  0.0083
18374TIP3    H176537   3.717   1.925  16.218  1.0123 -0.9197  0.1615
18374TIP3    H276538   3.775   2.053  16.161  0.2533 -0.5621  0.1884
18375TIP3   OH276539   4.631   1.948  12.563 -0.4932 -0.3406  0.1448
18375TIP3    H176540   4.720   1.961  12.529 -0.1710 -1.2528  0.6135
18375TIP3    H276541   4.581   2.020  12.527  0.7489  0.9614  0.9519
18376TIP3   OH276542   1.074   1.557   3.487 -0.2923 -0.0775  0.2491
18376TIP3    H176543   1.039   1.483   3.535 -1.3714  0.2496 -0.0176
18376TIP3    H276544   1.076   1.528   3.396 -0.3926  0.1056  0.1890
18377TIP3   OH276545   2.007   2.649   5.883 -0.5283  0.0775  0.9206
18377TIP3    H176546   2.003   2.616   5.973 -1.7267  0.3469  0.9763
18377TIP3    H276547   1.930   2.611   5.841 -1.3568  1.9592  0.7040
18378TIP3   OH276548   2.693   3.442   3.019 -0.6098  0.1646 -0.8867
18378TIP3    H176549   2.609   3.472   2.984 -1.2060 -0.0302  0.3616
18378TIP3    H276550   2.747   3.428   2.941 -1.0933  2.1274 -1.6177
18379TIP3   OH276551   5.961   5.657   1.334  0.6623  0.1937 -0.5278
18379TIP3    H176552   5.870   5.629   1.343  1.1455 -1.0291  0.7264
18379TIP3    H276553   5.986   5.631   1.246 -0.5347  1.5553 -1.2852
18380TIP3   OH276554   4.258   2.146  15.795 -0.0231  0.0140 -0.3246
18380TIP3    H176555   4.170   2.120  15.767  0.4418 -1.7237 -0.2307
18380TIP3    H276556   4.298   2.185  15.717 -0.7511  0.5150 -0.4526
18381TIP3   OH276557   3.689   0.007   1.452  0.0820  0.6125  0.2956
18381TIP3    H176558   3.672   0.002   1.358 -0.7310 -0.6373  0.4966
18381TIP3    H276559   3.604  -0.006   1.493  0.7210 -0.7925  1.2283
18382TIP3   OH276560   0.413   5.901   4.862 -0.3155 -0.1676 -0.6777
18382TIP3    H176561   0.439   5.955   4.937 -0.3397 -0.2413 -0.6157
18382TIP3    H276562   0.318   5.901   4.865 -0.3044 -1.6964  0.4028
18383TIP3   OH276563   2.172   3.487   2.586  0.3801 -0.9775 -0.1777
18383TIP3    H176564   2.092   3.487   2.533  0.4245 -1.2355 -0.2452
18383TIP3    H276565   2.224   3.416   2.551 -0.2064 -2.0722  1.1306
18384TIP3   OH276566   5.656   4.046   5.263 -0.2216 -0.2670  0.4743
18384TIP3    H176567   5.659   3.961   5.307 -0.0316 -0.5047  0.0058
18384TIP3    H276568   5.724   4.098   5.307  0.2629 -0.6435  0.1759
18385TIP3   OH276569   0.848   0.284   5.408  0.3437 -0.1019  0.0936
18385TIP3    H176570   0.936   0.270   5.443  0.2679 -0.8466 -0.0121
18385TIP3    H276571   0.848   0.239   5.323 -0.4584 -0.9826  0.5542
18386TIP3   OH276572   2.699   0.956   4.656 -0.1465  0.0605 -0.1330
18386TIP3    H176573   2.702   0.942   4.751  0.1631 -0.6670 -0.2461
18386TIP3    H276574   2.790   0.975   4.632 -0.1057 -0.4474 -0.3846
18387TIP3   OH276575   4.170   5.739   5.114  0.3126 -0.0744 -0.1611
18387TIP3    H176576   4.259   5.769   5.099  0.5212 -0.7532 -0.3055
18387TIP3    H276577   4.127   5.812   5.160  0.3642  1.0522 -1.8539
18388TIP3   OH276578   5.941   0.395  10.887 -0.0312  0.1914  0.1333
18388TIP3    H176579   6.014   0.455  10.873  0.2070 -0.0211  0.4776
18388TIP3    H276580   5.963   0.317  10.836  0.2904 -0.1284  0.7602
18389TIP3   OH276581   0.353   5.891  15.133 -0.8750  0.0165 -0.2454
18389TIP3    H176582   0.414   5.817  15.137 -1.0829 -0.2697 -2.0713
18389TIP3    H276583   0.398   5.962  15.177  0.1220 -0.6476 -0.1836
18390TIP3   OH276584   3.708   0.179  13.888  0.7844  0.8167 -0.0948
18390TIP3    H176585   3.655   0.195  13.966 -0.1291  0.5015 -0.6375
18390TIP3    H276586   3.665   0.230  13.819  1.5652  1.0674 -0.3976
18391TIP3   OH276587   4.799   2.735   4.183 -0.3783 -0.2182 -0.3140
18391TIP3    H176588   4.744   2.784   4.244  1.2917  1.0577  0.2109
18391TIP3    H276589   4.885   2.778   4.188  0.5699 -1.9154 -1.3830
18392TIP3   OH276590   2.407   4.742  15.876 -0.1735 -0.6893 -0.0835
18392TIP3    H176591   2.455   4.825  15.882  1.0347 -1.3769 -0.1433
18392TIP3    H276592   2.368   4.744  15.788  0.0234 -0.2754 -0.1647
18393TIP3   OH276593   3.834   0.605   1.630  0.4002 -1.0552 -0.5582
18393TIP3    H176594   3.845   0.544   1.557 -1.4577 -3.9044  1.3976
18393TIP3    H276595   3.815   0.548   1.705 -0.3227  1.9113  1.5820
18394TIP3   OH276596   1.463   4.014  14.457  0.1559  0.2124 -0.3304
18394TIP3    H176597   1.471   3.922  14.432 -0.3540  0.0217  0.2153
18394TIP3    H276598   1.423   4.056  14.381  2.1023  0.3351 -1.3190
18395TIP3   OH276599   3.032   3.675  15.248  0.2982 -0.8810 -0.7296
18395TIP3    H176600   3.002   3.662  15.338 -1.2478  0.4961 -1.0285
18395TIP3    H276601   3.035   3.587  15.211  0.1421 -1.3771  0.4031
18396TIP3   OH276602   3.630   6.337   0.401 -0.3396 -0.2990  0.0342
18396TIP3    H176603   3.656   6.255   0.443  0.3695  0.3341  0.8372
18396TIP3    H276604   3.534   6.333   0.397 -0.2460 -1.8774 -1.3881
18397TIP3   OH276605   2.623   2.114  13.151 -0.0211 -0.1964 -0.2054
18397TIP3    H176606   2.551   2.139  13.208 -1.2495 -2.7582 -0.5522
18397TIP3    H276607   2.678   2.192  13.145 -2.0938  1.3940  1.0806
18398TIP3   OH276608   3.499   2.004   1.238 -0.0479 -0.1544  0.2852
18398TIP3    H176609   3.523   1.913   1.251  0.0074  0.1030  2.1396
18398TIP3    H276610   3.440   2.024   1.310  1.5661  1.8418  1.1041
18399TIP3   OH276611   4.063   3.715   0.703  0.5187 -0.2985 -0.3595
18399TIP3    H176612   4.064   3.700   0.798 -0.4387 -1.5153 -0.5321
18399TIP3    H276613   4.090   3.632   0.665 -1.5424 -0.6159 -1.2125
18400TIP3   OH276614   4.627   0.940   0.813 -0.7315 -0.2445 -0.1844
18400TIP3    H176615   4.655   0.865   0.760  0.9354  0.9893 -1.0840
18400TIP3    H276616   4.531   0.932   0.816 -0.6849 -1.5779 -1.5322
18401TIP3   OH276617   5.050   3.688   3.299  0.3731  0.2134  0.8158
18401TIP3    H176618   5.000   3.613   3.330  1.7320 -0.8351  0.5246
18401TIP3    H276619   5.000   3.721   3.225  0.0886 -0.8001  0.5494
18402TIP3   OH276620   5.059   1.578   3.079 -0.2398  0.0049 -0.2372
18402TIP3    H176621   5.083   1.670   3.067  1.3977 -0.2331  1.1006
18402TIP3    H276622   5.016   1.575   3.164 -1.8922 -0.1995 -1.0475
18403TIP3   OH276623   3.623   5.568  16.947  0.6496 -0.1197  0.3560
18403TIP3    H176624   3.677   5.493  16.973 -1.1633 -0.8925  2.0940
18403TIP3    H276625   3.566   5.534  16.878  0.9015  0.0891  0.0475
18404TIP3   OH276626   3.497   2.891   0.487  0.0774  0.2112  0.1933
18404TIP3    H176627   3.442   2.817   0.459  0.6056  0.1299 -0.6434
18404TIP3    H276628   3.572   2.889   0.427 -0.7730  2.5246 -0.9795
18405TIP3   OH276629   2.873   3.225  16.186 -0.3545  0.3148  0.0592
18405TIP3    H176630   2.941   3.238  16.252 -0.5394  1.5938  0.0102
18405TIP3    H276631   2.794   3.203  16.235 -1.0110  3.3275  0.4327
18406TIP3   OH276632   5.283   5.519   4.044 -0.6603  0.2178  0.0718
18406TIP3    H176633   5.200   5.486   4.078 -0.8784  0.1000 -0.5791
18406TIP3    H276634   5.325   5.443   4.005  0.0092  0.1551  0.8961
18407TIP3   OH276635   4.345   5.517  11.174  0.4305  0.2062  0.3840
18407TIP3    H176636   4.262   5.502  11.130 -0.0470  0.1191  1.2981
18407TIP3    H276637   4.377   5.429  11.196 -0.1555  0.3160  1.7012
18408TIP3   OH276638   4.423   4.270  13.661  0.5107 -0.6484 -0.1976
18408TIP3    H176639   4.361   4.225  13.603  0.2772  1.1726 -1.4096
18408TIP3    H276640   4.504   4.219  13.653 -0.3447 -2.1004  0.1502
18409TIP3   OH276641   3.590   1.841   0.434  0.2343  0.2745 -0.5131
18409TIP3    H176642   3.624   1.920   0.392  1.0539  0.0179 -0.3290
18409TIP3    H276643   3.663   1.780   0.435  0.0355  0.0414  0.7002
18410TIP3   OH276644   1.758   4.449   2.196 -0.0954  0.1556 -0.2922
18410TIP3    H176645   1.685   4.470   2.138  0.9476 -1.1689 -2.1435
18410TIP3    H276646   1.748   4.356   2.214  0.3826  0.2646  0.5644
18411TIP3   OH276647   2.465   0.493  15.660 -0.0158  0.0561  0.0537
18411TIP3    H176648   2.516   0.547  15.600  0.0383 -0.9884 -0.8458
18411TIP3    H276649   2.528   0.466  15.727  0.0019  0.9268  0.3981
18412TIP3   OH276650   2.931   1.184  17.051  0.1490 -0.4996  0.1492
18412TIP3    H176651   2.876   1.222  17.119  0.8630  0.4294  0.2052
18412TIP3    H276652   3.010   1.237  17.051  0.0924 -0.3844 -1.5106
18413TIP3   OH276653   3.931   6.392  15.161  0.2212 -0.2473 -0.0295
18413TIP3    H176654   4.000   6.343  15.206  1.6946  1.2364 -0.6003
18413TIP3    H276655   3.968   6.410  15.074 -0.7363  0.8968 -0.2045
18414TIP3   OH276656   2.266   5.186   0.953  0.4273 -0.3745  0.0409
18414TIP3    H176657   2.310   5.260   0.911  1.0657 -0.1477  1.1022
18414TIP3    H276658   2.318   5.168   1.031  0.1217 -1.7788 -0.0758
18415TIP3   OH276659   3.316   0.625  10.908  0.3739  1.0226 -0.5914
18415TIP3    H176660   3.328   0.538  10.869 -0.0824 -0.7410  2.9500
18415TIP3    H276661   3.392   0.675  10.880  0.3416 -0.3224 -3.1896
18416TIP3   OH276662   1.733   5.378  16.459  0.5146 -0.3596  0.0144
18416TIP3    H176663   1.737   5.394  16.364 -0.9988 -1.9416 -0.3405
18416TIP3    H276664   1.761   5.287  16.469 -3.6372 -1.6666  0.5822
18417TIP3   OH276665   4.642   5.432  11.888  0.3830  0.1294  0.5075
18417TIP3    H176666   4.722   5.383  11.907  2.0828  1.9118 -1.7056
18417TIP3    H276667   4.608   5.458  11.974  2.5720 -0.0799  1.4509
18418TIP3   OH276668   4.321   0.049  17.102 -0.0360 -0.2120  0.5168
18418TIP3    H176669   4.314   0.002  17.019 -1.0253 -2.8967  2.0391
18418TIP3    H276670   4.415   0.055  17.119  0.1279 -1.2006  0.0189
18419TIP3   OH276671   1.625   5.504  11.072  0.8425 -0.3163 -0.1734
18419TIP3    H176672   1.535   5.501  11.042  0.7247  2.1947 -0.2389
18419TIP3    H276673   1.674   5.537  10.996  1.6703 -0.8071  0.1436
18420TIP3   OH276674   2.681   2.335   4.492  0.5086  0.3126  0.4654
18420TIP3    H176675   2.769   2.353   4.459 -0.6891  0.5791 -2.7589
18420TIP3    H276676   2.635   2.420   4.488 -0.2751 -0.0698  0.9839
18421TIP3   OH276677   5.098   5.278   2.413  0.2952 -0.6746 -0.0168
18421TIP3    H176678   5.130   5.245   2.497 -0.6312  0.3852  0.7666
18421TIP3    H276679   5.176   5.280   2.358  1.2782  0.3271  1.3644
18422TIP3   OH276680   1.047   0.707   5.683 -0.3797 -0.8772 -0.5392
18422TIP3    H176681   1.095   0.779   5.724  1.0943 -0.2442 -3.2346
18422TIP3    H276682   0.955   0.728   5.699  0.0731  0.8365 -0.0074
18423TIP3   OH276683   1.933   6.684   6.475  0.3370  0.0378  0.6221
18423TIP3    H176684   2.002   6.737   6.516  0.2796  0.3352  0.3349
18423TIP3    H276685   1.892   6.743   6.412  0.5965 -0.4949 -0.0558
18424TIP3   OH276686   2.232   3.784   0.012 -0.3632 -0.0719 -0.2029
18424TIP3    H176687   2.158   3.823   0.058 -1.5860 -1.1607 -1.1787
18424TIP3    H276688   2.239   3.834  -0.070  0.4998  0.5398  0.2335
18425TIP3   OH276689   1.908   3.244  11.199  0.3269 -0.2162 -0.1921
18425TIP3    H176690   1.829   3.249  11.254  0.7742 -0.9043  0.5378
18425TIP3    H276691   1.904   3.156  11.161  0.9797 -0.4306  0.2255
18426TIP3   OH276692   6.491   1.722  17.103  0.2922  0.2191  0.6053
18426TIP3    H176693   6.532   1.640  17.129 -0.6338 -0.1923  0.7895
18426TIP3    H276694   6.469   1.709  17.011  0.9731  0.6098  0.3849
18427TIP3   OH276695   0.882   3.621   4.107 -0.1236  0.1512  0.7095
18427TIP3    H176696   0.975   3.599   4.102 -0.5930 -1.7411 -0.2841
18427TIP3    H276697   0.839   3.537   4.121 -1.8056  0.8049 -0.3823
18428TIP3   OH276698   3.321   1.802   3.208 -0.0138 -0.0677 -0.1057
18428TIP3    H176699   3.393   1.756   3.166  0.7554  0.6678  0.3833
18428TIP3    H276700   3.362   1.849   3.281 -0.7270  1.5598 -0.7242
18429TIP3   OH276701   1.336   3.505   5.806  1.1316 -0.3521 -0.2698
18429TIP3    H176702   1.276   3.523   5.733 -0.8199 -0.7531  1.1934
18429TIP3    H276703   1.350   3.590   5.847 -0.8517 -0.6968  1.1809
18430TIP3   OH276704   2.584   0.159   5.217  0.0117 -0.2813  0.1943
18430TIP3    H176705   2.555   0.075   5.252  0.7102  0.3296  2.3330
18430TIP3    H276706   2.678   0.163   5.238  0.2594  0.4720 -1.0112
18431TIP3   OH276707   3.240   1.327  12.248  0.0518  0.6456  0.0560
18431TIP3    H176708   3.191   1.374  12.316  1.0444  1.2160  0.3910
18431TIP3    H276709   3.212   1.368  12.166 -0.3759  0.6524  0.2017
18432TIP3   OH276710   5.216   4.430   0.645  0.4194 -0.6295 -0.5072
18432TIP3    H176711   5.277   4.408   0.574  0.4987 -0.7182 -0.4108
18432TIP3    H276712   5.239   4.370   0.716  0.3212 -0.5567 -0.4149
18433TIP3   OH276713   1.570   0.755  12.884 -0.0021  0.4388 -0.1348
18433TIP3    H176714   1.587   0.663  12.863  2.1628  0.0633  2.9120
18433TIP3    H276715   1.649   0.801  12.856  0.0233  0.9481  0.7552
18434TIP3   OH276716   6.569   2.935  13.571  0.4007 -0.0136 -0.1585
18434TIP3    H176717   6.556   2.894  13.656 -1.6375  0.2922 -0.3144
18434TIP3    H276718   6.537   2.871  13.508  0.5359  0.3698 -0.6195
18435TIP3   OH276719   1.840   5.369  14.060 -0.1633  0.0571  0.5195
18435TIP3    H176720   1.766   5.430  14.061 -1.0028 -0.9603  2.0242
18435TIP3    H276721   1.818   5.304  14.126  0.7088 -1.8848 -1.0573
18436TIP3   OH276722   5.928   6.716  11.961  0.2653 -0.3889 -0.0386
18436TIP3    H176723   6.014   6.700  11.923 -0.5068 -0.3088 -1.8670
18436TIP3    H276724   5.946   6.742  12.051  2.0574 -2.0151  0.1023
18437TIP3   OH276725   3.684   0.840   5.190  0.3894  0.6026 -0.0446
18437TIP3    H176726   3.720   0.858   5.277  1.2287  1.5400 -0.5755
18437TIP3    H276727   3.730   0.900   5.132  0.5036 -0.6546 -1.2891
18438TIP3   OH276728   1.019   4.483   4.325 -0.4370  0.2680 -0.1199
18438TIP3    H176729   1.100   4.517   4.287  0.6726 -0.6282  1.4020
18438TIP3    H276730   1.046   4.444   4.407 -2.2877 -0.8937 -0.0455
18439TIP3   OH276731   4.367   0.465  15.871  0.0491  0.1004 -0.0118
18439TIP3    H176732   4.373   0.538  15.809 -0.0456 -1.4312 -1.8915
18439TIP3    H276733   4.380   0.505  15.957 -1.0269  2.4741 -0.9044
18440TIP3   OH276734   4.182   2.398  16.587  0.3337 -0.2012 -0.1290
18440TIP3    H176735   4.264   2.445  16.574  0.4234 -0.7097 -1.5655
18440TIP3    H276736   4.202   2.308  16.562 -0.3265 -0.5969  0.7513
18441TIP3   OH276737   2.632   6.646  15.077 -0.1126 -0.3485  0.0354
18441TIP3    H176738   2.643   6.674  14.986 -1.9405 -0.3298 -0.2079
18441TIP3    H276739   2.643   6.551  15.074  1.9610 -0.1217  0.1613
18442TIP3   OH276740   2.407   2.203   2.274 -0.0914 -0.1803 -0.9254
18442TIP3    H176741   2.330   2.253   2.298  0.3154 -0.1531  0.3753
18442TIP3    H276742   2.388   2.114   2.303  0.1207 -0.2934 -1.1295
18443TIP3   OH276743   2.872   2.693   5.280  1.2165 -0.5770  0.7425
18443TIP3    H176744   2.848   2.601   5.289 -0.7961 -0.4936 -2.8834
18443TIP3    H276745   2.907   2.700   5.191  0.6898  2.2882  0.7078
18444TIP3   OH276746   4.114   2.243  12.861 -0.3719  0.0730  0.3966
18444TIP3    H176747   4.083   2.333  12.872  0.9730  0.5002  0.8140
18444TIP3    H276748   4.053   2.191  12.913 -0.8604  0.7979  0.5647
18445TIP3   OH276749   6.601   2.196   1.490  0.3241  0.0802  0.1300
18445TIP3    H176750   6.607   2.274   1.434  1.3039 -0.8716 -1.1240
18445TIP3    H276751   6.514   2.203   1.531 -0.4319  0.7956 -1.5343
18446TIP3   OH276752   2.640   5.918   4.411  0.4825  0.2453  0.1606
18446TIP3    H176753   2.582   5.944   4.483 -2.5128 -1.5592 -1.5336
18446TIP3    H276754   2.660   5.826   4.428 -2.1899 -0.8874 -2.5284
18447TIP3   OH276755   6.175   6.452   1.589  0.0518 -0.7306  0.0394
18447TIP3    H176756   6.133   6.479   1.670  0.6052 -0.4949  0.2532
18447TIP3    H276757   6.213   6.533   1.554 -0.1004 -0.8483 -0.4027
18448TIP3   OH276758   1.604   1.912   2.276 -0.0125  0.5061 -0.4863
18448TIP3    H176759   1.623   1.995   2.232  0.3972 -1.0405 -3.3570
18448TIP3    H276760   1.516   1.923   2.310 -0.0469  2.0503 -1.0185
18449TIP3   OH276761   4.927   6.132   1.666 -0.4879  0.3311  0.0400
18449TIP3    H176762   4.836   6.100   1.666 -0.6282  0.7263  0.2527
18449TIP3    H276763   4.919   6.226   1.657 -0.1900  0.6014  2.2226
18450TIP3   OH276764   4.584   1.680  16.474  0.3750 -0.6709  0.3205
18450TIP3    H176765   4.638   1.757  16.455  0.8594 -0.5629  2.0654
18450TIP3    H276766   4.512   1.714  16.527  0.7272 -1.4642  1.3084
18451TIP3   OH276767   2.435   0.522   1.243  0.6224  0.0057  0.0407
18451TIP3    H176768   2.525   0.503   1.216 -0.1190 -1.7445 -1.3261
18451TIP3    H276769   2.388   0.536   1.161 -1.1226 -2.7694  0.4635
18452TIP3   OH276770   6.324   0.624   0.890  0.0051  0.0575 -0.0378
18452TIP3    H176771   6.295   0.704   0.934  0.9753  0.7968 -0.7427
18452TIP3    H276772   6.357   0.653   0.805  1.8515 -0.8861  0.3318
18453TIP3   OH276773   5.202   2.883  16.141 -0.3484  0.0325 -0.4909
18453TIP3    H176774   5.202   2.805  16.084  0.4312 -1.9633  2.1477
18453TIP3    H276775   5.288   2.923  16.125 -0.5826  0.1295 -1.5591
18454TIP3   OH276776   2.370   6.625  16.882 -0.1239  0.3061 -0.1566
18454TIP3    H176777   2.356   6.694  16.946  1.3841 -0.9611  1.5642
18454TIP3    H276778   2.282   6.594  16.861 -0.5130 -1.1578  3.4029
18455TIP3   OH276779   5.196   1.311  12.236  0.1683  0.3011  0.1594
18455TIP3    H176780   5.160   1.224  12.254 -0.8742  0.9954  1.4440
18455TIP3    H276781   5.257   1.296  12.163  1.5310 -1.8741  1.6828
18456TIP3   OH276782   5.085   0.958  16.856  0.5000  0.1339 -0.1090
18456TIP3    H176783   5.104   0.926  16.768  1.8008 -0.4512  0.3647
18456TIP3    H276784   5.127   1.043  16.861  0.3273  0.2183 -0.0900
18457TIP3   OH276785   1.924   5.444   0.764 -0.5938 -0.1216  0.0418
18457TIP3    H176786   1.948   5.351   0.764 -0.2602 -0.0411 -1.3723
18457TIP3    H276787   1.965   5.479   0.844  2.7723 -0.2985 -1.5258
18458TIP3   OH276788   3.924   3.401  17.080 -0.7514 -0.3103  0.4117
18458TIP3    H176789   3.983   3.453  17.134  1.6284 -1.0029 -1.4584
18458TIP3    H276790   3.931   3.312  17.117 -0.6132 -0.3974  0.1741
18459TIP3   OH276791   3.880   4.430  16.130  0.5188  0.1479 -0.3493
18459TIP3    H176792   3.955   4.446  16.187  0.8162  2.0580 -1.2284
18459TIP3    H276793   3.840   4.516  16.119 -2.3882 -0.9735  0.8627
18460TIP3   OH276794   1.479   1.024   4.132 -0.4500  0.2805 -0.0338
18460TIP3    H176795   1.501   1.085   4.061  0.0595 -1.7628 -1.6899
18460TIP3    H276796   1.558   1.022   4.187  1.1500 -1.9551 -2.2702
18461TIP3   OH276797   5.016   6.494   0.206  0.1788 -0.3061  0.6971
18461TIP3    H176798   5.107   6.517   0.187  0.1828  0.8634  2.0346
18461TIP3    H276799   5.018   6.454   0.293 -0.2936 -2.4468 -0.2395
18462TIP3   OH276800   2.225   0.315   1.291  0.0168  0.2985 -0.5117
18462TIP3    H176801   2.282   0.388   1.317 -0.2292  0.6574 -0.9771
18462TIP3    H276802   2.195   0.277   1.373  2.4812 -1.1327 -0.1879
18463TIP3   OH276803   4.906   2.045  15.214  0.2693  0.4329 -0.2956
18463TIP3    H176804   4.978   2.000  15.260  0.5064  0.7257 -0.3793
18463TIP3    H276805   4.848   1.974  15.186  0.3869  0.2144  0.0100
18464TIP3   OH276806   3.733   1.544   1.637 -0.1914  0.4008 -0.1570
18464TIP3    H176807   3.728   1.540   1.733 -0.7472 -3.9066 -0.2829
18464TIP3    H276808   3.644   1.530   1.607  0.4349 -1.2797 -1.3220
18465TIP3   OH276809   2.933   5.279   0.464  0.5770 -0.5114  0.2543
18465TIP3    H176810   2.954   5.331   0.386 -1.3691 -2.3554 -1.5758
18465TIP3    H276811   2.864   5.329   0.508 -2.0113 -1.9044 -2.0406
18466TIP3   OH276812   1.714   5.493   4.243  0.1211  0.2633 -0.0516
18466TIP3    H176813   1.690   5.496   4.335 -0.0908  3.1684 -0.1690
18466TIP3    H276814   1.802   5.531   4.240 -0.0391  0.5665 -1.0859
18467TIP3   OH276815   4.118   5.841   0.511 -0.6191 -0.2133 -0.5317
18467TIP3    H176816   4.186   5.866   0.449  0.4252 -1.1561  0.2332
18467TIP3    H276817   4.119   5.910   0.577  1.3653 -1.5374  0.8660
18468TIP3   OH276818   5.583   0.398  11.264  0.6394  0.7111  0.4886
18468TIP3    H176819   5.642   0.349  11.322  0.5522  0.6749  0.5460
18468TIP3    H276820   5.642   0.443  11.203  0.6972  0.0391  0.0450
18469TIP3   OH276821   4.895   6.610  11.622  0.2342  0.4033  0.2210
18469TIP3    H176822   4.975   6.568  11.591  1.5316  0.0686  3.7586
18469TIP3    H276823   4.831   6.539  11.627 -0.3363  0.6602 -2.5410
18470TIP3   OH276824   2.917   3.398  16.778 -0.3994 -0.8048 -0.6638
18470TIP3    H176825   3.004   3.386  16.815  0.1153  1.4411 -1.0696
18470TIP3    H276826   2.878   3.310  16.779  2.2069 -2.0319 -1.3636
18471TIP3   OH276827   5.764   2.231  13.020 -0.2705 -0.0314 -0.5297
18471TIP3    H176828   5.831   2.288  12.983  0.1473 -1.5506 -2.1643
18471TIP3    H276829   5.780   2.233  13.115  1.5732  0.2643 -0.8304
18472TIP3   OH276830   1.529   3.829   2.200  0.0611 -0.7145  0.7542
18472TIP3    H176831   1.564   3.877   2.125 -2.0276 -0.8314 -0.3459
18472TIP3    H276832   1.474   3.893   2.246 -1.4440 -1.5732  0.1914
18473TIP3   OH276833   1.598   4.407  12.256  0.1125  0.2539 -0.2643
18473TIP3    H176834   1.530   4.410  12.324  1.1457  0.9035  0.7520
18473TIP3    H276835   1.553   4.437  12.177 -1.0799 -0.4153  0.1412
18474TIP3   OH276836   0.873   2.882  14.059 -0.3166 -0.6611 -0.1663
18474TIP3    H176837   0.914   2.847  14.138 -1.1682 -0.5548  0.3329
18474TIP3    H276838   0.887   2.976  14.064  0.2290 -0.7207 -0.4957
18475TIP3   OH276839   3.341   2.734  15.610  0.4796 -0.7902 -0.1909
18475TIP3    H176840   3.296   2.711  15.691 -0.2669 -0.7438 -0.5900
18475TIP3    H276841   3.355   2.829  15.618  0.4054 -0.7845 -0.1190
18476TIP3   OH276842   4.289   4.659  12.376 -0.2377 -0.8395  0.8669
18476TIP3    H176843   4.349   4.728  12.346 -1.7599 -0.6225 -1.8463
18476TIP3    H276844   4.227   4.705  12.433 -1.4879  0.1581 -1.2450
18477TIP3   OH276845   3.273   4.297  14.108  0.1574 -0.2774  0.0467
18477TIP3    H176846   3.260   4.378  14.059  0.4486  0.5309  1.3016
18477TIP3    H276847   3.195   4.289  14.163 -0.5284 -1.5796 -1.0688
18478TIP3   OH276848   2.151   2.910  15.201  0.3979 -0.2749  0.1677
18478TIP3    H176849   2.194   2.957  15.130  0.0086  0.3219  0.3289
18478TIP3    H276850   2.094   2.847  15.156 -0.5841  0.7601 -0.0630
18479TIP3   OH276851   5.848   2.643  17.069  0.1457  0.2793  0.2770
18479TIP3    H176852   5.852   2.696  16.990 -0.4293 -1.6405 -1.0958
18479TIP3    H276853   5.865   2.704  17.141  3.4385  1.6069 -1.4976
18480TIP3   OH276854   1.335   5.236  12.093 -0.0911  0.0350 -0.2045
18480TIP3    H176855   1.354   5.142  12.101 -1.3034 -0.0550  2.4340
18480TIP3    H276856   1.404   5.279  12.145 -0.1447  0.5418 -0.5456
18481TIP3   OH276857   4.329   0.092  16.812 -0.2774 -0.4216  0.5193
18481TIP3    H176858   4.278   0.059  16.738 -1.6997  0.6213  1.0271
18481TIP3    H276859   4.365   0.175  16.780  0.9627 -1.0635  0.2269
18482TIP3   OH276860   0.998   4.627  13.755  0.0178 -0.0645  0.3700
18482TIP3    H176861   1.030   4.547  13.796 -1.6533 -1.7029 -1.4619
18482TIP3    H276862   1.071   4.689  13.763  1.2074 -1.6433  2.0674
18483TIP3   OH276863   0.717   5.907  15.064 -0.7611 -0.0246 -0.0597
18483TIP3    H176864   0.653   5.956  15.116 -1.5232 -2.8455  1.8150
18483TIP3    H276865   0.796   5.905  15.118 -0.7141 -0.7664 -0.1461
18484TIP3   OH276866   1.352   3.371  16.253  0.6116  0.1330 -0.1827
18484TIP3    H176867   1.387   3.434  16.316 -0.0416  1.5057 -1.1703
18484TIP3    H276868   1.409   3.294  16.262  1.7232  1.0407  0.6953
18485TIP3   OH276869   6.081   4.278  15.783  0.4095  0.2668  0.1313
18485TIP3    H176870   6.066   4.371  15.800 -1.9205  0.0679 -0.5752
18485TIP3    H276871   6.153   4.276  15.720  0.7845  1.5725  0.5209
18486TIP3   OH276872   2.600   4.456  13.159  0.3064 -0.1532 -0.5498
18486TIP3    H176873   2.614   4.480  13.251 -0.7806  0.6532 -0.5874
18486TIP3    H276874   2.607   4.539  13.111  0.1492 -0.4584 -1.1083
18487TIP3   OH276875   2.297   5.740  12.521  0.1615  0.2458  0.1357
18487TIP3    H176876   2.305   5.835  12.532 -0.0516  0.2296  0.4231
18487TIP3    H276877   2.209   5.720  12.550  0.3824 -0.1143  0.5471
18488TIP3   OH276878   3.220   1.490  16.157 -0.3335  0.2305 -0.3216
18488TIP3    H176879   3.284   1.446  16.213  0.0237  1.3919  0.1943
18488TIP3    H276880   3.269   1.512  16.078 -0.7108 -0.9668 -0.9043
18489TIP3   OH276881   4.456   5.459  12.836 -0.0151 -0.0640  0.0648
18489TIP3    H176882   4.463   5.371  12.873  2.0964  0.7775  1.7372
18489TIP3    H276883   4.383   5.453  12.774 -0.6718 -2.6797  1.0284
18490TIP3   OH276884   5.408   1.415   2.149  0.1509 -0.1165 -0.2638
18490TIP3    H176885   5.319   1.382   2.139 -0.7589  1.3331  2.6746
18490TIP3    H276886   5.405   1.504   2.113  0.5818 -0.2533 -0.6601
18491TIP3   OH276887   6.114   0.699   2.684 -0.2437  0.5858 -0.0449
18491TIP3    H176888   6.122   0.662   2.772 -0.5710  1.0582  0.1798
18491TIP3    H276889   6.146   0.629   2.626 -0.3140  0.1654  0.4242
18492TIP3   OH276890   2.227   6.064   4.249  0.2687  0.2177  0.7462
18492TIP3    H176891   2.179   6.037   4.171  0.2704 -1.6216  1.3476
18492TIP3    H276892   2.263   5.983   4.285  3.5877  1.4941  0.5159
18493TIP3   OH276893   0.465   6.325  16.721  0.1518  0.3714  0.1177
18493TIP3    H176894   0.384   6.278  16.739 -0.7065  1.8710  0.2582
18493TIP3    H276895   0.477   6.382  16.797  0.1570  1.7494 -0.8910
18494TIP3   OH276896   5.507   1.726   3.092  0.2034 -0.8660 -0.1425
18494TIP3    H176897   5.445   1.734   3.020  1.6327 -0.1146 -1.3206
18494TIP3    H276898   5.527   1.632   3.096  1.0754 -0.7544 -1.5686
18495TIP3   OH276899   0.769   6.191  12.858  0.0753  0.1521  0.5088
18495TIP3    H176900   0.751   6.098  12.846  2.9759 -0.5217  0.9314
18495TIP3    H276901   0.770   6.203  12.953  2.0028  0.0706  0.5268
18496TIP3   OH276902   3.563   4.868  13.159 -0.4765 -1.1504  0.1057
18496TIP3    H176903   3.618   4.791  13.140  0.1236 -0.3644 -1.4286
18496TIP3    H276904   3.626   4.937  13.183 -0.8875 -0.6227 -0.3292
18497TIP3   OH276905   6.240   5.317  17.084  0.1141  0.2798 -0.4558
18497TIP3    H176906   6.183   5.390  17.062  0.4807  0.7327  0.0770
18497TIP3    H276907   6.192   5.268  17.151  0.5391  0.9254  0.3372
18498TIP3   OH276908   2.507   0.382   6.351 -0.1521 -0.0801 -0.3738
18498TIP3    H176909   2.496   0.298   6.396 -0.0258 -0.7588 -1.5841
18498TIP3    H276910   2.419   0.419   6.347  0.1036  0.8612  2.0740
18499TIP3   OH276911   4.357   2.408  15.083  0.3346  0.0167 -0.2322
18499TIP3    H176912   4.382   2.482  15.028 -0.7448  1.1092  0.7304
18499TIP3    H276913   4.302   2.354  15.027 -0.1837  0.7632 -0.4425
18500TIP3   OH276914   4.557   4.688   1.336  0.4116  0.2085  0.3276
18500TIP3    H176915   4.529   4.644   1.256 -1.1910  0.2792  0.8344
18500TIP3    H276916   4.651   4.670   1.342  0.1823 -1.3681 -0.5836
18501TIP3   OH276917   4.101   3.944   6.334  0.1005 -0.1839 -0.1945
18501TIP3    H176918   4.012   3.926   6.364  0.5910 -0.5188  1.0711
18501TIP3    H276919   4.146   3.979   6.411  1.0273  0.1192 -0.8641
18502TIP3   OH276920   5.845   1.326   1.167 -0.1883  0.8619 -0.1008
18502TIP3    H176921   5.751   1.316   1.155 -0.0674 -0.0348 -0.3784
18502TIP3    H276922   5.855   1.354   1.258 -0.5800 -1.5713  0.7284
18503TIP3   OH276923   2.976   4.859   2.231  0.4467  0.0630 -0.6195
18503TIP3    H176924   3.036   4.929   2.255  0.8850 -0.6850  0.5191
18503TIP3    H276925   2.905   4.864   2.296 -0.3223  0.4432 -1.4823
18504TIP3   OH276926   1.691   2.986  14.937 -0.2211  0.7079  0.3109
18504TIP3    H176927   1.757   2.938  14.886 -1.1529 -2.4629  1.9225
18504TIP3    H276928   1.741   3.056  14.979  1.9635 -0.9837  0.6709
18505TIP3   OH276929   2.124   0.002  13.837 -0.0488 -0.4871 -0.4055
18505TIP3    H176930   2.170  -0.079  13.814  2.5751  0.7095  0.4680
18505TIP3    H276931   2.147   0.017  13.929 -0.7887  1.0939 -0.4667
18506TIP3   OH276932   4.836   0.919   5.500 -0.3315  0.3466  0.2513
18506TIP3    H176933   4.917   0.881   5.534  1.1356  2.8541 -0.3238
18506TIP3    H276934   4.792   0.847   5.455  3.3962 -0.2153 -2.6791
18507TIP3   OH276935   5.957   6.115  14.288  0.2209 -0.4196 -0.6519
18507TIP3    H176936   6.022   6.146  14.351 -0.5127  0.0690 -0.1115
18507TIP3    H276937   5.884   6.086  14.343  0.0169 -1.0361 -1.2452
18508TIP3   OH276938   2.598   5.719  13.311  0.1366 -0.0982  0.9403
18508TIP3    H176939   2.681   5.672  13.302 -0.8869 -1.7648 -0.1364
18508TIP3    H276940   2.607   5.796  13.255  0.8203 -0.4569  0.5538
18509TIP3   OH276941   3.687   4.107  12.858  0.0122  0.4520  0.5308
18509TIP3    H176942   3.698   4.064  12.773  0.7196 -0.6243  1.1430
18509TIP3    H276943   3.645   4.191  12.838  1.1596  0.6807 -0.9799
18510TIP3   OH276944   6.589   3.336   4.419 -0.1981 -0.1672  0.3648
18510TIP3    H176945   6.647   3.291   4.358  0.1736  1.0472 -0.1853
18510TIP3    H276946   6.646   3.369   4.488 -0.3245  0.4540  0.1704
18511TIP3   OH276947   5.599   1.572  13.492 -0.2948 -0.1115  0.2250
18511TIP3    H176948   5.686   1.537  13.508 -0.2331 -0.1459 -0.1995
18511TIP3    H276949   5.539   1.507  13.529 -0.2109 -1.0430 -1.2670
18512TIP3   OH276950   6.254   1.468  15.585 -0.2863  0.0772 -0.0875
18512TIP3    H176951   6.221   1.426  15.664 -0.9986 -1.6892 -1.3124
18512TIP3    H276952   6.304   1.400  15.540  1.1416  1.4048 -0.5904
18513TIP3   OH276953   6.308   3.189   5.960  0.2017  0.1249  0.3152
18513TIP3    H176954   6.393   3.234   5.952  0.1021  0.3059  0.2729
18513TIP3    H276955   6.244   3.260   5.959  0.0645  0.0008  0.6030
18514TIP3   OH276956   0.244   4.314   4.226  0.0158 -0.3648 -0.8545
18514TIP3    H176957   0.309   4.368   4.181  0.6956 -0.4776 -0.0219
18514TIP3    H276958   0.254   4.227   4.188  0.1851 -0.3287 -0.8896
18515TIP3   OH276959   5.914   5.265   1.024 -0.2120 -0.0222  0.0633
18515TIP3    H176960   5.996   5.222   0.999  0.0882  0.7414 -0.2880
18515TIP3    H276961   5.903   5.244   1.116  0.1060 -0.5757 -0.0248
18516TIP3   OH276962   1.974   4.294  13.861  0.5990  0.1242 -0.7501
18516TIP3    H176963   2.019   4.297  13.777 -1.4758  0.4586 -1.8970
18516TIP3    H276964   1.982   4.203  13.889 -0.3813 -0.4659 -2.2917
18517TIP3   OH276965   3.639   3.827  16.150  0.1318 -0.6991 -0.2930
18517TIP3    H176966   3.672   3.745  16.189 -0.9833 -0.4328  1.2719
18517TIP3    H276967   3.690   3.896  16.193  1.7717 -0.5787 -2.3359
18518TIP3   OH276968   2.419   4.089   4.770  0.2266  0.0435  0.2474
18518TIP3    H176969   2.389   4.033   4.698 -0.0297  1.8030 -1.0431
18518TIP3    H276970   2.349   4.082   4.835 -0.6028  0.1313 -0.6071
18519TIP3   OH276971   4.735   1.116  11.638  0.2015 -0.4901 -1.1930
18519TIP3    H176972   4.816   1.065  11.644 -0.1615 -0.8128  1.5011
18519TIP3    H276973   4.693   1.085  11.558  1.0679 -2.8134 -0.7897
18520TIP3   OH276974   5.281   6.268   1.280 -0.0154 -0.5610  0.0367
18520TIP3    H176975   5.236   6.317   1.348  1.2548 -0.6508  0.9637
18520TIP3    H276976   5.360   6.319   1.262  1.1515 -2.0490  0.7673
18521TIP3   OH276977   0.454   3.527  16.780  0.3178  0.0099  0.1474
18521TIP3    H176978   0.397   3.467  16.732 -1.3794  1.9434 -0.2907
18521TIP3    H276979   0.528   3.472  16.807 -1.9025 -2.6695  1.0940
18522TIP3   OH276980   0.909   1.080  15.608 -0.5241  0.2268  0.3848
18522TIP3    H176981   0.963   1.007  15.641 -0.1690 -0.3800 -1.4735
18522TIP3    H276982   0.972   1.150  15.590 -0.4916 -0.0738 -0.6885
18523TIP3   OH276983   2.428   4.508   0.940  0.2381  0.4087 -0.7669
18523TIP3    H176984   2.515   4.510   0.899 -0.1322  1.7374 -1.5004
18523TIP3    H276985   2.433   4.434   1.001  1.4409 -0.3761 -1.7731
18524TIP3   OH276986   3.193   6.246   3.070  0.0413  0.4842 -0.6084
18524TIP3    H176987   3.259   6.187   3.104  0.3736  0.7903 -0.7268
18524TIP3    H276988   3.146   6.277   3.148 -0.0295  0.1928 -0.5343
18525TIP3   OH276989   6.336   4.565   0.972 -0.8227 -0.7593 -0.2357
18525TIP3    H176990   6.375   4.489   0.930 -2.1292 -0.4395 -2.0394
18525TIP3    H276991   6.344   4.547   1.066  1.5953 -1.7249 -0.6013
18526TIP3   OH276992   2.927   4.785  11.781 -0.6294  0.0406  1.0074
18526TIP3    H176993   2.940   4.828  11.696 -1.6175 -1.2467  0.1813
18526TIP3    H276994   3.013   4.746  11.800 -0.9641 -1.5097 -0.4810
18527TIP3   OH276995   3.460   2.981  13.607 -0.3911  0.2620 -0.0537
18527TIP3    H176996   3.505   2.941  13.533 -0.8668 -2.0893  0.8796
18527TIP3    H276997   3.528   3.030  13.653  1.0005 -2.2424  0.6459
18528TIP3   OH276998   5.163   5.628   6.502 -0.2731 -0.3068 -0.3008
18528TIP3    H176999   5.181   5.535   6.512 -1.5145 -0.6716 -1.3556
18528TIP3    H277000   5.228   5.658   6.438 -1.6010 -1.0464 -2.0373
18529TIP3   OH277001   0.539   6.400  14.688 -0.1400  0.1862 -0.7449
18529TIP3    H177002   0.630   6.421  14.666  0.4885  0.8437  2.3290
18529TIP3    H277003   0.543   6.363  14.776 -2.8661  0.2712 -0.5451
18530TIP3   OH277004   6.542   0.638  11.687 -0.2418 -0.2678  0.8211
18530TIP3    H177005   6.615   0.602  11.736  0.0874 -0.3287  0.2867
18530TIP3    H277006   6.543   0.732  11.707  0.4202 -0.1533  0.2436
18531TIP3   OH277007   0.953   3.857  16.970 -0.1656 -0.0232  0.3875
18531TIP3    H177008   0.972   3.829  16.880  1.5315 -0.3364  0.8379
18531TIP3    H277009   0.860   3.882  16.967 -0.3370 -0.7430 -1.2652
18532TIP3   OH277010   1.601   4.861  13.614  0.9190  0.0010 -0.6074
18532TIP3    H177011   1.555   4.895  13.691 -1.3072  0.2655 -2.0064
18532TIP3    H277012   1.531   4.839  13.552  2.6555 -0.4906 -2.4377
18533TIP3   OH277013   2.928   1.515  15.831  0.4278 -0.0645  0.0241
18533TIP3    H177014   2.941   1.590  15.773  1.0199  1.4688  2.0777
18533TIP3    H277015   2.851   1.538  15.884  0.5861 -0.9214  0.6508
18534TIP3   OH277016   3.199   2.756  10.841  0.0557  0.0331  0.3819
18534TIP3    H177017   3.132   2.797  10.786  1.0300  3.0302  1.3279
18534TIP3    H277018   3.257   2.712  10.779 -1.8198 -1.1851 -0.5694
18535TIP3   OH277019   2.462   4.694   2.530 -0.5535  0.5641  0.5029
18535TIP3    H177020   2.442   4.662   2.618 -1.2281  1.1769  0.5797
18535TIP3    H277021   2.476   4.788   2.541 -2.3331  0.9505 -0.2910
18536TIP3   OH277022   4.069   4.371  13.785  0.4087  0.3024 -0.4494
18536TIP3    H177023   4.059   4.349  13.692  0.6455  1.8180 -0.8409
18536TIP3    H277024   4.145   4.430  13.787 -1.5865  2.9061  0.2966
18537TIP3   OH277025   5.259   5.275   1.509 -0.1823 -0.3417 -0.1541
18537TIP3    H177026   5.230   5.315   1.427 -2.9430 -0.6545  0.6207
18537TIP3    H277027   5.305   5.195   1.482 -1.7154 -0.8373 -1.3926
18538TIP3   OH277028   4.054   0.920   5.918 -1.1689  0.0450 -0.1982
18538TIP3    H177029   4.015   0.859   5.981 -1.6773  0.7054  0.1486
18538TIP3    H277030   4.141   0.939   5.953 -1.1748 -0.1558 -0.0764
18539TIP3   OH277031   0.210   5.519   5.247 -0.0566  0.2652 -0.0278
18539TIP3    H177032   0.165   5.440   5.278 -0.6320 -0.2536 -2.0985
18539TIP3    H277033   0.247   5.558   5.326 -0.7516 -1.4549  1.1829
18540TIP3   OH277034   5.941   6.559  15.143 -0.4155 -0.3116  0.0491
18540TIP3    H177035   5.976   6.594  15.225 -0.5414 -0.1590  0.0381
18540TIP3    H277036   5.990   6.479  15.128  0.2094  0.1058 -0.1672
18541TIP3   OH277037   1.711   0.354  14.513 -0.1121  0.3623  0.4132
18541TIP3    H177038   1.724   0.448  14.524  0.2193  0.4658 -0.8344
18541TIP3    H277039   1.650   0.331  14.583  1.1636  1.1762  1.8203
18542TIP3   OH277040   1.220   1.475   1.539 -0.5090 -0.2589 -0.0345
18542TIP3    H177041   1.133   1.473   1.498  0.0836  2.2247 -1.5554
18542TIP3    H277042   1.280   1.447   1.469  0.4898  3.8125 -0.9219
18543TIP3   OH277043   5.451   1.309   4.686 -0.1235  0.4250 -0.0616
18543TIP3    H177044   5.495   1.387   4.653  0.0012  1.0108  1.4436
18543TIP3    H277045   5.385   1.289   4.620  2.1129 -0.2322 -2.1555
18544TIP3   OH277046   0.389   1.408   3.488  0.2322 -0.2744 -0.1446
18544TIP3    H177047   0.339   1.426   3.567  0.0592 -1.9337  0.1463
18544TIP3    H277048   0.476   1.385   3.519  0.4692  0.1182 -0.5060
18545TIP3   OH277049   1.938   2.328   0.064  0.4527 -0.1428  0.1292
18545TIP3    H177050   1.988   2.247   0.071 -1.1440 -1.2362 -0.8937
18545TIP3    H277051   1.944   2.352  -0.029  0.6923  0.7823  0.3731
18546TIP3   OH277052   2.985   0.843  13.086  0.5047 -0.2383  0.2756
18546TIP3    H177053   3.020   0.780  13.149  0.5656 -1.4591 -0.9768
18546TIP3    H277054   3.015   0.812  13.001  1.9350  2.3929 -0.2569
18547TIP3   OH277055   6.209   4.969   1.174 -0.2776 -0.2521  0.0414
18547TIP3    H177056   6.271   4.897   1.186 -0.7681 -0.9578 -1.5790
18547TIP3    H277057   6.172   4.983   1.261  0.2607 -1.5626  0.4942
18548TIP3   OH277058   4.066   1.970   1.366  0.3244 -0.0526  0.3688
18548TIP3    H177059   4.074   1.880   1.334 -0.4797  0.1246 -0.3529
18548TIP3    H277060   4.041   1.960   1.458  1.7813 -0.5585  0.7259
18549TIP3   OH277061   6.401   1.349  13.859 -0.1343  0.0984 -0.4163
18549TIP3    H177062   6.484   1.366  13.904 -0.3454  0.0035  0.0101
18549TIP3    H277063   6.407   1.400  13.779  0.5775 -0.3572 -0.6631
18550TIP3   OH277064   5.758   3.040   6.206 -0.0792  0.9209  0.7443
18550TIP3    H177065   5.784   2.956   6.245 -0.2742  0.2893 -0.4479
18550TIP3    H277066   5.663   3.041   6.214 -0.1610  0.5807 -0.0972
18551TIP3   OH277067   2.906   0.294  12.434 -0.2375  0.1570  0.6792
18551TIP3    H177068   2.948   0.366  12.481  0.7409 -0.0598  0.1473
18551TIP3    H277069   2.839   0.337  12.380  0.2957  0.6648  0.4157
18552TIP3   OH277070   0.961   3.107  14.699  0.1892 -0.5133  0.5128
18552TIP3    H177071   0.946   3.032  14.642  0.5520 -0.9580  0.9945
18552TIP3    H277072   0.894   3.101  14.767 -0.3746  0.1340  0.0203
18553TIP3   OH277073   1.395   4.541   6.462  0.1493  0.0886 -0.2511
18553TIP3    H177074   1.409   4.461   6.410  0.0569 -0.1665  0.1182
18553TIP3    H277075   1.380   4.609   6.396  0.4993 -0.1427 -0.5799
18554TIP3   OH277076   2.904   3.924  14.336  0.0205 -0.2527  0.1412
18554TIP3    H177077   2.959   3.993  14.300 -1.8170  0.3871 -1.5212
18554TIP3    H277078   2.863   3.883  14.259 -1.2858 -1.1568  1.2884
18555TIP3   OH277079   6.314   4.138   4.746  0.4348  0.0421  0.2812
18555TIP3    H177080   6.286   4.192   4.819  0.2821 -0.5224  0.6418
18555TIP3    H277081   6.247   4.151   4.679  1.0637  1.2857 -0.1139
18556TIP3   OH277082   1.075   4.350  12.389  0.0973  0.8025 -0.1712
18556TIP3    H177083   1.043   4.409  12.457 -0.1124  2.0567 -1.3101
18556TIP3    H277084   0.998   4.335  12.333  0.2967 -0.0948 -0.2029
18557TIP3   OH277085   2.636   1.460   2.343  0.2949 -0.2102 -0.7119
18557TIP3    H177086   2.624   1.533   2.283 -0.1323  0.0762 -0.2832
18557TIP3    H277087   2.688   1.396   2.294  0.4058  0.2484 -1.1939
18558TIP3   OH277088   3.406   2.592  13.937 -0.3853  0.1390  0.3894
18558TIP3    H177089   3.338   2.595  14.005 -0.6304  1.6197  0.0886
18558TIP3    H277090   3.367   2.539  13.867 -1.5322  1.5832 -0.0862
18559TIP3   OH277091   6.063   5.050   3.609 -0.1544  0.2439  0.2472
18559TIP3    H177092   6.124   5.000   3.556 -1.0933  0.8478 -1.4408
18559TIP3    H277093   6.008   4.984   3.651 -0.3841 -0.1875 -0.7319
18560TIP3   OH277094   1.776   3.091   3.791  0.2073  0.2534  0.5747
18560TIP3    H177095   1.828   3.154   3.740  0.6863 -0.6279 -0.0526
18560TIP3    H277096   1.685   3.118   3.778  0.2686 -0.4211 -1.4108
18561TIP3   OH277097   0.370   1.077  13.798  0.4230 -0.6180 -0.0188
18561TIP3    H177098   0.372   1.170  13.822 -1.7604 -0.8367  1.1039
18561TIP3    H277099   0.293   1.068  13.743 -0.1866 -2.0393  1.0542
18562TIP3   OH277100   3.171   5.601   2.989 -0.3453 -0.5134 -0.6425
18562TIP3    H177101   3.198   5.693   2.990  0.6031 -0.7872  1.4860
18562TIP3    H277102   3.076   5.604   2.982 -0.3651  0.6385  0.0488
18563TIP3   OH277103   6.358   5.382  12.614  0.0586 -0.2097 -0.3268
18563TIP3    H177104   6.371   5.289  12.598 -1.6099 -0.0019 -3.2202
18563TIP3    H277105   6.442   5.422  12.590 -0.0194 -0.7182 -1.4855
18564TIP3   OH277106   1.044   1.360   5.935 -0.0029  0.0173  0.0579
18564TIP3    H177107   1.033   1.308   5.855  1.7212  0.6766 -0.6399
18564TIP3    H277108   1.139   1.371   5.944 -0.2188  0.7343  1.6925
18565TIP3   OH277109   6.632   6.444   6.428  0.0758  0.6165 -0.2612
18565TIP3    H177110   6.672   6.370   6.382 -2.4687 -0.9691 -0.0618
18565TIP3    H277111   6.626   6.414   6.519 -1.2787  0.8885 -0.2439
18566TIP3   OH277112   0.899   6.090  13.392  0.2711  0.4537 -0.3428
18566TIP3    H177113   0.899   6.185  13.383  1.5493  0.8161  3.0052
18566TIP3    H277114   0.827   6.072  13.452  2.5171 -0.2965  2.2120
18567TIP3   OH277115   0.525   2.530   0.108 -0.0154 -0.2546  0.7749
18567TIP3    H177116   0.563   2.452   0.068  0.0190 -0.9324  2.1193
18567TIP3    H277117   0.540   2.600   0.044 -0.4416 -1.4321 -0.6291
18568TIP3   OH277118   1.545   0.178   3.077 -0.7508 -0.2836  0.0346
18568TIP3    H177119   1.559   0.255   3.022  0.4391 -1.0764 -0.8151
18568TIP3    H277120   1.503   0.212   3.156 -0.8214  1.1374 -0.5946
18569TIP3   OH277121   4.204   2.149  16.475 -0.9657 -0.8412  0.0112
18569TIP3    H177122   4.154   2.067  16.473 -0.4088 -1.1553 -2.2091
18569TIP3    H277123   4.255   2.148  16.395  0.5548  0.7725  0.9250
18570TIP3   OH277124   3.139   1.655  11.039 -0.5424 -0.3028 -0.1530
18570TIP3    H177125   3.193   1.589  11.084  1.7012  1.4888 -0.1264
18570TIP3    H277126   3.148   1.632  10.946  0.7442  0.3132 -0.1910
18571TIP3   OH277127   4.452   6.137   5.425  0.6150  0.4061 -0.5445
18571TIP3    H177128   4.487   6.226   5.438 -1.1066  0.9730  0.2658
18571TIP3    H277129   4.401   6.119   5.504 -0.4080 -0.6632 -1.4398
18572TIP3   OH277130   1.008   1.944  15.338 -0.1885 -0.2842  0.3627
18572TIP3    H177131   1.061   2.019  15.312  0.0573 -0.7247 -0.4127
18572TIP3    H277132   1.042   1.919  15.424  1.9346 -1.5528 -0.8158
18573TIP3   OH277133   5.651   1.577   5.754  0.2529 -0.1767  0.8646
18573TIP3    H177134   5.701   1.658   5.768 -0.0834  0.5161 -1.6669
18573TIP3    H277135   5.560   1.606   5.746  0.2314 -0.6592 -0.9422
18574TIP3   OH277136   5.439   6.073  16.369  0.3334  0.2194  0.0487
18574TIP3    H177137   5.425   6.167  16.379  0.6957  0.3031 -0.2097
18574TIP3    H277138   5.502   6.050  16.437 -0.1969  0.0493  0.4928
18575TIP3   OH277139   3.588   6.044  11.501 -0.7562 -0.2857  0.1880
18575TIP3    H177140   3.593   6.048  11.596 -0.3584 -1.8156  0.2491
18575TIP3    H277141   3.537   6.121  11.476  1.5056  1.6658  1.4257
18576TIP3   OH277142   2.155   5.701   5.944  0.0846 -0.1166  0.2104
18576TIP3    H177143   2.155   5.654   6.028  0.2279 -0.1991  0.1655
18576TIP3    H277144   2.238   5.750   5.945  0.6252 -1.0000 -0.3720
18577TIP3   OH277145   5.746   0.489  10.717 -0.2203 -0.2481 -0.1677
18577TIP3    H177146   5.780   0.401  10.699 -1.1194 -0.2773 -1.8158
18577TIP3    H277147   5.668   0.497  10.661  1.2149  2.4987 -1.8915
18578TIP3   OH277148   6.339   4.729   5.372  0.3293  0.2872  0.6021
18578TIP3    H177149   6.385   4.646   5.370  0.6843  0.5025 -1.5628
18578TIP3    H277150   6.401   4.790   5.412  0.1676 -0.4064  1.9441
18579TIP3   OH277151   1.489   3.634   5.586  0.9210  0.7523  0.3073
18579TIP3    H177152   1.487   3.592   5.672  1.8636  0.7636  0.3340
18579TIP3    H277153   1.582   3.637   5.563  0.7111  1.2325 -0.4746
18580TIP3   OH277154   2.923   1.697   5.213 -0.0389 -0.6564  0.0197
18580TIP3    H177155   3.014   1.699   5.242 -0.6519  0.2063  1.9548
18580TIP3    H277156   2.922   1.748   5.133  1.2712 -1.1275 -0.3161
18581TIP3   OH277157   6.293   3.030  12.346  0.0255  0.1736  0.1925
18581TIP3    H177158   6.334   2.948  12.374  0.4948  0.0560 -0.7897
18581TIP3    H277159   6.199   3.014  12.357  0.1509 -0.2145  0.7450
18582TIP3   OH277160   6.761   4.419   4.410  0.0621  0.0251  0.8359
18582TIP3    H177161   6.784   4.367   4.333  0.9079  2.1859 -0.4043
18582TIP3    H277162   6.696   4.366   4.456  1.4884 -2.4825  0.0468
18583TIP3   OH277163   5.150   2.332   1.874 -0.2186  0.1110 -0.6276
18583TIP3    H177164   5.173   2.386   1.798 -1.9652  0.8803 -0.6283
18583TIP3    H277165   5.164   2.242   1.844 -1.5933  0.3700 -2.1044
18584TIP3   OH277166   6.786   6.062   1.181 -0.3560 -0.4283  0.6176
18584TIP3    H177167   6.727   6.123   1.136 -0.1530  0.0441  0.9859
18584TIP3    H277168   6.738   6.037   1.260 -0.7249 -1.2811  0.1287
18585TIP3   OH277169   3.345   1.525  12.493  0.1797 -0.2522  0.4480
18585TIP3    H177170   3.349   1.523  12.588 -1.8384 -0.8293  0.5423
18585TIP3    H277171   3.422   1.476  12.464  1.1674  0.5109  1.7556
18586TIP3   OH277172   3.472   3.024   3.474  0.1264 -0.3587 -0.5572
18586TIP3    H177173   3.474   3.003   3.568  2.6641 -0.7228 -0.6665
18586TIP3    H277174   3.439   3.114   3.472  1.1771  0.0886  0.7936
18587TIP3   OH277175   3.377   0.171  11.238 -0.2658 -0.0699 -0.3381
18587TIP3    H177176   3.444   0.112  11.205 -1.5588 -1.0333 -1.2856
18587TIP3    H277177   3.323   0.117  11.296 -0.6917  0.4915 -0.2010
18588TIP3   OH277178   5.259   4.784  13.813  0.0964 -0.1699  0.3643
18588TIP3    H177179   5.217   4.815  13.732 -0.5449 -1.5165  0.1637
18588TIP3    H277180   5.334   4.732  13.783  0.2550 -0.1027  0.6491
18589TIP3   OH277181   3.240   0.812  15.953  0.4438  0.9116  0.1409
18589TIP3    H177182   3.159   0.762  15.942  0.3388  1.4057 -1.3803
18589TIP3    H277183   3.214   0.903  15.937  1.2553  1.0955 -0.1369
18590TIP3   OH277184   5.012   4.176   2.121  0.6713  0.2507 -0.0991
18590TIP3    H177185   4.960   4.096   2.130 -0.7269  1.0678 -0.8062
18590TIP3    H277186   5.033   4.201   2.212 -0.7434  0.2750  0.2354
18591TIP3   OH277187   2.126   5.022   5.988  0.0198 -0.4376  0.3443
18591TIP3    H177188   2.075   4.960   5.935 -0.6962  0.1946  0.2835
18591TIP3    H277189   2.187   5.061   5.926  0.4752 -1.0788  0.3823
18592TIP3   OH277190   1.369   0.865   5.432  0.5597  0.1105 -0.6570
18592TIP3    H177191   1.276   0.863   5.409  0.3806 -1.7388  0.1517
18592TIP3    H277192   1.371   0.904   5.519  0.5616  0.3226 -0.7522
18593TIP3   OH277193   4.951   2.243  13.949  0.3814  0.3487  0.3170
18593TIP3    H177194   4.858   2.238  13.974  0.3413 -0.8296 -0.0164
18593TIP3    H277195   4.984   2.154  13.963  1.6297  0.9117  1.0405
18594TIP3   OH277196   2.384   6.578   0.459 -0.2780 -0.6903 -0.4092
18594TIP3    H177197   2.420   6.616   0.539  1.1725  0.6623 -1.6690
18594TIP3    H277198   2.290   6.570   0.476 -0.8027  4.2242 -0.3161
18595TIP3   OH277199   0.151   5.360   0.900  0.1957  0.1262 -0.1920
18595TIP3    H177200   0.162   5.455   0.896  1.1876  0.0034 -0.6249
18595TIP3    H277201   0.202   5.327   0.826 -0.8265 -0.6921 -0.5411
18596TIP3   OH277202   4.221   3.739   5.165 -0.0062  0.6509 -0.7645
18596TIP3    H177203   4.227   3.813   5.225  0.6051 -1.5818  2.0797
18596TIP3    H277204   4.290   3.755   5.100  1.6250  1.5107  1.1126
18597TIP3   OH277205   6.418   1.687   3.856 -0.3409  0.4355  0.2769
18597TIP3    H177206   6.490   1.748   3.873  0.0487  0.7070 -2.0912
18597TIP3    H277207   6.362   1.733   3.793 -1.3108 -0.7323  0.2554
18598TIP3   OH277208   6.509   0.732   1.596  0.1312 -1.0438 -0.6701
18598TIP3    H177209   6.423   0.724   1.554  0.9724 -2.5079 -2.1818
18598TIP3    H277210   6.490   0.729   1.690 -1.6114  0.3176 -0.9571
18599TIP3   OH277211   2.241   4.311  12.213 -0.2292 -0.1435 -0.2283
18599TIP3    H177212   2.240   4.399  12.250  1.2315 -0.5230  0.8060
18599TIP3    H277213   2.297   4.318  12.136  1.8241 -0.6091  1.1631
18600TIP3   OH277214   1.520   4.234   4.504 -0.0923  0.0459 -0.2103
18600TIP3    H177215   1.521   4.150   4.458  0.5779  1.2610 -2.5140
18600TIP3    H277216   1.596   4.231   4.562  1.6204  0.1421 -2.3961
18601TIP3   OH277217   3.848   1.270  14.802  0.3260 -0.4993  0.4745
18601TIP3    H177218   3.913   1.339  14.785 -1.5825  1.1943 -0.2399
18601TIP3    H277219   3.848   1.217  14.722  1.2790 -0.9061  0.7370
18602TIP3   OH277220   3.594   2.103   5.204 -0.0232  0.7211 -0.3333
18602TIP3    H177221   3.661   2.035   5.205  0.2987  1.0293 -0.7235
18602TIP3    H277222   3.630   2.172   5.260 -0.2492  0.6643 -0.1184
18603TIP3   OH277223   2.201   2.627   1.410  0.2352  0.1781 -0.2629
18603TIP3    H177224   2.198   2.532   1.400  0.6293  0.2511 -1.1889
18603TIP3    H277225   2.294   2.647   1.423  0.1697  0.4484 -0.2028
18604TIP3   OH277226   0.771   1.885   1.969 -0.1519 -0.2647 -0.1439
18604TIP3    H177227   0.845   1.831   1.999 -0.0718  0.3788  0.8323
18604TIP3    H277228   0.698   1.824   1.966 -0.0041 -0.5002  0.7252
18605TIP3   OH277229   6.171   1.228  14.528  0.1421  0.0575 -0.2748
18605TIP3    H177230   6.265   1.246  14.530  0.2871 -0.6816 -0.2115
18605TIP3    H277231   6.165   1.133  14.525 -0.6301  0.0474  1.1838
18606TIP3   OH277232   3.142   4.550   6.204  0.0134 -0.3656  0.2116
18606TIP3    H177233   3.099   4.515   6.282  0.8999 -0.0634  0.8466
18606TIP3    H277234   3.206   4.612   6.238  0.1429  0.0548 -0.7813
18607TIP3   OH277235   0.301   0.770   3.898 -0.2751  0.0765  0.2638
18607TIP3    H177236   0.236   0.841   3.897 -0.1175  0.2192  0.1741
18607TIP3    H277237   0.249   0.690   3.891 -0.5399  0.1273  1.4714
18608TIP3   OH277238   1.742   2.074  17.058  0.1838  0.3648 -0.5337
18608TIP3    H177239   1.694   2.145  17.016  1.1149  0.6558 -1.1286
18608TIP3    H277240   1.710   2.073  17.148  0.5071  1.8273 -0.3936
18609TIP3   OH277241   6.634   6.019  14.790  0.5522 -0.1180 -0.5329
18609TIP3    H177242   6.723   6.023  14.825  0.1785 -2.0400  0.7101
18609TIP3    H277243   6.645   5.986  14.701  1.1447  0.4693 -0.6821
18610TIP3   OH277244   3.657   3.298   5.826 -0.4886  0.3536  0.3625
18610TIP3    H177245   3.621   3.367   5.770  0.9755  0.2438 -0.7657
18610TIP3    H277246   3.600   3.223   5.813 -0.9245  0.7420  0.0326
18611TIP3   OH277247   6.212   5.950  14.504 -0.1610 -0.3825 -0.3308
18611TIP3    H177248   6.131   5.952  14.554 -0.2191 -0.5698 -0.4180
18611TIP3    H277249   6.281   5.962  14.569 -0.1546 -1.9755 -0.0257
18612TIP3   OH277250   0.578   4.204  15.349  0.5951 -0.4430 -0.1293
18612TIP3    H177251   0.636   4.232  15.420 -1.1821  1.1802  0.7304
18612TIP3    H277252   0.629   4.219  15.269  1.9415 -0.5802  0.6891
18613TIP3   OH277253   6.225   6.716   1.480  0.2319 -0.0043  0.1386
18613TIP3    H177254   6.272   6.761   1.409  0.2585  1.5634  1.1218
18613TIP3    H277255   6.224   6.779   1.552 -2.6105 -0.3152  0.4471
18614TIP3   OH277256   3.437   0.927   5.570  0.1124  0.2261 -0.8262
18614TIP3    H177257   3.528   0.903   5.553  0.6543  0.5408  1.4664
18614TIP3    H277258   3.405   0.859   5.629 -0.5814  1.1542 -0.1360
18615TIP3   OH277259   4.833   6.453  11.989  0.9486  0.5128  0.7042
18615TIP3    H177260   4.747   6.487  11.965  1.2978  0.2590 -0.9741
18615TIP3    H277261   4.823   6.358  11.984  1.6768  0.5053 -0.8207
18616TIP3   OH277262   5.411   6.623  11.906  0.3219  0.2104 -0.5742
18616TIP3    H177263   5.374   6.672  11.832  0.1199  1.2561  0.2173
18616TIP3    H277264   5.489   6.673  11.931  0.9595 -0.6984 -0.7186
18617TIP3   OH277265   1.084   4.163  11.986 -0.3744  0.0182  0.2136
18617TIP3    H177266   1.118   4.093  11.931  1.3144  0.3224  0.8384
18617TIP3    H277267   1.152   4.177  12.052 -1.1392  1.5536  0.7033
18618TIP3   OH277268   3.731   2.529  15.274  0.5721  0.3393  0.3574
18618TIP3    H177269   3.711   2.619  15.300 -0.1785 -0.1544  1.5106
18618TIP3    H277270   3.786   2.495  15.346 -0.1991 -0.5276  0.5449
18619TIP3   OH277271   2.164   4.521  14.555  0.1510  0.2592  0.3972
18619TIP3    H177272   2.109   4.598  14.567  1.5895  1.1771  1.3649
18619TIP3    H277273   2.196   4.528  14.465 -0.1366  0.5201  0.3163
18620TIP3   OH277274   1.900   0.281   4.902  0.5088  0.5284 -0.2918
18620TIP3    H177275   1.971   0.261   4.962  1.1807 -0.0252 -1.2642
18620TIP3    H277276   1.923   0.367   4.866  1.7344 -0.5587 -2.1306
18621TIP3   OH277277   4.308   3.166  14.001  0.0156 -0.4842 -0.4560
18621TIP3    H177278   4.268   3.201  14.080 -0.2007  1.4975 -1.4101
18621TIP3    H277279   4.235   3.146  13.943  0.2819  1.8864 -1.6852
18622TIP3   OH277280   6.006   6.143   0.622 -0.0989 -0.4571  0.1809
18622TIP3    H177281   6.040   6.224   0.586 -0.4691 -0.8400 -1.0371
18622TIP3    H277282   5.931   6.121   0.567 -1.0846 -0.6833  1.6014
18623TIP3   OH277283   2.347   0.945  15.252  0.8253 -0.3538  0.4253
18623TIP3    H177284   2.362   0.981  15.340  0.7773  1.4065 -0.2667
18623TIP3    H277285   2.382   1.012  15.193  0.7147 -1.4547 -0.9103
18624TIP3   OH277286   1.485   6.701  13.157  0.2249 -0.1828  0.0678
18624TIP3    H177287   1.524   6.664  13.078  0.0356  1.5421 -0.8703
18624TIP3    H277288   1.405   6.745  13.125 -0.4767 -0.4669  1.3939
18625TIP3   OH277289   3.043   0.180  13.431  0.2660 -0.1804 -0.1591
18625TIP3    H177290   3.061   0.268  13.465 -0.4150 -0.5901  1.3126
18625TIP3    H277291   2.969   0.193  13.371  0.3999  0.3047 -0.2251
18626TIP3   OH277292   4.783   3.159   0.619  0.2656 -0.4160 -0.0705
18626TIP3    H177293   4.847   3.125   0.682 -0.7745 -0.5600  0.9290
18626TIP3    H277294   4.749   3.081   0.575 -0.3107 -0.4678  0.4626
18627TIP3   OH277295   0.873   6.557  15.803  0.2223 -0.3098  0.1484
18627TIP3    H177296   0.925   6.636  15.821 -1.9897  1.2942 -0.2787
18627TIP3    H277297   0.875   6.508  15.885 -1.4548  2.0501  1.6714
18628TIP3   OH277298   2.630   4.755  15.110  0.0774 -0.2847 -0.3224
18628TIP3    H177299   2.663   4.771  15.199  0.1126  1.3853 -0.6282
18628TIP3    H277300   2.702   4.710  15.066  0.3763 -0.3724  0.2423
18629TIP3   OH277301   1.468   4.840   5.012  0.3320 -0.3101  0.1466
18629TIP3    H177302   1.487   4.908   5.077  1.4404  0.5097 -1.0157
18629TIP3    H277303   1.425   4.887   4.940  2.8761 -0.4820 -1.5151
18630TIP3   OH277304   3.800   4.954  15.131 -0.2405  0.0463  0.1031
18630TIP3    H177305   3.835   5.039  15.160 -1.7436  1.5576 -2.3231
18630TIP3    H277306   3.709   4.954  15.161 -0.6369 -0.0909 -1.0642
18631TIP3   OH277307   5.529   6.551   2.427 -0.1744  0.6504  0.7484
18631TIP3    H177308   5.450   6.511   2.463  0.4803  0.8244  2.4342
18631TIP3    H277309   5.539   6.632   2.477  1.4203  0.3159  0.9874
18632TIP3   OH277310   1.941   1.300   5.648 -0.4771 -0.2102  0.0463
18632TIP3    H177311   1.873   1.286   5.582 -0.6080 -0.4641  0.2349
18632TIP3    H277312   1.901   1.358   5.712  0.0351  0.9780 -0.6864
18633TIP3   OH277313   4.626   1.404   4.871 -0.4936  0.0561 -0.7332
18633TIP3    H177314   4.566   1.429   4.800 -1.1313 -1.2623 -0.6779
18633TIP3    H277315   4.588   1.324   4.907  0.4902  0.0463  0.3086
18634TIP3   OH277316   2.684   2.849  13.725 -0.4533  0.1291  0.3473
18634TIP3    H177317   2.604   2.832  13.775 -0.3252 -1.4801  0.0292
18634TIP3    H277318   2.755   2.826  13.784 -0.2173  1.2855  0.5281
18635TIP3   OH277319   0.503   2.762  13.887 -0.2258  0.7344 -0.4053
18635TIP3    H177320   0.501   2.666  13.884 -2.3103  0.7840 -2.0146
18635TIP3    H277321   0.506   2.783  13.981  1.5334 -0.9024 -0.0763
18636TIP3   OH277322   5.201   4.176  12.091  0.0132  0.1106  0.3501
18636TIP3    H177323   5.123   4.147  12.043 -1.0510  2.3912  0.6371
18636TIP3    H277324   5.166   4.216  12.171  1.4040  2.2760 -0.0940
18637TIP3   OH277325   2.465   1.042   6.841  0.0138 -0.3841 -0.2642
18637TIP3    H177326   2.550   1.031   6.798 -0.8452 -0.7780 -1.9347
18637TIP3    H277327   2.404   0.990   6.787 -1.3529  0.2046  0.6682
18638TIP3   OH277328   5.601   4.688   0.913 -0.5742 -0.5186 -0.7667
18638TIP3    H177329   5.565   4.775   0.930  1.7750  0.3328  0.0400
18638TIP3    H277330   5.556   4.631   0.976 -0.9487  0.4025 -0.1869
18639TIP3   OH277331   3.285   2.594   2.690 -0.6636 -0.1997 -0.5708
18639TIP3    H177332   3.354   2.613   2.626 -1.0595 -0.0290 -0.9459
18639TIP3    H277333   3.319   2.627   2.773 -0.3191 -0.0606 -0.7682
18640TIP3   OH277334   6.452   4.475   0.711  0.7769 -0.3943  0.2197
18640TIP3    H177335   6.438   4.494   0.618  1.2836  1.1351  0.4433
18640TIP3    H277336   6.495   4.554   0.745 -0.0037 -0.6840  1.8962
18641TIP3   OH277337   4.473   5.470   5.489  0.0944 -0.6730 -0.7511
18641TIP3    H177338   4.388   5.447   5.526  1.7342 -0.1913  3.5796
18641TIP3    H277339   4.463   5.562   5.462 -0.4827 -0.2955  0.7001
18642TIP3   OH277340   1.881   0.822  13.308  0.0076  0.0778 -0.0352
18642TIP3    H177341   1.858   0.914  13.303  0.6767  0.2560  0.0387
18642TIP3    H277342   1.798   0.775  13.301 -0.2855  0.6713 -0.5610
18643TIP3   OH277343   3.475   5.919  16.053  0.2827  0.3832 -0.1535
18643TIP3    H177344   3.467   6.001  16.005  2.2898 -0.0028 -1.2093
18643TIP3    H277345   3.439   5.939  16.140 -0.6643  1.9329 -0.8795
18644TIP3   OH277346   4.808   6.675   0.220  0.1983  0.0416  0.0327
18644TIP3    H177347   4.759   6.614   0.276  0.7347  0.5919  1.1119
18644TIP3    H277348   4.895   6.636   0.211 -0.4240 -0.9691 -1.9432
18645TIP3   OH277349   6.103   2.308  14.466 -0.4077  0.0932  0.4090
18645TIP3    H177350   6.014   2.339  14.450 -0.4979 -0.1134  0.5056
18645TIP3    H277351   6.159   2.368  14.417 -0.6233  0.0027  0.0505
18646TIP3   OH277352   6.004   2.769   5.550  0.3293 -0.6338  0.2845
18646TIP3    H177353   5.971   2.727   5.470  1.5675 -1.9685  0.4567
18646TIP3    H277354   6.054   2.844   5.519 -0.3937 -0.3096 -0.1143
18647TIP3   OH277355   6.033   4.544  16.116 -0.1168 -0.0016  0.2022
18647TIP3    H177356   6.026   4.503  16.029  0.2429  2.9297 -1.2675
18647TIP3    H277357   6.090   4.485  16.165  0.4536 -1.2368 -1.8589
18648TIP3   OH277358   0.709   4.895  16.151  0.6124  0.2407  0.2055
18648TIP3    H177359   0.668   4.948  16.219 -2.0268 -0.3428 -0.8630
18648TIP3    H277360   0.762   4.957  16.101  0.2236  1.2259  0.9987
18649TIP3   OH277361   4.783   5.367   3.340 -0.0002  0.3076  0.0197
18649TIP3    H177362   4.781   5.435   3.408 -2.8865  0.7891 -0.5238
18649TIP3    H277363   4.727   5.298   3.374  3.2432 -2.1014  0.7627
18650TIP3   OH277364   1.162   6.189   6.366  0.2803  0.3460  0.1524
18650TIP3    H177365   1.138   6.168   6.456 -0.7955  1.2583  0.0904
18650TIP3    H277366   1.223   6.119   6.340 -0.7148 -0.8598  1.0110
18651TIP3   OH277367   4.462   0.187   1.123 -0.5640  0.3053  0.2529
18651TIP3    H177368   4.496   0.171   1.035  0.6642 -0.1551  0.7935
18651TIP3    H277369   4.371   0.156   1.120  0.8566 -4.3018  0.4495
18652TIP3   OH277370   5.660   5.787   4.320  0.0256 -0.3117 -0.1289
18652TIP3    H177371   5.618   5.728   4.257 -1.2307 -0.3234  0.6926
18652TIP3    H277372   5.623   5.873   4.300  1.6114  0.1465 -1.1146
18653TIP3   OH277373   4.200   1.557   3.767 -0.1639 -0.0820  0.0946
18653TIP3    H177374   4.293   1.578   3.764 -0.2798  0.6015  1.0857
18653TIP3    H277375   4.167   1.582   3.681  1.3470 -4.2400 -1.8299
18654TIP3   OH277376   4.436   3.828   1.100  0.3256  0.4793 -0.0277
18654TIP3    H177377   4.438   3.789   1.187 -1.3223 -0.6688 -0.4905
18654TIP3    H277378   4.405   3.918   1.115  1.3326  0.7188  0.7006
18655TIP3   OH277379   1.367   1.158  15.444  0.2021 -0.6456  0.0286
18655TIP3    H177380   1.435   1.214  15.408  2.2076 -0.7673  3.4447
18655TIP3    H277381   1.413   1.078  15.469 -1.2198 -0.8235  2.1738
18656TIP3   OH277382   5.542   0.875   5.481 -0.1599 -0.3864 -0.3035
18656TIP3    H177383   5.570   0.931   5.553 -0.2189 -1.2391  0.3940
18656TIP3    H277384   5.467   0.826   5.516 -0.5032 -0.4433 -1.1034
18657TIP3   OH277385   2.991   5.567  16.274 -0.3720  0.0470  0.3769
18657TIP3    H177386   2.901   5.580  16.244 -0.2731  0.8843  0.4383
18657TIP3    H277387   2.983   5.512  16.352 -0.8609  0.4698  0.6238
18658TIP3   OH277388   4.767   3.109   6.252  0.2062 -0.6762 -0.6782
18658TIP3    H177389   4.790   3.030   6.300 -0.6777 -1.2028 -1.1005
18658TIP3    H277390   4.684   3.088   6.209 -0.6864  0.9013  0.2035
18659TIP3   OH277391   0.460   3.587   5.962 -0.2453 -0.2033 -0.0570
18659TIP3    H177392   0.461   3.666   6.016  1.3414  0.5118 -1.0860
18659TIP3    H277393   0.486   3.516   6.021  1.6837  0.6033  0.0950
18660TIP3   OH277394   6.650   3.284  12.787  0.3417  0.3443  0.2516
18660TIP3    H177395   6.700   3.204  12.805 -0.7705 -0.0929  1.4657
18660TIP3    H277396   6.697   3.325  12.715  1.8253 -0.6210  0.6311
18661TIP3   OH277397   5.779   4.329  17.089  0.1514  0.1955 -0.3702
18661TIP3    H177398   5.699   4.294  17.128 -0.0027 -0.0345 -0.8856
18661TIP3    H277399   5.789   4.416  17.127 -0.4654  0.3107 -0.4728
18662TIP3   OH277400   0.069   0.989   4.728 -0.7650 -0.4183 -0.5656
18662TIP3    H177401   0.063   1.079   4.758  0.9668 -0.9698  1.6319
18662TIP3    H277402   0.149   0.986   4.675 -0.0822 -0.9230  0.4686
18663TIP3   OH277403   3.685   2.202   0.060  0.1420 -0.0610  0.2385
18663TIP3    H177404   3.762   2.253   0.035 -0.3220  0.1344 -0.7795
18663TIP3    H277405   3.678   2.215   0.155 -0.0691  1.8962 -0.0274
18664TIP3   OH277406   2.546   1.883   1.880  0.0126 -0.2445  0.1274
18664TIP3    H177407   2.494   1.865   1.959 -0.9261  0.0971 -0.4107
18664TIP3    H277408   2.604   1.954   1.906  0.1858 -0.6002  0.7228
18665TIP3   OH277409   1.769   0.087  14.743 -0.1343 -0.5129  0.4047
18665TIP3    H177410   1.703   0.021  14.763  1.4236 -2.4035 -0.5624
18665TIP3    H277411   1.784   0.079  14.649  1.5757 -0.2043  0.6379
18666TIP3   OH277412   3.893   6.093   0.317  0.1170 -0.1822  0.1419
18666TIP3    H177413   3.833   6.077   0.389  0.5480  0.0478  0.5519
18666TIP3    H277414   3.916   6.006   0.285 -0.2563 -0.2769  0.1282
18667TIP3   OH277415   3.071   6.578   0.366  0.5857  0.1514 -0.3147
18667TIP3    H177416   3.048   6.615   0.281  1.8719  0.8217 -0.3792
18667TIP3    H277417   3.163   6.555   0.358  0.7779  0.4515  0.9956
18668TIP3   OH277418   2.753   1.060   1.493 -0.3123 -0.1994  0.1093
18668TIP3    H177419   2.825   1.120   1.474  0.3418 -1.3410 -1.0921
18668TIP3    H277420   2.674   1.114   1.484  0.2516  0.4116 -1.3383
18669TIP3   OH277421   5.444   3.682  16.473 -0.1395  0.2516  0.0637
18669TIP3    H177422   5.398   3.624  16.412  0.4091  1.0059 -1.0826
18669TIP3    H277423   5.525   3.635  16.494  0.1910  0.4830 -0.6735
18670TIP3   OH277424   1.165   4.194  13.855  0.0338  0.5096 -0.1526
18670TIP3    H177425   1.093   4.195  13.792 -0.0209 -1.3892 -0.1399
18670TIP3    H277426   1.143   4.123  13.916  2.3039 -0.6484 -0.6119
18671TIP3   OH277427   1.962   4.150  16.843 -0.2039 -0.2163 -0.3196
18671TIP3    H177428   1.877   4.185  16.869  0.1395  0.9916 -0.8002
18671TIP3    H277429   2.018   4.162  16.920  0.4349  2.0820 -1.1169
18672TIP3   OH277430   2.275   1.448   1.418 -0.4154  0.0983 -0.7947
18672TIP3    H177431   2.314   1.385   1.357 -0.7155 -0.5260 -0.3553
18672TIP3    H277432   2.197   1.403   1.450 -0.4549  0.5744 -0.2299
18673TIP3   OH277433   1.754   2.591  14.276  0.5963  0.4104 -0.3505
18673TIP3    H177434   1.808   2.525  14.232 -0.3405  0.3940 -1.5242
18673TIP3    H277435   1.796   2.674  14.255  0.9157  0.2993 -0.1517
18674TIP3   OH277436   6.745   5.890  11.172 -0.4658  0.4477  0.1964
18674TIP3    H177437   6.735   5.876  11.266  1.1155  2.8234  0.7761
18674TIP3    H277438   6.658   5.873  11.135 -1.0587 -0.6503  2.0518
18675TIP3   OH277439   1.415   2.126  10.813  0.0974 -0.1339 -0.0306
18675TIP3    H177440   1.493   2.134  10.757  1.5176  2.2468  2.1528
18675TIP3    H277441   1.346   2.168  10.763  0.6882 -0.4732 -1.1533
18676TIP3   OH277442   3.787   0.748  15.047 -0.2385 -0.1056  0.5760
18676TIP3    H177443   3.848   0.806  15.001  0.7541 -0.9400  0.8350
18676TIP3    H277444   3.721   0.808  15.083 -1.4635  0.4975 -2.5019
18677TIP3   OH277445   6.667   5.959  16.036  0.1021  0.2030  0.4145
18677TIP3    H177446   6.662   5.955  15.941 -1.7972  1.6960  0.4108
18677TIP3    H277447   6.728   6.031  16.054  0.3412  0.0240  0.3117
18678TIP3   OH277448   2.088   3.821   4.892 -0.4544 -0.7084 -0.0646
18678TIP3    H177449   2.037   3.744   4.917 -1.1736 -0.4208 -0.6474
18678TIP3    H277450   2.068   3.835   4.800  0.2961 -0.2953 -0.1730
18679TIP3   OH277451   6.306   4.644  15.262 -0.5207 -0.2336 -0.4690
18679TIP3    H177452   6.343   4.663  15.175 -3.7297 -0.7939 -2.0365
18679TIP3    H277453   6.285   4.730  15.298  1.0346  0.0150 -0.0831
18680TIP3   OH277454   6.404   2.183   1.281  0.0816 -0.0305 -0.7074
18680TIP3    H177455   6.417   2.096   1.319 -0.0811  0.4373  0.4318
18680TIP3    H277456   6.310   2.187   1.262 -0.2439  0.6121  1.0170
18681TIP3   OH277457   2.683   2.999  16.550  0.0777 -0.0568  0.3173
18681TIP3    H177458   2.643   3.054  16.483  2.4605  0.2512 -0.9235
18681TIP3    H277459   2.708   2.919  16.505  2.4419  0.4787  0.5919
18682TIP3   OH277460   0.070   5.658   4.843  0.0976  0.3188 -0.0952
18682TIP3    H177461   0.103   5.574   4.813 -0.1631  0.8787 -2.0371
18682TIP3    H277462  -0.020   5.641   4.870  0.3975 -0.2412  0.5398
18683TIP3   OH277463   2.651   2.883  11.737 -0.1088  0.1781 -0.5583
18683TIP3    H177464   2.565   2.901  11.774 -0.2589 -1.8714  0.1590
18683TIP3    H277465   2.677   2.799  11.775  1.2560 -0.2971 -2.4228
18684TIP3   OH277466   1.940   1.115  16.363  0.5379  0.1446  0.0287
18684TIP3    H177467   1.954   1.161  16.281  0.9087 -0.0319 -0.0072
18684TIP3    H277468   1.992   1.163  16.427  1.3779 -0.5461 -0.1222
18685TIP3   OH277469   4.083   3.570  17.215  0.2387 -0.0763 -0.3059
18685TIP3    H177470   4.171   3.598  17.187  0.9383 -0.3962  1.5073
18685TIP3    H277471   4.042   3.650  17.247  0.0210  0.0031 -0.7920
18686TIP3   OH277472   3.331   3.338  13.202  0.3728 -0.0946 -0.1702
18686TIP3    H177473   3.260   3.395  13.230  1.1357  1.0783 -0.5641
18686TIP3    H277474   3.395   3.343  13.273  1.1902  0.8977 -0.9510
18687TIP3   OH277475   5.755   2.765   2.033 -0.7126  0.2447 -0.1242
18687TIP3    H177476   5.831   2.712   2.058 -0.5006  0.9973  0.8484
18687TIP3    H277477   5.698   2.705   1.985 -0.0032 -0.5974  0.0828
18688TIP3   OH277478   4.778   4.757   6.547  0.2507  0.2227 -0.3266
18688TIP3    H177479   4.778   4.852   6.544  1.3426  0.2111 -1.0938
18688TIP3    H277480   4.698   4.731   6.501 -1.6751  0.7966  2.5386
18689TIP3   OH277481   0.885   0.045   1.969 -0.2432  0.0405  0.0698
18689TIP3    H177482   0.838   0.113   1.921  2.3482  1.4963 -0.4876
18689TIP3    H277483   0.864  -0.036   1.922 -2.8766  0.4909  0.3840
18690TIP3   OH277484   6.476   3.619  12.249 -0.0893  0.0945 -0.0635
18690TIP3    H177485   6.501   3.695  12.197  0.1938  0.4826  0.6358
18690TIP3    H277486   6.544   3.554  12.231  0.5471  0.5735  0.5790
18691TIP3   OH277487   0.486   3.224  16.549 -0.0624 -0.1546 -0.3381
18691TIP3    H177488   0.549   3.242  16.618  0.3825 -0.0912 -0.7564
18691TIP3    H277489   0.415   3.286  16.565 -0.1506 -0.4221  0.3009
18692TIP3   OH277490   1.241   6.009   3.788 -0.3121  0.3168  0.1461
18692TIP3    H177491   1.164   6.042   3.834  0.8363  0.4214  2.0507
18692TIP3    H277492   1.302   5.986   3.858  2.5005  2.9183 -1.3810
18693TIP3   OH277493   0.858   4.624  15.201 -0.2803 -0.2172 -0.6435
18693TIP3    H177494   0.951   4.610  15.221  0.0168 -1.9909 -3.0055
18693TIP3    H277495   0.859   4.670  15.117 -1.5325  1.3107  0.1721
18694TIP3   OH277496   6.593   5.540   2.892 -0.2237 -1.0634  0.4767
18694TIP3    H177497   6.592   5.633   2.868  0.2810 -1.6772 -2.0917
18694TIP3    H277498   6.644   5.536   2.972  0.2243  0.8134  0.3055
18695TIP3   OH277499   4.683   0.219   3.012  0.1583 -0.3166 -0.7447
18695TIP3    H177500   4.751   0.281   2.986 -0.5949  0.9562  0.2620
18695TIP3    H277501   4.641   0.194   2.931 -0.3279  1.4381 -1.0541
18696TIP3   OH277502   5.002   4.334  14.607  0.3151 -0.3470  0.1310
18696TIP3    H177503   5.011   4.429  14.609 -0.1717 -0.3059  1.7848
18696TIP3    H277504   4.941   4.317  14.535  0.0649  0.6287  0.1029
18697TIP3   OH277505   6.613   2.433  12.396 -0.7616 -0.6492 -0.1175
18697TIP3    H177506   6.663   2.351  12.403 -0.7308 -0.5829  0.4425
18697TIP3    H277507   6.553   2.418  12.323 -0.9203 -1.2582  0.1340
18698TIP3   OH277508   6.019   2.244   4.284  0.6672  0.1967  0.0174
18698TIP3    H177509   6.009   2.318   4.224 -2.2006 -0.4943 -0.4308
18698TIP3    H277510   6.111   2.219   4.277  1.2658  2.6168 -1.1354
18699TIP3   OH277511   3.324   1.763   0.912  0.7006 -0.3867 -0.0832
18699TIP3    H177512   3.315   1.838   0.971  2.2345  0.5607 -1.0138
18699TIP3    H277513   3.376   1.796   0.839  1.0147 -2.2531 -0.7387
18700TIP3   OH277514   3.272   6.348   4.589 -0.0083 -0.2851  0.4012
18700TIP3    H177515   3.274   6.387   4.676 -0.4053 -0.2165  0.3799
18700TIP3    H277516   3.183   6.366   4.556  0.8720  1.7969 -0.9834
18701TIP3   OH277517   1.945   5.140  12.188 -0.3002 -0.7278 -0.1329
18701TIP3    H177518   2.001   5.191  12.129 -0.9254  0.5585  0.3508
18701TIP3    H277519   1.960   5.049  12.164  0.5119 -0.2859 -1.3264
18702TIP3   OH277520   2.789   4.716   0.415  0.1750 -0.6427  0.3119
18702TIP3    H177521   2.746   4.801   0.409 -0.8109 -1.2098 -0.7805
18702TIP3    H277522   2.718   4.652   0.417  0.8977 -1.4322  1.5132
18703TIP3   OH277523   5.483   6.636  11.411  0.0685 -0.5373 -0.5375
18703TIP3    H177524   5.545   6.603  11.347  0.3465 -0.2236 -0.4350
18703TIP3    H277525   5.440   6.558  11.446 -0.0208 -0.7119 -1.0400
18704TIP3   OH277526   1.767   0.301   1.963 -0.6731  0.0057 -0.4175
18704TIP3    H177527   1.853   0.310   2.003 -1.7417  0.7876  1.8277
18704TIP3    H277528   1.768   0.214   1.923  1.2918  0.1932 -0.8162
18705TIP3   OH277529   0.321   5.578  15.554 -0.4031 -0.0724  0.1180
18705TIP3    H177530   0.270   5.528  15.490  1.1773  0.2076 -1.3974
18705TIP3    H277531   0.411   5.549  15.540 -0.0272  0.0163  2.2290
18706TIP3   OH277532   4.394   5.881  10.971  0.0039  0.2157  0.3916
18706TIP3    H177533   4.315   5.832  10.948  0.2222 -2.1933  4.4171
18706TIP3    H277534   4.365   5.943  11.038  1.0116  1.3276 -0.1763
18707TIP3   OH277535   0.418   6.147   3.818 -0.2099  0.4820  0.0160
18707TIP3    H177536   0.484   6.216   3.830 -1.9295  2.1047  0.4950
18707TIP3    H277537   0.415   6.101   3.902  0.5528  0.1897 -0.1194
18708TIP3   OH277538   5.981   6.166   3.685  0.2743  0.3219 -0.8087
18708TIP3    H177539   5.902   6.132   3.644 -1.0831  0.3789  1.6619
18708TIP3    H277540   6.009   6.237   3.629 -0.2198 -1.0566 -2.8463
18709TIP3   OH277541   4.421   5.219  12.958 -0.5963 -0.1863 -0.4100
18709TIP3    H177542   4.413   5.124  12.952 -1.4528 -0.1173 -0.4720
18709TIP3    H277543   4.340   5.247  12.999 -0.8657  0.6200 -1.4598
18710TIP3   OH277544   6.763   6.460  15.221 -0.3017  0.2871  0.6004
18710TIP3    H177545   6.670   6.447  15.236 -0.2021  0.5562  1.4696
18710TIP3    H277546   6.797   6.494  15.304  0.5058  0.5194  0.1877
18711TIP3   OH277547   3.313   5.790  12.230  0.3247  0.7828 -0.1179
18711TIP3    H177548   3.340   5.881  12.218 -0.0852  0.8666 -0.4435
18711TIP3    H277549   3.239   5.780  12.169  1.2839 -0.1715 -1.1431
18712TIP3   OH277550   1.857   6.331  13.643  0.2899 -0.4314 -0.1199
18712TIP3    H177551   1.788   6.379  13.598  0.0495 -2.9389 -2.5802
18712TIP3    H277552   1.810   6.272  13.703  0.3124 -1.3797 -1.0198
18713TIP3   OH277553   4.810   4.343  16.655 -0.5423 -0.9197  0.4429
18713TIP3    H177554   4.900   4.339  16.687 -0.9889 -0.6351  1.7771
18713TIP3    H277555   4.792   4.437  16.647 -0.7683 -0.9710  0.3489
18714TIP3   OH277556   1.124   0.266  14.716 -0.0512  0.6359  0.1012
18714TIP3    H177557   1.032   0.288  14.728  0.1272  1.7832 -0.5592
18714TIP3    H277558   1.169   0.305  14.791  0.0848  1.4096 -0.3703
18715TIP3   OH277559   4.377   4.437   1.479 -0.9590  0.3341  0.3489
18715TIP3    H177560   4.426   4.448   1.397 -1.2452  0.6510  0.2170
18715TIP3    H277561   4.343   4.348   1.474  0.3122 -0.1967  0.8370
18716TIP3   OH277562   0.184   0.504   0.184  0.3542 -0.2178  0.0461
18716TIP3    H177563   0.144   0.429   0.140 -0.1569  0.4944 -0.7215
18716TIP3    H277564   0.178   0.575   0.120 -0.1264  0.7528  1.1526
18717TIP3   OH277565   3.057   1.868   3.085 -0.1192 -0.3084 -0.0746
18717TIP3    H177566   3.137   1.841   3.131 -1.0832 -1.6734  0.8699
18717TIP3    H277567   3.025   1.943   3.135 -0.3063 -0.7980  0.5550
18718TIP3   OH277568   5.261   1.709   2.902 -0.0897 -0.1335  0.1188
18718TIP3    H177569   5.223   1.622   2.899 -0.9388  0.1189  2.8265
18718TIP3    H277570   5.282   1.729   2.810 -1.8543 -2.2780 -0.7843
18719TIP3   OH277571   4.221   2.640   1.509 -0.4957  0.1904  0.0938
18719TIP3    H177572   4.208   2.683   1.594 -1.1932  0.1664  0.0018
18719TIP3    H277573   4.188   2.551   1.521 -0.1353  0.0347 -0.0581
18720TIP3   OH277574   2.898   5.124  14.602  0.2763 -0.7179  1.0022
18720TIP3    H177575   2.902   5.205  14.653 -0.5554 -1.9117  3.0107
18720TIP3    H277576   2.824   5.137  14.543  0.2123  0.0330  1.2434
18721TIP3   OH277577   5.090   3.612   4.032 -0.3834 -0.3937 -0.6360
18721TIP3    H177578   5.141   3.588   3.955 -0.2722 -1.0192 -0.3710
18721TIP3    H277579   5.009   3.563   4.024 -0.7721  0.2664 -0.8330
18722TIP3   OH277580   1.006   4.225  15.293 -0.3344  0.7092  0.5657
18722TIP3    H177581   0.985   4.188  15.207  1.4010  3.4419 -1.1200
18722TIP3    H277582   0.958   4.171  15.355  0.1087 -2.7091 -1.9338
18723TIP3   OH277583   1.171   1.247   3.900  0.2762  0.3259 -0.2618
18723TIP3    H177584   1.175   1.194   3.979  0.9637  2.4229  1.1402
18723TIP3    H277585   1.255   1.232   3.857  0.3786  0.1084  0.0103
18724TIP3   OH277586   3.412   6.602   6.238 -0.0718  0.0373 -0.1253
18724TIP3    H177587   3.359   6.661   6.184  1.9022  2.8675  0.8717
18724TIP3    H277588   3.491   6.587   6.187 -0.6074 -1.9240 -0.4246
18725TIP3   OH277589   0.625   1.290   3.648 -0.1105  0.2351 -0.1259
18725TIP3    H177590   0.653   1.215   3.700  1.9733  0.5502 -0.7729
18725TIP3    H277591   0.662   1.366   3.693 -1.6458  0.8562  0.1485
18726TIP3   OH277592   1.590   1.226   1.611 -0.3925  0.2035 -0.4418
18726TIP3    H177593   1.554   1.294   1.554 -0.7854  0.0402 -0.3876
18726TIP3    H277594   1.590   1.147   1.557  0.4191  0.3281 -0.6310
18727TIP3   OH277595   4.814   0.321  11.813 -0.1303 -0.3707  0.4974
18727TIP3    H177596   4.834   0.400  11.761 -1.7881 -0.0323  0.3539
18727TIP3    H277597   4.785   0.257  11.748  1.0835 -1.0887  0.6322
18728TIP3   OH277598   1.208   1.970  12.036  1.2768 -0.2160 -0.6870
18728TIP3    H177599   1.295   1.997  12.066  0.8236  2.1852 -1.4997
18728TIP3    H277600   1.225   1.910  11.964  2.2616 -0.6787 -0.0833
18729TIP3   OH277601   2.881   5.223   4.245 -0.0292 -0.0100  0.2353
18729TIP3    H177602   2.860   5.200   4.155 -1.1901  0.0999  0.4612
18729TIP3    H277603   2.803   5.197   4.295  0.7735 -0.4807  1.2662
18730TIP3   OH277604   4.665   2.584   0.219 -0.3677  0.5963 -0.1973
18730TIP3    H177605   4.640   2.676   0.229 -0.9199  0.2489  1.8111
18730TIP3    H277606   4.582   2.536   0.223  0.1045 -0.1408  0.8923
18731TIP3   OH277607   5.135   6.355   5.730  0.5959 -0.6569  0.0788
18731TIP3    H177608   5.051   6.359   5.683  0.6463 -0.0137  0.0368
18731TIP3    H277609   5.188   6.423   5.690  1.0294 -0.8451  0.3275
18732TIP3   OH277610   1.150   2.982  11.662 -0.0084  0.1651 -0.6005
18732TIP3    H177611   1.064   2.947  11.686  0.4939 -0.8481 -0.2725
18732TIP3    H277612   1.130   3.068  11.624 -1.0371  0.6101  0.8917
18733TIP3   OH277613   5.604   0.713  16.709  0.4075  0.2300 -0.0951
18733TIP3    H177614   5.542   0.700  16.781 -0.6938  0.0218 -1.0641
18733TIP3    H277615   5.690   0.710  16.751 -0.1028 -2.2554  0.8840
18734TIP3   OH277616   6.348   6.484   6.390  0.1822  0.6593 -0.0120
18734TIP3    H177617   6.440   6.482   6.418 -0.1985 -0.0514  1.2406
18734TIP3    H277618   6.304   6.536   6.457 -0.6120 -0.3719  0.2718
18735TIP3   OH277619   4.189   4.789  15.104 -0.6462  0.1857  0.1046
18735TIP3    H177620   4.232   4.870  15.078  0.3702 -1.0229 -2.1365
18735TIP3    H277621   4.254   4.743  15.156  0.2896 -0.9472 -1.9907
18736TIP3   OH277622   2.998   1.480  13.945  0.3398  0.1012 -0.0333
18736TIP3    H177623   2.962   1.544  13.884  1.5366  0.0134 -0.8334
18736TIP3    H277624   3.001   1.398  13.896  0.5611 -0.1492  0.3945
18737TIP3   OH277625   1.288   6.078  14.141  0.0689 -0.3559  0.5554
18737TIP3    H177626   1.215   6.086  14.080 -0.6351 -0.6816  1.3577
18737TIP3    H277627   1.271   5.997  14.189  1.2088 -0.6912  0.4162
18738TIP3   OH277628   2.497   1.288   2.942 -0.7792  0.3130  0.2311
18738TIP3    H177629   2.588   1.268   2.919 -1.3465 -0.4570 -1.4066
18738TIP3    H277630   2.501   1.315   3.034  0.8446 -1.5693  0.7518
18739TIP3   OH277631   5.220   5.205  12.072  0.0275  0.3613 -0.0868
18739TIP3    H177632   5.288   5.265  12.103 -0.6705  1.1402 -0.0416
18739TIP3    H277633   5.144   5.262  12.054 -0.4141 -0.4163 -0.7094
18740TIP3   OH277634   0.865   1.177  16.256  0.2212 -0.0310  0.1342
18740TIP3    H177635   0.796   1.182  16.189 -0.5449  0.4795  0.9420
18740TIP3    H277636   0.929   1.243  16.230  0.9110 -1.1764 -1.1679
18741TIP3   OH277637   2.096   1.911   4.324  0.3084 -0.4042 -0.0690
18741TIP3    H177638   2.021   1.914   4.383 -0.6370  1.3488 -1.3183
18741TIP3    H277639   2.062   1.945   4.241  2.5323  0.5441 -0.6126
18742TIP3   OH277640   2.038   6.523  17.107  0.1641  1.0864 -0.1816
18742TIP3    H177641   1.950   6.535  17.071  1.0181  1.0950 -2.3235
18742TIP3    H277642   2.095   6.573  17.049  1.8511 -0.7058 -0.1204
18743TIP3   OH277643   5.537   6.012  15.724  1.2083 -0.2044 -0.2192
18743TIP3    H177644   5.537   6.107  15.710 -0.6621 -0.0294  0.8093
18743TIP3    H277645   5.508   6.001  15.814 -0.5298 -1.8226 -0.9347
18744TIP3   OH277646   5.884   2.055  15.841  0.0251  0.1161 -0.0318
18744TIP3    H177647   5.793   2.055  15.811  0.3926  0.2311 -1.2034
18744TIP3    H277648   5.922   2.133  15.799  1.2352 -1.1654 -1.4037
18745TIP3   OH277649   1.735   4.528  12.885  0.2743  0.2949  0.0519
18745TIP3    H177650   1.783   4.495  12.809 -0.6047  0.2455 -0.4878
18745TIP3    H277651   1.723   4.621  12.867 -1.3419 -0.0380 -0.6340
18746TIP3   OH277652   5.508   5.622  15.597  0.2304 -0.3086 -0.0141
18746TIP3    H177653   5.535   5.644  15.507 -2.7323  1.1151 -0.6070
18746TIP3    H277654   5.557   5.683  15.652 -0.7772  1.3818 -0.9547
18747TIP3   OH277655   6.369   6.184  13.487  0.4832  0.1547 -0.0709
18747TIP3    H177656   6.346   6.095  13.460  0.1996 -0.4377  2.0301
18747TIP3    H277657   6.285   6.226  13.504  0.6378  0.6784 -0.5928
18748TIP3   OH277658   3.693   6.284  14.688  0.2124  0.0918 -0.4236
18748TIP3    H177659   3.753   6.355  14.666  0.7203  0.7232  2.7686
18748TIP3    H277660   3.745   6.205  14.676  0.4718  0.4061 -1.4301
18749TIP3   OH277661   3.518   0.177  12.055  0.1453 -0.0496 -0.4632
18749TIP3    H177662   3.557   0.200  12.139  0.3224 -1.2058 -0.2152
18749TIP3    H277663   3.428   0.154  12.075 -0.1104  0.6796 -0.7489
18750TIP3   OH277664   0.444   2.731  10.922  0.3380 -0.3191 -0.6126
18750TIP3    H177665   0.504   2.779  10.979 -0.9147  0.0054  0.4863
18750TIP3    H277666   0.499   2.667  10.877  1.7591  1.0841 -0.8957
18751TIP3   OH277667   4.224   4.510  16.663  0.1647 -0.2840 -0.1179
18751TIP3    H177668   4.178   4.478  16.741 -0.2872 -0.2853 -0.3825
18751TIP3    H277669   4.215   4.605  16.668  0.6630 -0.2498  0.1519
18752TIP3   OH277670   5.093   6.020   4.190 -0.2222 -0.8824  0.0654
18752TIP3    H177671   5.108   5.945   4.247  1.4557  1.0691  2.3069
18752TIP3    H277672   4.999   6.021   4.176 -0.4383 -2.4964  1.2579
18753TIP3   OH277673   6.424   0.445   3.780  0.0213 -0.3346 -0.4920
18753TIP3    H177674   6.404   0.458   3.872  0.9325  0.0480 -0.3425
18753TIP3    H277675   6.467   0.359   3.777 -0.3960 -0.5397 -0.6209
18754TIP3   OH277676   6.197   5.871   4.311  0.7759  0.7104 -0.2600
18754TIP3    H177677   6.203   5.964   4.331  0.5723  1.1699 -2.2954
18754TIP3    H277678   6.103   5.853   4.310  0.8382  0.0410  1.9704
18755TIP3   OH277679   6.719   6.463  13.608 -0.7336  0.1308  0.3553
18755TIP3    H177680   6.663   6.501  13.676 -0.6956  0.5881  0.1316
18755TIP3    H277681   6.686   6.502  13.527 -1.6330 -1.4095 -0.0367
18756TIP3   OH277682   1.235   5.449  14.637  0.1689 -0.4644  0.3324
18756TIP3    H177683   1.203   5.376  14.689 -0.5895 -2.2263 -2.5259
18756TIP3    H277684   1.331   5.439  14.638  0.0157 -2.1752 -0.9670
18757TIP3   OH277685   0.197   5.155   6.202 -0.1744  0.1481 -0.5536
18757TIP3    H177686   0.199   5.072   6.156 -2.1663 -0.7044  0.7992
18757TIP3    H277687   0.109   5.190   6.185 -0.5777  0.2992  1.6909
18758TIP3   OH277688   0.608   0.093   5.656 -0.2051 -0.1867 -0.7074
18758TIP3    H177689   0.638   0.172   5.611  2.7720 -0.1254  1.2408
18758TIP3    H277690   0.535   0.123   5.711  0.2905  1.0283 -0.7079
18759TIP3   OH277691   0.137   2.457   4.788 -0.0173 -0.3076  0.0699
18759TIP3    H177692   0.146   2.440   4.694 -0.9421 -1.0337  0.0989
18759TIP3    H277693   0.195   2.531   4.805 -0.1192  0.0681 -1.1515
18760TIP3   OH277694   0.510   4.836   5.097  0.2177  0.8319 -1.0379
18760TIP3    H177695   0.590   4.885   5.076  1.4243 -0.3464  0.6430
18760TIP3    H277696   0.505   4.768   5.030  1.7025 -0.2707 -0.0645
18761TIP3   OH277697   6.110   5.783  15.123 -0.5992  0.0072 -0.4540
18761TIP3    H177698   6.016   5.766  15.116 -0.2322 -1.6768 -1.5278
18761TIP3    H277699   6.130   5.771  15.216 -0.9335 -2.4149 -0.6846
18762TIP3   OH277700   1.024   1.188   5.751  0.0854  0.5228 -0.3743
18762TIP3    H177701   0.999   1.126   5.819 -0.2373  2.0650  0.9461
18762TIP3    H277702   0.949   1.188   5.691 -0.4486  0.5625  0.2852
18763TIP3   OH277703   5.923   0.836  12.684 -0.1460  0.3264 -0.8767
18763TIP3    H177704   6.011   0.862  12.713  0.1589 -1.4051 -0.2102
18763TIP3    H277705   5.865   0.901  12.724  0.6996  0.6321 -0.1260
18764TIP3   OH277706   0.480   1.645   1.169 -0.2997  0.2480  0.5509
18764TIP3    H177707   0.399   1.618   1.213  0.7064 -2.2840  0.9185
18764TIP3    H277708   0.531   1.689   1.237  0.2133 -1.5089  1.3354
18765TIP3   OH277709   2.990   6.191  16.229 -0.3156 -0.5055  0.3612
18765TIP3    H177710   3.063   6.138  16.196 -0.4216  0.4870 -1.5296
18765TIP3    H277711   2.919   6.128  16.242 -0.1714 -0.9608 -1.0370
18766TIP3   OH277712   2.905   6.651  11.405 -0.0851  0.1949  0.1790
18766TIP3    H177713   2.918   6.724  11.466 -0.8943  1.2300 -0.8601
18766TIP3    H277714   2.990   6.609  11.399  0.2487  0.7093  1.2515
18767TIP3   OH277715   2.864   1.972   3.651  0.0366 -0.3345  0.0103
18767TIP3    H177716   2.851   1.909   3.580 -0.8621 -0.6921  0.4996
18767TIP3    H277717   2.792   2.033   3.642 -0.0753 -0.3809  0.6293
18768TIP3   OH277718   4.728   5.471   2.759  0.8048  0.1309  0.3369
18768TIP3    H177719   4.775   5.462   2.676 -1.0149 -2.0807 -0.5223
18768TIP3    H277720   4.784   5.428   2.823  1.7430  0.9497  0.0841
18769TIP3   OH277721   6.546   2.722  10.575 -0.2094 -0.8630  0.2988
18769TIP3    H177722   6.589   2.661  10.516 -0.4172 -0.4953 -0.2374
18769TIP3    H277723   6.614   2.786  10.596 -0.4737 -0.2955 -0.5308
18770TIP3   OH277724   2.245   4.937  14.734  0.4938  0.1355 -0.2812
18770TIP3    H177725   2.214   5.006  14.792  0.1279 -0.7411  0.5745
18770TIP3    H277726   2.166   4.891  14.706  0.8069 -0.4514 -0.1996
18771TIP3   OH277727   6.222   3.141   0.834  0.9586  0.0919  0.3534
18771TIP3    H177728   6.134   3.126   0.799  0.2361  0.7598  1.8149
18771TIP3    H277729   6.251   3.054   0.863 -0.4632  0.3272  2.6015
18772TIP3   OH277730   4.840   1.654   3.542 -0.0115 -0.7565 -0.5922
18772TIP3    H177731   4.892   1.727   3.507  1.0981 -0.7675  0.9958
18772TIP3    H277732   4.873   1.577   3.496  0.7500 -0.6379 -0.2454
18773TIP3   OH277733   6.719   2.869   2.873 -0.1233  0.3955 -0.0353
18773TIP3    H177734   6.781   2.796   2.870 -0.4458  0.0842  0.7432
18773TIP3    H277735   6.715   2.893   2.966  1.1179  2.3895 -0.4628
18774TIP3   OH277736   6.028   6.198  11.742 -0.1418  0.1883  0.1358
18774TIP3    H177737   6.005   6.187  11.650 -0.4531  2.4662 -0.0755
18774TIP3    H277738   6.110   6.149  11.752 -1.2348 -1.8731 -0.8163
18775TIP3   OH277739   1.041   6.746  15.532 -0.5120 -0.4169  0.3338
18775TIP3    H177740   1.003   6.811  15.592  0.3390 -1.4328  2.0021
18775TIP3    H277741   0.968   6.689  15.509 -1.2509  1.0397 -1.0805
18776TIP3   OH277742   3.389   3.218  10.797 -0.4605 -0.0014 -0.2251
18776TIP3    H177743   3.452   3.146  10.787 -1.2852 -0.8262  0.4868
18776TIP3    H277744   3.444   3.297  10.800  0.3540 -0.4259 -2.6516
18777TIP3   OH277745   6.104   6.578   4.183 -0.0390  0.7598  0.1736
18777TIP3    H177746   6.121   6.493   4.223  1.1209  0.5883 -0.6763
18777TIP3    H277747   6.049   6.624   4.248 -0.1202 -0.3718  0.9236
18778TIP3   OH277748   0.652   1.496   1.636  0.8208 -0.3348  0.0273
18778TIP3    H177749   0.726   1.454   1.680  0.8203  0.0362  0.3909
18778TIP3    H277750   0.634   1.440   1.561  1.2354 -0.6285  0.1414
18779TIP3   OH277751   6.726   6.208   3.075 -0.3680 -0.2359 -0.1262
18779TIP3    H177752   6.713   6.152   2.999  0.3979 -1.2747  0.5063
18779TIP3    H277753   6.669   6.172   3.142 -1.5669  1.0941 -0.4011
18780TIP3   OH277754   6.007   2.305  11.144 -0.1779  0.0348  0.0608
18780TIP3    H177755   5.922   2.303  11.098 -0.3212 -0.1852  0.3384
18780TIP3    H277756   6.061   2.364  11.091 -1.1874  1.8898  1.0579
18781TIP3   OH277757   3.827   1.655   3.788 -0.2181 -0.3022  0.5116
18781TIP3    H177758   3.918   1.624   3.786 -0.0625  0.1103  0.9660
18781TIP3    H277759   3.823   1.711   3.865 -0.8029 -0.1360  0.3630
18782TIP3   OH277760   4.419   2.557   4.393  0.4570  0.2318  0.2662
18782TIP3    H177761   4.374   2.627   4.346 -1.5679 -0.6230  0.8907
18782TIP3    H277762   4.396   2.478   4.345 -0.1690 -0.4337  1.6517
18783TIP3   OH277763   1.976   3.548  15.132  0.0851 -0.5504  0.5142
18783TIP3    H177764   2.037   3.481  15.102  0.1599 -0.5585  0.6830
18783TIP3    H277765   2.017   3.631  15.105  0.2421 -0.5491  0.7580
18784TIP3   OH277766   4.349   1.502   4.347 -0.3709 -0.0637 -0.2594
18784TIP3    H177767   4.302   1.504   4.263 -1.9569  2.9018  0.6271
18784TIP3    H277768   4.370   1.593   4.365  2.8865 -1.0111  1.0212
18785TIP3   OH277769   2.225   1.694  15.568  0.1152 -0.6079 -0.2715
18785TIP3    H177770   2.317   1.706  15.595  0.5057 -0.5167 -1.6029
18785TIP3    H277771   2.227   1.704  15.473 -1.1475 -1.4826 -0.3952
18786TIP3   OH277772   6.007   4.936   0.152 -0.0529  0.8600 -0.8639
18786TIP3    H177773   5.962   4.940   0.067 -0.2076  0.5973 -0.7980
18786TIP3    H277774   5.946   4.977   0.213  0.5830  2.1527 -1.0889
18787TIP3   OH277775   5.290   1.598  11.261 -0.0830 -0.2401 -0.2826
18787TIP3    H177776   5.379   1.565  11.253 -0.1083  0.1353 -2.5605
18787TIP3    H277777   5.294   1.660  11.334  1.6977  0.3251 -0.8350
18788TIP3   OH277778   3.789   3.030  10.989 -0.1677  0.5482  0.2376
18788TIP3    H177779   3.845   3.096  11.030  2.3568 -2.6456  2.1874
18788TIP3    H277780   3.813   3.032  10.897  1.3207  0.9641  0.6267
18789TIP3   OH277781   1.413   2.323  13.773  0.3751 -0.0309 -0.0385
18789TIP3    H177782   1.399   2.398  13.715  1.3452 -0.7778 -1.2570
18789TIP3    H277783   1.361   2.253  13.734 -1.9787  0.4501  2.0901
18790TIP3   OH277784   3.915   1.170   2.631 -0.2393 -0.0696  0.0575
18790TIP3    H177785   3.825   1.167   2.664 -0.2062  0.3322  0.1860
18790TIP3    H277786   3.938   1.263   2.632 -0.3794 -0.0166 -1.5184
18791TIP3   OH277787   5.774   3.664   5.779  0.2080 -0.4956 -0.1971
18791TIP3    H177788   5.777   3.723   5.703  0.0334 -1.0580 -0.6488
18791TIP3    H277789   5.716   3.593   5.751  3.3265 -2.7871 -1.0427
18792TIP3   OH277790   3.924   4.443  14.230 -0.0336  0.1976  0.4869
18792TIP3    H177791   3.854   4.433  14.294 -0.2745  2.4924  0.6382
18792TIP3    H277792   4.002   4.461  14.283  0.2301 -0.1981  0.2343
18793TIP3   OH277793   4.385   4.170  11.586 -0.3876 -0.0447 -0.3170
18793TIP3    H177794   4.459   4.185  11.527  0.4009 -2.1930  0.0919
18793TIP3    H277795   4.391   4.077  11.610 -1.8182  0.3294  1.6377
18794TIP3   OH277796   4.755   5.992   3.785  0.2922  0.4658  0.6098
18794TIP3    H177797   4.790   5.979   3.696 -2.1258 -1.8521 -0.0478
18794TIP3    H277798   4.767   6.086   3.801  0.4400  1.0114 -2.3298
18795TIP3   OH277799   0.354   1.712   6.734  0.4945  0.1177  0.3852
18795TIP3    H177800   0.274   1.676   6.698  0.7551 -0.9614  0.8677
18795TIP3    H277801   0.359   1.801   6.698  0.3149 -0.6262 -1.5282
18796TIP3   OH277802   0.236   2.860   3.999  0.1654  0.1282  0.4732
18796TIP3    H177803   0.141   2.848   3.991  0.3524 -1.1520  0.0625
18796TIP3    H277804   0.246   2.933   4.060 -1.0997  1.1403 -0.4846
18797TIP3   OH277805   5.704   2.673  15.494  0.0102  0.1131  0.1955
18797TIP3    H177806   5.660   2.757  15.500 -1.7675 -0.6387 -1.7826
18797TIP3    H277807   5.715   2.657  15.400 -2.4580 -3.1981  0.3633
18798TIP3   OH277808   0.935   1.180   4.658 -0.2067 -0.3701  0.1217
18798TIP3    H177809   0.970   1.254   4.708  0.8844 -0.4106 -0.5527
18798TIP3    H277810   0.888   1.220   4.586 -0.8042 -0.3206  0.5400
18799TIP3   OH277811   5.341   4.481  15.630  0.2105  0.1424  0.3665
18799TIP3    H177812   5.382   4.411  15.680  0.1133 -0.1088  0.0987
18799TIP3    H277813   5.410   4.546  15.620  1.0421 -0.9623 -1.4082
18800TIP3   OH277814   2.630   1.386  11.996 -0.1472  0.1260 -0.1352
18800TIP3    H177815   2.600   1.471  11.963  0.8862  0.3994 -0.3888
18800TIP3    H277816   2.707   1.366  11.942  1.1230  0.2326  1.6140
18801TIP3   OH277817   5.758   1.330  12.988 -0.1972 -0.0428  0.4512
18801TIP3    H177818   5.691   1.290  12.934  1.2891  0.6970 -2.0361
18801TIP3    H277819   5.770   1.269  13.061 -1.0265 -1.9503 -0.9582
18802TIP3   OH277820   0.584   2.719   4.935 -0.3219  0.4775  0.4892
18802TIP3    H177821   0.620   2.749   5.018 -0.6577  1.4022  0.3008
18802TIP3    H277822   0.634   2.766   4.868 -1.4028  1.2473  0.2121
18803TIP3   OH277823   2.342   4.358  16.502 -0.1060  0.0308 -0.0182
18803TIP3    H177824   2.370   4.391  16.587 -4.3798  1.0492  1.0860
18803TIP3    H277825   2.311   4.435  16.455 -2.5440 -1.2380 -0.5453
18804TIP3   OH277826   3.525   3.821   2.830  0.4799  0.1681 -0.5913
18804TIP3    H177827   3.589   3.778   2.774  0.1188 -1.2458  0.0755
18804TIP3    H277828   3.444   3.820   2.778 -0.0808 -1.9367  0.2724
18805TIP3   OH277829   4.370   5.826  13.708  1.1222  0.0382 -0.3397
18805TIP3    H177830   4.282   5.861  13.720  0.5711 -0.9816 -1.2623
18805TIP3    H277831   4.399   5.802  13.796  1.7979  3.4024  0.4191
18806TIP3   OH277832   6.375   6.010  14.715 -0.5046  0.2965  0.0886
18806TIP3    H177833   6.470   5.999  14.715 -0.5729 -0.2572 -0.1469
18806TIP3    H277834   6.351   6.007  14.808 -0.2095  1.1465  0.2003
18807TIP3   OH277835   2.270   3.590   1.468  0.0577  0.0885 -0.5234
18807TIP3    H177836   2.208   3.574   1.540  0.4722  0.8494  0.0179
18807TIP3    H277837   2.242   3.531   1.398 -0.6422 -0.3230  0.0952
18808TIP3   OH277838   1.889   4.141   0.261 -0.8795  0.1306 -0.8164
18808TIP3    H177839   1.798   4.159   0.284 -1.0890  0.0011 -1.5270
18808TIP3    H277840   1.897   4.172   0.171 -0.0164  0.8483 -0.5041
18809TIP3   OH277841   2.663   5.906  14.084 -0.4629  0.0151  0.7400
18809TIP3    H177842   2.667   5.966  14.009 -1.7879  0.1897  0.7856
18809TIP3    H277843   2.575   5.920  14.120  0.0014 -0.4072  2.0486
18810TIP3   OH277844   1.608   2.923   0.816 -0.0931 -0.4182  0.1693
18810TIP3    H177845   1.693   2.907   0.857  0.2337 -1.2768 -0.7926
18810TIP3    H277846   1.579   3.007   0.851  1.6271  0.3800 -0.2506
18811TIP3   OH277847   0.865   1.091  11.826 -0.0528  0.1956 -0.3510
18811TIP3    H177848   0.950   1.049  11.839 -0.2625  0.3837  1.8579
18811TIP3    H277849   0.801   1.026  11.854 -0.5393  0.7435 -0.1804
18812TIP3   OH277850   1.340   2.604   0.238  0.2627  0.3780 -0.4704
18812TIP3    H177851   1.433   2.619   0.222  0.0594  0.9245 -1.2201
18812TIP3    H277852   1.317   2.532   0.179  0.4162 -0.3696  0.3906
18813TIP3   OH277853   0.285   6.434  13.894 -0.5511  0.1864  0.2481
18813TIP3    H177854   0.285   6.341  13.872  1.5925 -0.0286  0.9962
18813TIP3    H277855   0.243   6.477  13.820 -2.3939 -1.4603  0.3094
18814TIP3   OH277856   0.917   3.690  13.906 -0.0491 -0.0145 -0.1684
18814TIP3    H177857   0.900   3.699  13.812  1.5568  0.1049 -0.4628
18814TIP3    H277858   1.003   3.730  13.918 -0.6107  0.7213  1.5010
18815TIP3   OH277859   6.601   0.069   4.033  0.0346  0.5421  0.6062
18815TIP3    H177860   6.567   0.012   3.964 -2.4435  0.5651  1.7389
18815TIP3    H277861   6.610   0.010   4.109 -0.8012  1.2529  1.2699
18816TIP3   OH277862   4.728   2.021  12.063  0.1577 -0.3883 -0.1126
18816TIP3    H177863   4.680   1.943  12.035 -0.4057  0.2131 -0.8094
18816TIP3    H277864   4.814   2.011  12.022 -0.2355 -0.1567 -1.0081
18817TIP3   OH277865   0.152   4.939   2.173 -0.1699 -0.7307 -0.0006
18817TIP3    H177866   0.190   5.018   2.136 -0.9547 -0.1313  0.4684
18817TIP3    H277867   0.183   4.937   2.264 -1.5712 -0.0288  0.5014
18818TIP3   OH277868   0.851   5.857   2.731  0.0302 -0.2267  0.1283
18818TIP3    H177869   0.927   5.914   2.734  0.3594 -0.6776  0.3342
18818TIP3    H277870   0.787   5.906   2.679  0.4063  0.2122  0.0748
18819TIP3   OH277871   0.225   3.901   1.627 -0.3623 -0.3836  0.3874
18819TIP3    H177872   0.268   3.915   1.543  0.8112 -0.7810  0.9050
18819TIP3    H277873   0.234   3.808   1.644  0.9215 -0.0482  1.7246
18820TIP3   OH277874   4.980   0.898   3.639  0.6413  0.8346 -0.1713
18820TIP3    H177875   4.899   0.943   3.614  0.4713  0.3882 -0.4313
18820TIP3    H277876   5.047   0.939   3.584  0.1045 -0.8101 -2.0957
18821TIP3   OH277877   3.992   1.940   1.622 -0.2746  0.0013  0.0377
18821TIP3    H177878   3.928   1.920   1.691 -1.4195  0.1811 -0.9589
18821TIP3    H277879   4.007   2.034   1.630 -0.4683  0.0361 -0.0123
18822TIP3   OH277880   3.892   1.634   2.542 -0.4286  0.3009  0.3021
18822TIP3    H177881   3.825   1.566   2.549  0.3932 -0.3639  2.1343
18822TIP3    H277882   3.972   1.593   2.575  0.7901  1.2238 -1.4150
18823TIP3   OH277883   3.451   4.053   0.109 -0.1900 -0.4628  0.9072
18823TIP3    H177884   3.452   3.958   0.095 -2.2008 -0.4642  0.5798
18823TIP3    H277885   3.543   4.076   0.123  0.2553 -2.5427  1.6274
18824TIP3   OH277886   6.720   3.448  16.492 -0.2366 -0.2760 -0.2791
18824TIP3    H177887   6.749   3.363  16.526  0.6351 -0.0778 -0.5271
18824TIP3    H277888   6.778   3.466  16.418  1.0258  1.5628  1.1271
18825TIP3   OH277889   5.007   5.623  15.814  0.1106 -1.0790  0.0741
18825TIP3    H177890   4.921   5.642  15.852  1.3838 -0.2135  2.6178
18825TIP3    H277891   5.043   5.554  15.869  2.3821  0.8468  1.1165
18826TIP3   OH277892   1.147   5.243  17.158 -0.4713  0.3026 -0.1836
18826TIP3    H177893   1.070   5.270  17.208  0.9715  2.3080  0.9994
18826TIP3    H277894   1.208   5.209  17.223  0.0690 -0.3038 -0.9936
18827TIP3   OH277895   1.850   3.491   6.051 -0.1367 -0.1082  0.1034
18827TIP3    H177896   1.820   3.482   6.141 -2.2626  0.1283 -0.5551
18827TIP3    H277897   1.821   3.578   6.024 -0.0652 -0.4147 -0.9949
18828TIP3   OH277898   3.740   6.255  15.317 -0.0884 -0.9870  0.5964
18828TIP3    H177899   3.688   6.335  15.320  0.2845 -0.7807  1.8076
18828TIP3    H277900   3.823   6.281  15.278 -1.1952 -1.5132 -2.2495
18829TIP3   OH277901   2.823   4.557  11.483  0.1576 -0.1025 -0.1559
18829TIP3    H177902   2.762   4.620  11.444  1.3307  2.8915  2.6121
18829TIP3    H277903   2.795   4.549  11.574  2.8568  0.0623  0.7376
18830TIP3   OH277904   3.471   6.270  14.837 -0.5741  0.0442  0.0646
18830TIP3    H177905   3.445   6.345  14.783 -1.9148  0.6797  1.5529
18830TIP3    H277906   3.565   6.262  14.822 -0.2415  2.5297  0.4754
18831TIP3   OH277907   2.622   3.258  14.667 -0.4349 -0.4718  0.0199
18831TIP3    H177908   2.611   3.308  14.747  2.1351  2.3711 -1.3020
18831TIP3    H277909   2.702   3.207  14.681 -0.5757 -0.7960 -0.3369
18832TIP3   OH277910   1.394   6.332   1.164 -0.3756  0.4563  0.1894
18832TIP3    H177911   1.320   6.352   1.107  1.2888  0.5474 -2.0245
18832TIP3    H277912   1.377   6.381   1.244 -3.6810 -1.1000  0.5417
18833TIP3   OH277913   6.605   3.420   3.014 -0.2473 -0.0470 -0.0202
18833TIP3    H177914   6.534   3.480   3.038  0.8173  1.1747  0.1125
18833TIP3    H277915   6.634   3.383   3.098 -0.1388  0.1262  0.0193
18834TIP3   OH277916   1.652   6.141  13.351  0.0263  0.8824  0.4985
18834TIP3    H177917   1.729   6.085  13.341 -0.3433 -0.3802  4.1613
18834TIP3    H277918   1.678   6.224  13.312  3.2431  0.4823  1.6953
18835TIP3   OH277919   4.640   6.619  15.889  0.4655  0.0804 -0.3332
18835TIP3    H177920   4.732   6.623  15.861  1.3163 -1.4246  2.0943
18835TIP3    H277921   4.590   6.646  15.812  2.9270  0.4912 -1.8290
18836TIP3   OH277922   0.714   6.251   2.124  0.1728  0.6165 -0.3182
18836TIP3    H177923   0.802   6.256   2.163  0.5532 -1.1245 -0.9141
18836TIP3    H277924   0.655   6.254   2.199  0.8343 -0.6118  0.2648
18837TIP3   OH277925   1.027   6.769   0.191  0.2233 -0.3243 -0.1876
18837TIP3    H177926   1.021   6.855   0.148  0.7795 -0.1330  0.1119
18837TIP3    H277927   1.108   6.773   0.241  1.4108 -1.8522 -1.9321
18838TIP3   OH277928   3.722   3.390  15.805 -1.1319  0.1713 -0.5352
18838TIP3    H177929   3.710   3.417  15.714 -0.5525 -0.1886 -0.7221
18838TIP3    H277930   3.687   3.462  15.856 -2.5992 -0.1670 -1.0472
18839TIP3   OH277931   6.023   2.330  12.938  0.2124 -0.1933  0.3379
18839TIP3    H177932   6.104   2.367  12.904  1.1090 -1.7365  0.7485
18839TIP3    H277933   6.047   2.243  12.969 -2.1126 -1.7019 -1.8981
18840TIP3   OH277934   5.249   6.115   5.161 -0.0646 -0.1755 -0.3908
18840TIP3    H177935   5.262   6.123   5.066 -0.1495  0.4635 -0.3484
18840TIP3    H277936   5.321   6.059   5.190  2.0376  2.5101 -0.2924
18841TIP3   OH277937   4.013   2.540   5.615 -0.5922  0.4683  0.3444
18841TIP3    H177938   4.039   2.457   5.576  1.2155  1.7652 -1.3748
18841TIP3    H277939   4.064   2.546   5.696  1.7539  1.3089 -1.1443
18842TIP3   OH277940   1.987   2.667  16.474 -0.4485 -0.1533 -0.2115
18842TIP3    H177941   1.963   2.737  16.535  0.7156 -0.5259  0.6982
18842TIP3    H277942   2.018   2.597  16.530  1.0053 -0.3628 -1.2562
18843TIP3   OH277943   2.285   3.508  16.575  0.4420 -0.3092 -0.4712
18843TIP3    H177944   2.367   3.514  16.624 -0.3227  1.7068  0.6174
18843TIP3    H277945   2.219   3.494  16.642 -0.4067  0.5811 -1.1236
18844TIP3   OH277946   4.660   6.286  12.739 -0.4398  0.2002 -0.1249
18844TIP3    H177947   4.645   6.380  12.730  2.1574  0.5472 -1.1719
18844TIP3    H277948   4.751   6.279  12.769  0.0477 -2.0380 -1.9872
18845TIP3   OH277949   3.623   5.779   0.470  0.6670 -0.0344  0.1600
18845TIP3    H177950   3.706   5.733   0.459 -0.7846 -2.2476 -1.9627
18845TIP3    H277951   3.594   5.797   0.380  0.0494  2.9998  0.9056
18846TIP3   OH277952   0.025   2.576   2.835  0.2498 -0.1261  0.0272
18846TIP3    H177953   0.107   2.562   2.789  0.5301  0.0960  0.4599
18846TIP3    H277954  -0.040   2.585   2.765  0.7073  0.4241 -0.3269
18847TIP3   OH277955   0.583   5.907  12.357 -0.1237  0.1478 -0.2192
18847TIP3    H177956   0.626   5.987  12.328  1.4874 -1.0206 -1.0748
18847TIP3    H277957   0.538   5.874  12.279 -0.2044 -0.1718 -0.0392
18848TIP3   OH277958   0.552   2.882   4.150 -0.6260  0.2471  0.2460
18848TIP3    H177959   0.456   2.891   4.145 -0.6896 -0.5254  0.0131
18848TIP3    H277960   0.582   2.896   4.060 -0.8268 -2.8295 -0.3773
18849TIP3   OH277961   0.567   5.102   2.798 -0.7592 -0.5399  0.2377
18849TIP3    H177962   0.641   5.050   2.827  0.4513 -0.3202 -2.3169
18849TIP3    H277963   0.580   5.188   2.838  0.9740 -0.1833 -1.0393
18850TIP3   OH277964   4.171   0.066   2.407 -0.0403 -0.1777 -0.4139
18850TIP3    H177965   4.079   0.051   2.384 -0.2383 -0.9374  0.8091
18850TIP3    H277966   4.175   0.160   2.427 -1.1853 -0.6111  2.1385
18851TIP3   OH277967   4.559   4.480  15.567 -0.2844  0.0619  0.1588
18851TIP3    H177968   4.511   4.467  15.486  1.3583 -0.0858 -0.8141
18851TIP3    H277969   4.506   4.541  15.617 -2.9581 -2.3118  0.3781
18852TIP3   OH277970   1.268   1.671   2.818 -0.3191  0.2859 -0.2989
18852TIP3    H177971   1.311   1.731   2.879  2.9683 -3.3513  1.1639
18852TIP3    H277972   1.296   1.701   2.732 -0.6031  2.1587  0.2173
18853TIP3   OH277973   5.556   6.656  16.270  0.0617  0.5693 -0.2900
18853TIP3    H177974   5.508   6.697  16.199  0.8328  0.8217 -0.6657
18853TIP3    H277975   5.620   6.599  16.227  0.4787  0.6649  0.1897
18854TIP3   OH277976   0.067   2.955  11.013  0.4788 -0.5345  0.3238
18854TIP3    H177977   0.063   3.044  10.979  1.3828 -1.1896 -1.5674
18854TIP3    H277978  -0.019   2.918  10.993  0.0298 -0.0529  1.2936
18855TIP3   OH277979   1.251   2.679   0.839 -0.1817  0.2039  0.5250
18855TIP3    H177980   1.247   2.686   0.935  0.1097  0.7964  0.4958
18855TIP3    H277981   1.345   2.683   0.819 -0.1529 -1.3174  0.3138
18856TIP3   OH277982   5.681   5.352  11.294  0.3341  0.2130 -0.5102
18856TIP3    H177983   5.623   5.341  11.369  1.4311 -1.7169  0.0751
18856TIP3    H277984   5.685   5.265  11.254  2.6240  0.3810 -0.6847
18857TIP3   OH277985   6.271   4.505  13.004 -0.3369 -0.4926 -0.3561
18857TIP3    H177986   6.202   4.456  13.050 -0.6943  0.7985  0.5111
18857TIP3    H277987   6.244   4.505  12.913 -1.6063  0.1969  0.0150
18858TIP3   OH277988   6.422   4.320   1.088  0.2080 -0.6655 -0.4986
18858TIP3    H177989   6.499   4.264   1.080  0.5091 -0.0716 -1.9463
18858TIP3    H277990   6.353   4.262   1.120  1.5342 -0.9313  1.9683
18859TIP3   OH277991   6.371   3.948   3.767 -0.4777 -0.3206  0.1400
18859TIP3    H177992   6.313   4.010   3.722  0.5067  0.8791  0.5017
18859TIP3    H277993   6.436   3.924   3.701 -0.2605 -0.1648  0.2944
18860TIP3   OH277994   6.667   0.756   5.631  0.3936 -0.0075 -0.2692
18860TIP3    H177995   6.630   0.671   5.656  1.1068 -1.0253 -2.4729
18860TIP3    H277996   6.725   0.735   5.557 -0.1908  2.5356 -1.4850
18861TIP3   OH277997   0.523   1.746   4.406  0.2829  0.2524 -0.4047
18861TIP3    H177998   0.573   1.683   4.457 -0.5994  0.6028  0.8968
18861TIP3    H277999   0.461   1.693   4.356 -0.2122  0.0749  0.4078
18862TIP3   OH278000   6.374   1.581  13.109  0.2796  0.3202 -0.5390
18862TIP3    H178001   6.368   1.525  13.031  0.1396  0.3549 -0.5529
18862TIP3    H278002   6.295   1.634  13.107  1.4403  2.0687 -1.6999
18863TIP3   OH278003   0.962   0.741   1.784 -0.4366 -0.0734  0.3289
18863TIP3    H178004   0.957   0.808   1.852 -1.9821 -0.3550  0.4935
18863TIP3    H278005   0.930   0.785   1.705  0.3675 -0.0571  0.0034
18864TIP3   OH278006   2.911   5.054  16.693 -0.1723 -0.1364 -0.9534
18864TIP3    H178007   2.929   5.014  16.777 -0.8718  1.0655 -0.2099
18864TIP3    H278008   2.917   5.148  16.710 -3.6947  0.2272 -1.4447
18865TIP3   OH278009   3.331   4.861   2.444  0.2557  0.7017  0.9305
18865TIP3    H178010   3.324   4.867   2.348 -0.2496  0.2795  0.9367
18865TIP3    H278011   3.425   4.866   2.461  0.1822  4.3735  0.6802
18866TIP3   OH278012   4.584   1.909  15.685  0.1200  0.2366 -0.7961
18866TIP3    H178013   4.672   1.903  15.647  0.1064 -0.3878 -0.7419
18866TIP3    H278014   4.526   1.885  15.613 -0.1882  3.2086 -1.5894
18867TIP3   OH278015   1.660   0.404   1.672  0.5828  0.2147  0.6368
18867TIP3    H178016   1.733   0.350   1.703  0.4072  0.2137  1.0487
18867TIP3    H278017   1.645   0.468   1.741 -0.1445 -0.1114  0.7928
18868TIP3   OH278018   6.376   5.955  17.136 -0.5441 -0.5323  0.0580
18868TIP3    H178019   6.360   6.030  17.079  0.3555  1.3557  2.2366
18868TIP3    H278020   6.443   5.985  17.197 -1.7172 -2.3971  2.3399
18869TIP3   OH278021   4.345   4.885  11.492  0.3010  0.4956 -0.5810
18869TIP3    H178022   4.300   4.870  11.575  0.9960  0.9559 -0.1232
18869TIP3    H278023   4.284   4.852  11.426  1.1365 -3.0166  0.3022
18870TIP3   OH278024   6.263   4.208  14.539  0.1220  0.3165  0.1374
18870TIP3    H178025   6.253   4.228  14.446  0.7228  1.8249  0.3892
18870TIP3    H278026   6.242   4.291  14.583 -0.0808 -0.3712  1.3398
18871TIP3   OH278027   0.036   4.302   2.269 -0.3132  0.0184  0.6584
18871TIP3    H178028   0.036   4.306   2.365  2.4725  1.7128  0.6433
18871TIP3    H278029   0.114   4.352   2.243  1.0666 -3.4815 -2.3539
18872TIP3   OH278030   2.733   1.392   1.265 -0.5787 -0.2654 -0.3022
18872TIP3    H178031   2.666   1.455   1.293  0.5513  1.3270 -1.1040
18872TIP3    H278032   2.684   1.311   1.250 -2.0137  0.3078  1.0693
18873TIP3   OH278033   0.012   5.709   3.216  0.2463  0.0123 -0.4710
18873TIP3    H178034   0.055   5.790   3.189 -0.1594  0.3133 -0.2187
18873TIP3    H278035  -0.067   5.738   3.262  0.8993 -0.4904  0.9966
18874TIP3   OH278036   5.924   6.201  11.460  0.4959 -0.0954 -0.1539
18874TIP3    H178037   5.961   6.156  11.384 -0.8947 -2.3372  0.4804
18874TIP3    H278038   5.847   6.247  11.425  0.9366  0.4397 -0.4477
18875TIP3   OH278039   0.601   3.615   3.752  0.5080  0.2123  0.1805
18875TIP3    H178040   0.597   3.709   3.769  0.8212  0.3407 -0.4471
18875TIP3    H278041   0.558   3.605   3.667  0.3400 -0.2308  0.3199
18876TIP3   OH278042   6.531   3.412   0.979 -0.2922 -0.3873 -0.0059
18876TIP3    H178043   6.530   3.338   1.040  0.2464 -0.3084  0.1043
18876TIP3    H278044   6.440   3.438   0.972 -0.5441 -1.3404 -0.3850
18877TIP3   OH278045   3.383   6.502  15.008  0.2256 -0.3682  0.0340
18877TIP3    H178046   3.388   6.591  14.973  0.1977  0.2191  1.5107
18877TIP3    H278047   3.427   6.448  14.942  0.9123  0.8406 -0.5142
18878TIP3   OH278048   5.167   6.448   1.448 -0.1033 -0.2906  0.4487
18878TIP3    H178049   5.139   6.458   1.539 -1.3084 -1.0570  0.1827
18878TIP3    H278050   5.144   6.531   1.406 -1.3179 -0.6244  0.4207
18879TIP3   OH278051   5.022   3.930  11.847 -0.1417 -0.5203  0.2223
18879TIP3    H178052   5.113   3.899  11.847  0.9492  2.3912  2.3923
18879TIP3    H278053   5.028   4.020  11.816 -2.1338  0.0312  1.3762
18880TIP3   OH278054   0.599   2.374  14.416 -0.1693  0.1352  0.2655
18880TIP3    H178055   0.670   2.381  14.352 -1.2211 -0.7716 -1.0507
18880TIP3    H278056   0.559   2.288  14.398 -2.3889  1.1633  0.0997
18881TIP3   OH278057   1.913   1.060  14.875 -0.0628  0.0615 -0.1908
18881TIP3    H178058   1.826   1.025  14.894 -0.3648  0.6971 -0.3903
18881TIP3    H278059   1.968   0.983  14.861 -0.5190 -0.3446  0.2693
18882TIP3   OH278060   1.696   2.617   2.457 -0.7680 -0.1699  0.3986
18882TIP3    H178061   1.684   2.632   2.551 -1.7959 -0.6723  0.3512
18882TIP3    H278062   1.634   2.677   2.416  1.4688  1.9110 -0.0503
18883TIP3   OH278063   2.128   1.694   1.800 -0.5755  0.3098 -0.6182
18883TIP3    H178064   2.116   1.652   1.885 -1.2911 -0.0843 -0.9091
18883TIP3    H278065   2.135   1.788   1.820  1.0629  0.0660  0.0328
18884TIP3   OH278066   2.279   2.964   6.266  0.3714  0.4501 -0.8002
18884TIP3    H178067   2.353   2.999   6.315  0.3223 -2.1340  1.2371
18884TIP3    H278068   2.202   2.989   6.316  0.1127  0.2325 -1.0791
18885TIP3   OH278069   1.810   4.640  14.092  0.8375 -0.0217 -0.6430
18885TIP3    H178070   1.839   4.599  14.173  0.2216  1.6624  0.4519
18885TIP3    H278071   1.884   4.632  14.033  1.9245  0.2409  0.6583
18886TIP3   OH278072   5.450   5.681  13.498 -0.4802  0.1592  0.5108
18886TIP3    H178073   5.377   5.684  13.560  0.7167  0.4861  1.9459
18886TIP3    H278074   5.525   5.712  13.548  0.0243  3.0828 -1.8926
18887TIP3   OH278075   1.786   2.887   6.646 -0.7521 -0.2617  0.3362
18887TIP3    H178076   1.855   2.821   6.641 -1.0497 -0.6876  1.7837
18887TIP3    H278077   1.731   2.869   6.569 -0.1823 -0.9612  0.0818
18888TIP3   OH278078   2.649   1.593   4.940  0.1508 -0.0990 -0.0610
18888TIP3    H178079   2.625   1.665   4.997  0.2401  1.2367 -1.6544
18888TIP3    H278080   2.646   1.630   4.852  1.1785 -1.7766 -0.8410
18889TIP3   OH278081   2.321   4.970   5.501  0.4801 -0.1082 -0.1303
18889TIP3    H178082   2.359   4.884   5.523  0.6541  0.4052  1.6390
18889TIP3    H278083   2.361   4.992   5.416  0.3990 -1.7863 -0.6312
18890TIP3   OH278084   0.213   6.004   2.229  0.1965  0.3686 -0.0966
18890TIP3    H178085   0.157   6.072   2.264 -0.9731 -1.8878  2.6093
18890TIP3    H278086   0.157   5.955   2.169  0.4921  0.6468 -0.6012
18891TIP3   OH278087   5.189   4.794  11.547  0.2033  0.1866  0.3206
18891TIP3    H178088   5.197   4.764  11.638  0.1671 -3.2551 -0.7479
18891TIP3    H278089   5.133   4.728  11.506  0.9531  1.2397 -2.4319
18892TIP3   OH278090   4.609   2.996   0.916  0.0795  0.4047  0.2579
18892TIP3    H178091   4.687   3.052   0.916 -1.1759  2.2143 -1.0012
18892TIP3    H278092   4.576   3.001   1.006  2.0269 -1.3247  1.1270
18893TIP3   OH278093   4.030   0.933  15.007  0.1476 -0.1632 -0.0841
18893TIP3    H178094   4.046   1.027  14.993  1.1273 -0.3100  0.0273
18893TIP3    H278095   4.004   0.900  14.921 -0.8323  0.3297  0.0116
18894TIP3   OH278096   4.923   6.662  13.153 -0.5037  0.2427 -0.0869
18894TIP3    H178097   4.929   6.756  13.139  0.1558  0.0519 -1.1503
18894TIP3    H278098   5.001   6.640  13.204 -1.4279  0.4942  1.4594
18895TIP3   OH278099   2.344   5.611  13.334 -0.8828 -0.3128  0.2680
18895TIP3    H178100   2.432   5.648  13.326 -1.0125 -0.3780 -1.9898
18895TIP3    H278101   2.348   5.556  13.412  1.5300 -1.4507 -0.5786
18896TIP3   OH278102   2.011   6.373  12.232  0.6075  0.3998 -0.5529
18896TIP3    H178103   1.935   6.411  12.189  1.1500  0.5288 -1.4300
18896TIP3    H278104   2.079   6.440  12.224  0.9573  0.0846 -0.2362
18897TIP3   OH278105   0.011   3.981  14.568 -0.2246  0.3629 -0.7165
18897TIP3    H178106  -0.056   3.914  14.581  1.2085 -0.4834  2.8048
18897TIP3    H278107  -0.012   4.051  14.628  2.2927 -0.1944  0.9916
18898TIP3   OH278108   1.137   3.510  13.273  0.2735  0.0216  0.2361
18898TIP3    H178109   1.051   3.467  13.272 -0.5168  1.5700 -1.0099
18898TIP3    H278110   1.196   3.446  13.233 -0.8665  0.0287 -1.5369
18899TIP3   OH278111   2.146   5.003   6.257 -0.7400  0.4738  0.0066
18899TIP3    H178112   2.215   5.060   6.292  1.8064 -2.1615 -0.5155
18899TIP3    H278113   2.144   5.023   6.164  0.1014 -0.2235 -0.1651
18900TIP3   OH278114   2.966   5.287   2.713 -0.4258  0.4628 -0.3868
18900TIP3    H178115   2.999   5.204   2.676  0.9053  0.6427  0.3505
18900TIP3    H278116   2.949   5.267   2.805 -1.4926  0.6367 -0.5445
18901TIP3   OH278117   0.395   5.460  16.602  0.3819 -0.4680  0.2212
18901TIP3    H178118   0.318   5.457  16.658  1.2512 -0.3716  1.4425
18901TIP3    H278119   0.466   5.425  16.656  1.3997  0.3631 -0.5429
18902TIP3   OH278120   1.813   5.634   1.155  0.2574 -0.1949  0.2109
18902TIP3    H178121   1.903   5.665   1.168 -0.0131  1.1050 -0.8470
18902TIP3    H278122   1.774   5.699   1.097 -0.8472 -1.6790 -0.7485
18903TIP3   OH278123   3.621   0.898   3.464 -0.1697  0.2084  0.8448
18903TIP3    H178124   3.569   0.897   3.384 -0.3332  1.5377  0.9258
18903TIP3    H278125   3.579   0.833   3.522 -0.4801 -0.2250  0.1352
18904TIP3   OH278126   4.331   4.176  14.878  0.4714 -0.6773 -0.4383
18904TIP3    H178127   4.384   4.100  14.853  0.5086 -0.6062 -0.5800
18904TIP3    H278128   4.247   4.140  14.903 -0.0633 -0.6375 -2.0816
18905TIP3   OH278129   4.565   6.635  13.365  0.4345 -0.0238  0.1209
18905TIP3    H178130   4.502   6.563  13.374  0.9088 -0.3602  0.8279
18905TIP3    H278131   4.625   6.606  13.297  0.2814 -0.0472 -0.0038
18906TIP3   OH278132   3.001   3.176   0.656  0.4293 -0.1892 -0.3488
18906TIP3    H178133   3.039   3.136   0.578  0.8006 -2.1591  0.8056
18906TIP3    H278134   2.908   3.186   0.636  0.4988 -0.8364 -0.9947
18907TIP3   OH278135   0.410   0.863   2.632 -0.4812  0.3712  0.1743
18907TIP3    H178136   0.502   0.862   2.656 -0.7017  0.2463  1.0319
18907TIP3    H278137   0.404   0.806   2.556  0.0303 -0.1708  0.5404
18908TIP3   OH278138   5.500   6.750   5.866  0.1297  0.6656  0.3632
18908TIP3    H178139   5.427   6.692   5.887 -0.3914  1.7029  1.4451
18908TIP3    H278140   5.549   6.757   5.948  0.5724  1.2144  0.0487
18909TIP3   OH278141   4.215   4.998   1.799 -0.2586 -0.0506  0.4491
18909TIP3    H178142   4.275   4.927   1.775 -0.6964 -0.4492  0.5245
18909TIP3    H278143   4.271   5.065   1.837  0.2717  0.0142 -0.4470
18910TIP3   OH278144   3.721   1.897   1.713 -0.2383  0.4233 -0.5338
18910TIP3    H178145   3.714   1.853   1.798 -0.5531  0.7066 -0.4084
18910TIP3    H278146   3.711   1.990   1.734 -1.1681  0.4341 -0.9713
18911TIP3   OH278147   1.878   2.770  13.743 -0.8200  0.1147  0.1829
18911TIP3    H178148   1.830   2.727  13.672 -1.1804  0.6483  0.1020
18911TIP3    H278149   1.873   2.709  13.816  0.6281 -1.0060 -0.6379
18912TIP3   OH278150   5.489   2.750   3.384  0.3630  0.0108  0.0154
18912TIP3    H178151   5.451   2.716   3.466  2.5328 -1.7381  0.3399
18912TIP3    H278152   5.414   2.788   3.338 -1.4659 -1.6772  1.4462
18913TIP3   OH278153   1.021   0.108  11.146  0.1019  0.1055 -0.4344
18913TIP3    H178154   1.112   0.134  11.157 -0.5671  1.6942  1.6020
18913TIP3    H278155   0.989   0.162  11.073  0.5772  0.0374 -0.6959
18914TIP3   OH278156   2.373   2.765   4.144 -0.0307  0.0022 -0.0362
18914TIP3    H178157   2.462   2.801   4.141 -0.3146  0.8660  1.2547
18914TIP3    H278158   2.332   2.797   4.064  0.6263  0.1414 -0.3208
18915TIP3   OH278159   0.777   3.202  12.013  0.1323  0.2228 -0.0062
18915TIP3    H178160   0.745   3.124  11.967  0.3053 -1.7292  3.0345
18915TIP3    H278161   0.721   3.208  12.091  4.3290 -0.7839  3.2587
18916TIP3   OH278162   6.093   2.689   0.251  0.6550 -0.0719  0.3074
18916TIP3    H178163   6.021   2.727   0.301  0.7018 -0.8748  1.0007
18916TIP3    H278164   6.164   2.752   0.261  0.4485  0.1023  0.7075
18917TIP3   OH278165   1.877   1.036  12.601  0.4604  0.1131  0.0076
18917TIP3    H178166   1.862   1.007  12.511 -0.1207 -1.4440  0.5858
18917TIP3    H278167   1.960   1.083  12.598  0.2059  0.4888 -1.4274
18918TIP3   OH278168   3.165   0.807   0.281 -0.2036 -0.4721 -0.0586
18918TIP3    H178169   3.088   0.826   0.228 -0.5874 -0.8012  0.3748
18918TIP3    H278170   3.202   0.728   0.242  0.1836 -0.0477 -0.5553
18919TIP3   OH278171   1.258   3.640   3.439  0.1943  0.2535  0.0355
18919TIP3    H178172   1.174   3.599   3.460  0.0005  1.4147  1.6720
18919TIP3    H278173   1.236   3.732   3.424  1.2429  0.7205  1.2019
18920TIP3   OH278174   4.429   3.428   3.947  0.2380  0.2284  0.9442
18920TIP3    H178175   4.439   3.376   3.867  3.2045  1.4029  0.5084
18920TIP3    H278176   4.374   3.502   3.920  1.6911  0.9197 -0.1866
18921TIP3   OH278177   5.439   1.291   5.149  0.1715  0.1234 -0.1914
18921TIP3    H178178   5.525   1.330   5.130  0.0263  0.3410 -0.4095
18921TIP3    H278179   5.416   1.244   5.069 -0.3544  0.8743 -0.4756
18922TIP3   OH278180   0.618   6.044  15.785 -0.1792  0.3351 -0.0882
18922TIP3    H178181   0.571   6.099  15.722  1.9570  1.7772 -0.4753
18922TIP3    H278182   0.704   6.084  15.793  0.9913 -2.1975  0.6717
18923TIP3   OH278183   3.417   1.389  14.515  0.2984  0.0349  0.5585
18923TIP3    H178184   3.379   1.433  14.439  1.3997 -0.9635 -0.5705
18923TIP3    H278185   3.361   1.417  14.588 -0.6199  1.1915 -0.5557
18924TIP3   OH278186   3.087   4.482  12.008  0.3983  0.8969  0.0648
18924TIP3    H178187   3.103   4.571  12.039 -2.7634  1.6479 -0.2599
18924TIP3    H278188   3.079   4.490  11.913 -2.1345  0.7166  0.2148
18925TIP3   OH278189   1.317   3.958  13.592  0.3722 -0.4287 -0.3824
18925TIP3    H178190   1.231   3.997  13.605  0.9323  0.8407 -0.4090
18925TIP3    H278191   1.299   3.865  13.578 -0.8896 -0.4294  1.0088
18926TIP3   OH278192   2.366   1.828   4.390 -0.3454 -0.3562 -0.4897
18926TIP3    H178193   2.285   1.867   4.357 -0.4304 -0.3803 -0.3098
18926TIP3    H278194   2.353   1.820   4.484  0.5450  1.2385 -0.2168
18927TIP3   OH278195   1.511   1.732   5.841 -0.3250 -0.2669  0.4868
18927TIP3    H178196   1.520   1.716   5.935 -0.4649  0.2531  0.5865
18927TIP3    H278197   1.521   1.826   5.831 -0.0204 -0.3557 -0.0561
18928TIP3   OH278198   2.808   3.419   4.109 -0.1665 -0.7748  0.1794
18928TIP3    H178199   2.833   3.362   4.181 -1.4807 -0.3757  0.9781
18928TIP3    H278200   2.828   3.508   4.140  0.3256 -0.6783 -0.3994
18929TIP3   OH278201   4.188   5.336   1.781 -0.5540  0.1376  0.4211
18929TIP3    H178202   4.247   5.261   1.772 -1.6496 -0.4619 -1.9184
18929TIP3    H278203   4.246   5.408   1.808  1.0674 -0.7236 -0.6675
18930TIP3   OH278204   3.311   2.847   2.848  0.2234 -0.3074 -0.0997
18930TIP3    H178205   3.233   2.835   2.794  1.2194  0.4284 -1.7475
18930TIP3    H278206   3.278   2.855   2.937 -1.8048  2.4886 -1.0298
18931TIP3   OH278207   4.382   1.168   5.249  0.3911 -0.4502  0.4302
18931TIP3    H178208   4.340   1.252   5.265  2.4045  0.3187  1.8412
18931TIP3    H278209   4.424   1.146   5.332  1.2807 -2.0373 -0.4189
18932TIP3   OH278210   3.877   5.240   1.468 -1.0406 -0.1809  0.0156
18932TIP3    H178211   3.872   5.146   1.487  1.3527 -0.2035  0.7596
18932TIP3    H278212   3.891   5.281   1.553 -1.8124  0.8449 -0.3425
18933TIP3   OH278213   4.790   4.773   3.243  0.0517 -0.5874 -0.0364
18933TIP3    H178214   4.762   4.773   3.151 -1.7275 -1.5740  0.4717
18933TIP3    H278215   4.882   4.746   3.240  0.3064  0.3673 -1.5939
18934TIP3   OH278216   1.542   0.127  11.847  0.1994  0.5724  0.1211
18934TIP3    H178217   1.524   0.176  11.766 -0.4361 -1.0311 -0.7399
18934TIP3    H278218   1.484   0.051  11.842  2.9983 -1.6601  0.1700
18935TIP3   OH278219   1.854   1.415  17.078  0.0244  0.5462 -0.0188
18935TIP3    H178220   1.862   1.332  17.029 -0.2034 -0.2191  1.2211
18935TIP3    H278221   1.763   1.441  17.065 -0.3086 -0.1730  0.7920
18936TIP3   OH278222   5.214   1.786   1.844 -0.2193 -0.2204  0.0617
18936TIP3    H178223   5.191   1.856   1.905 -0.2182 -1.2998  1.3160
18936TIP3    H278224   5.151   1.795   1.772 -0.3821  0.8982  0.3286
18937TIP3   OH278225   5.930   5.377  13.219 -0.1522  0.1314 -0.1502
18937TIP3    H178226   5.889   5.461  13.239  0.2688  0.1347  0.7571
18937TIP3    H278227   5.867   5.312  13.250 -0.3028  0.1143 -0.4901
18938TIP3   OH278228   6.260   0.599   3.124 -0.2288 -0.4945 -0.2271
18938TIP3    H178229   6.348   0.623   3.094  0.2422 -0.7246  0.9380
18938TIP3    H278230   6.233   0.672   3.179 -0.6169 -0.5906 -0.2895
18939TIP3   OH278231   1.706   2.537   4.574  0.2817 -0.2646  0.3507
18939TIP3    H178232   1.713   2.463   4.634  1.6894 -0.0988  0.4133
18939TIP3    H278233   1.795   2.571   4.568 -0.1923  0.8779 -0.3707
18940TIP3   OH278234   5.592   5.641  10.614 -0.1334  0.5404  0.2031
18940TIP3    H178235   5.618   5.666  10.525  1.3556 -0.7065  0.2743
18940TIP3    H278236   5.611   5.547  10.620  1.5242  0.9806  2.4381
18941TIP3   OH278237   6.121   6.109   4.545 -0.3027 -0.1012 -0.2860
18941TIP3    H178238   6.170   6.152   4.475  0.2599 -0.8874 -0.3750
18941TIP3    H278239   6.068   6.179   4.583  0.1027  0.5300 -0.8718
18942TIP3   OH278240   5.803   4.956   5.079 -0.3202 -0.0511  0.0695
18942TIP3    H178241   5.716   4.921   5.096 -0.1074 -0.7333 -0.1983
18942TIP3    H278242   5.817   5.022   5.147 -0.2662 -1.3272  1.3094
18943TIP3   OH278243   5.567   5.590  11.570 -0.5282 -0.0278 -0.3229
18943TIP3    H178244   5.520   5.672  11.580 -0.0526  0.1464  0.5336
18943TIP3    H278245   5.642   5.611  11.514 -0.7588 -0.0302 -0.6389
18944TIP3   OH278246   3.295   5.333   4.857  0.9517 -0.5859  0.6035
18944TIP3    H178247   3.256   5.420   4.869 -0.4598 -0.9911 -0.9061
18944TIP3    H278248   3.237   5.274   4.906  0.6741 -0.9472 -0.1509
18945TIP3   OH278249   4.494   3.961   5.374  0.0805  0.4072  0.0201
18945TIP3    H178250   4.509   3.880   5.423 -0.1685  1.3859  1.7655
18945TIP3    H278251   4.399   3.965   5.363  0.3414 -1.5583 -3.6615
18946TIP3   OH278252   3.392   1.934  11.403  0.0881  0.2518  0.9528
18946TIP3    H178253   3.334   1.859  11.387 -0.7571  1.0208  0.3483
18946TIP3    H278254   3.404   1.974  11.317  0.4722  0.8589  1.2826
18947TIP3   OH278255   6.418   1.724  13.744  0.0309 -0.3043  0.2265
18947TIP3    H178256   6.402   1.800  13.688 -0.1378 -1.2399 -1.0050
18947TIP3    H278257   6.331   1.692  13.767  0.1026 -0.1851  0.6703
18948TIP3   OH278258   0.174   5.190   2.356  0.1189  0.2345 -0.0081
18948TIP3    H178259   0.090   5.222   2.322  0.0630  1.6413  1.3993
18948TIP3    H278260   0.229   5.181   2.278 -0.6826  1.3313 -0.7224
18949TIP3   OH278261   5.237   6.152   2.320  0.4419  0.1115 -0.0143
18949TIP3    H178262   5.224   6.214   2.391  2.7901  1.4130 -0.6600
18949TIP3    H278263   5.205   6.197   2.242  1.5115  0.2722 -0.3747
18950TIP3   OH278264   0.931   3.321   0.539  0.0832 -0.1340 -0.0076
18950TIP3    H178265   1.006   3.370   0.572  0.0443 -0.3842  0.4615
18950TIP3    H278266   0.921   3.349   0.448 -0.9472  1.9373  0.7269
18951TIP3   OH278267   0.207   2.361   5.475  0.1578 -0.0485  0.8289
18951TIP3    H178268   0.142   2.343   5.407  1.3799  0.0521 -0.3993
18951TIP3    H278269   0.171   2.323   5.554 -1.8213  0.8130  0.3737
18952TIP3   OH278270   2.361   1.110   4.481 -0.4766  0.3610  0.0667
18952TIP3    H178271   2.447   1.112   4.439 -0.5591 -0.2651 -0.1349
18952TIP3    H278272   2.365   1.180   4.546 -0.5099  1.6915 -1.3157
18953TIP3   OH278273   2.135   4.078  13.372  0.3829 -0.1765  0.5495
18953TIP3    H178274   2.151   4.162  13.329 -3.2871  1.0207  1.3552
18953TIP3    H278275   2.076   4.031  13.314  0.3784 -1.1364  1.3106
18954TIP3   OH278276   1.367   1.986   3.700 -0.2312 -0.0283  0.1246
18954TIP3    H178277   1.289   1.996   3.646 -1.7715 -1.2851  2.0843
18954TIP3    H278278   1.361   2.055   3.765 -1.2938 -1.9767  2.1435
18955TIP3   OH278279   3.875   2.453  14.185  0.2126 -0.4670  0.2184
18955TIP3    H178280   3.898   2.543  14.210  1.4959 -0.4594 -0.9800
18955TIP3    H278281   3.918   2.440  14.101 -0.0966 -2.1686  0.3228
18956TIP3   OH278282   4.552   3.918  11.958  0.3203 -0.2374  0.0957
18956TIP3    H178283   4.567   3.987  11.893  1.9199  0.0664  0.7768
18956TIP3    H278284   4.618   3.852  11.939  0.7210 -0.1955  1.3479
18957TIP3   OH278285   1.897   5.894  15.122 -0.0720  0.3603 -0.0269
18957TIP3    H178286   1.892   5.985  15.092 -1.2889  0.1674 -0.4298
18957TIP3    H278287   1.985   5.886  15.161  0.4443  1.4108 -0.9489
18958TIP3   OH278288   4.266   4.270   0.270  0.1303 -0.1905 -0.0182
18958TIP3    H178289   4.309   4.221   0.340  1.2835  1.4385  0.4544
18958TIP3    H278290   4.264   4.360   0.302 -1.6766  0.1264 -0.9887
18959TIP3   OH278291   0.957   2.875   0.397  0.1350  0.0425  0.3083
18959TIP3    H178292   0.980   2.850   0.486 -0.5175  0.1617  0.5129
18959TIP3    H278293   1.016   2.948   0.377  0.2143  0.0837  0.6828
18960TIP3   OH278294   3.006   3.054  13.641  0.2417  0.6725  0.5849
18960TIP3    H178295   2.956   3.100  13.708 -0.1715  0.1967  0.6083
18960TIP3    H278296   3.067   2.998  13.691 -0.0014  0.3889  0.5672
18961TIP3   OH278297   2.920   5.354   4.493 -0.0633 -0.3515  0.4375
18961TIP3    H178298   2.870   5.345   4.411  2.0355  1.6294 -1.1287
18961TIP3    H278299   3.010   5.370   4.464  1.0204 -1.2994  3.1833
18962TIP3   OH278300   3.911   0.610   2.411 -0.2300  0.3267 -0.1688
18962TIP3    H178301   3.842   0.625   2.476 -0.2434  1.1181 -0.3578
18962TIP3    H278302   3.991   0.643   2.453  0.1126 -0.9824  0.2182
18963TIP3   OH278303   3.058   1.900  10.683 -0.4014  1.0823  0.7341
18963TIP3    H178304   3.146   1.863  10.683 -0.9953 -0.4105 -0.8660
18963TIP3    H278305   3.002   1.828  10.714 -1.1519  1.7584  0.9614
18964TIP3   OH278306   1.744   0.980   2.224  0.4678  0.0075  0.4399
18964TIP3    H178307   1.763   1.048   2.159  0.1412  0.6954  1.0552
18964TIP3    H278308   1.650   0.991   2.243  0.0120 -1.6985 -0.6903
18965TIP3   OH278309   2.188   5.033  12.548  0.3884  0.4540 -0.0898
18965TIP3    H178310   2.110   5.031  12.492  0.6578  1.8940 -0.5301
18965TIP3    H278311   2.247   4.969  12.509  0.4153  1.1578 -1.2194
18966TIP3   OH278312   6.687   1.467  12.721  0.1491 -0.4219  0.7391
18966TIP3    H178313   6.681   1.562  12.725  0.4514 -0.3494 -0.4768
18966TIP3    H278314   6.773   1.449  12.684 -0.1371 -1.1517  0.3992
18967TIP3   OH278315   5.347   2.124  14.554  0.1852 -0.2117 -0.2139
18967TIP3    H178316   5.422   2.178  14.527  0.1929 -0.7819 -1.3637
18967TIP3    H278317   5.377   2.034  14.541 -0.4862 -0.4505 -0.0818
18968TIP3   OH278318   1.996   3.388   4.270 -0.0546 -0.1446  0.6616
18968TIP3    H178319   2.049   3.371   4.192  0.2136 -1.2980  1.0900
18968TIP3    H278320   1.946   3.467   4.247  0.3720 -0.1876 -0.4930
18969TIP3   OH278321   4.637   5.073  14.841 -0.5200 -0.3914  0.6564
18969TIP3    H178322   4.553   5.078  14.795 -1.4941  0.2583  2.4455
18969TIP3    H278323   4.631   5.141  14.909  2.0205  0.6398 -0.0856
18970TIP3   OH278324   1.569   1.777  12.993  0.1489  0.4654  0.0512
18970TIP3    H178325   1.663   1.796  12.992  0.0554  0.9191 -1.1226
18970TIP3    H278326   1.560   1.707  13.057  1.5695 -0.9966 -1.3175
18971TIP3   OH278327   2.345   4.146  10.772  0.6660  0.1576  0.0188
18971TIP3    H178328   2.312   4.229  10.737  2.8339  1.1107  0.1957
18971TIP3    H278329   2.342   4.085  10.698  1.6549  1.1466 -0.8512
18972TIP3   OH278330   0.177   6.381   1.496 -0.2069  0.1844 -0.0830
18972TIP3    H178331   0.127   6.457   1.466 -1.8818 -0.9989 -0.3511
18972TIP3    H278332   0.134   6.354   1.577 -0.8219 -1.5982 -0.9680
18973TIP3   OH278333   5.992   2.695   1.602 -0.8386  0.1788 -0.4346
18973TIP3    H178334   6.030   2.763   1.546 -2.1493  0.5259 -0.9438
18973TIP3    H278335   5.994   2.732   1.690  0.6066 -0.0865 -0.3515
18974TIP3   OH278336   1.143   3.684  10.554 -0.2256 -0.0090 -0.3103
18974TIP3    H178337   1.208   3.633  10.601 -1.7586 -1.5961  0.1398
18974TIP3    H278338   1.070   3.692  10.615 -1.6872 -0.9166 -1.9017
18975TIP3   OH278339   3.205   0.426  13.316 -0.1441  0.1722  0.4141
18975TIP3    H178340   3.143   0.498  13.324 -0.2763  0.0192  0.7661
18975TIP3    H278341   3.288   0.462  13.347  0.1692  0.6693 -0.9697
18976TIP3   OH278342   1.202   5.362   1.655 -0.4048 -0.3024 -0.5305
18976TIP3    H178343   1.166   5.345   1.742 -1.5327  0.5543 -0.8260
18976TIP3    H278344   1.294   5.386   1.671 -0.1613 -1.7248  0.2843
18977TIP3   OH278345   1.285   1.899  14.384 -0.4266  0.0614 -0.1966
18977TIP3    H178346   1.312   1.894  14.292  0.5723 -1.6456  0.1567
18977TIP3    H278347   1.190   1.889  14.382 -0.3144 -0.8779 -0.9829
18978TIP3   OH278348   1.036   4.653  16.574  0.6597 -0.6025  0.4361
18978TIP3    H178349   1.109   4.691  16.624 -2.1020  3.2231  1.7544
18978TIP3    H278350   1.044   4.691  16.487  0.1470 -0.0876  0.6172
18979TIP3   OH278351   1.382   4.667  16.652  0.4523 -0.0298 -0.0532
18979TIP3    H178352   1.331   4.746  16.672  0.1447 -0.0085 -0.9106
18979TIP3    H278353   1.382   4.662  16.556 -1.2977 -2.2323  0.0377
18980TIP3   OH278354   0.625   3.749   1.150  0.1264  0.6306 -0.3103
18980TIP3    H178355   0.546   3.696   1.160  0.8493 -0.5336 -0.5918
18980TIP3    H278356   0.600   3.819   1.091 -1.3513  1.6671  1.4952
18981TIP3   OH278357   4.179   2.725   6.631 -1.0708  0.4903  0.2501
18981TIP3    H178358   4.216   2.761   6.550 -1.1533  0.2229  0.0969
18981TIP3    H278359   4.227   2.644   6.646 -0.7625  0.7506  0.6960
18982TIP3   OH278360   4.287   3.558   0.374 -0.1420 -0.4400  0.4836
18982TIP3    H178361   4.354   3.594   0.432 -1.0665  0.7971  0.8013
18982TIP3    H278362   4.319   3.578   0.286 -0.1920  0.3108  0.6378
18983TIP3   OH278363   6.771   2.243   0.295  0.8846 -0.0559  0.1119
18983TIP3    H178364   6.810   2.324   0.327 -0.8209  0.3751  1.2123
18983TIP3    H278365   6.788   2.243   0.201  1.4029  1.2854  0.1961
18984TIP3   OH278366   4.355   2.845   2.005 -0.0373 -0.0339 -0.6619
18984TIP3    H178367   4.384   2.784   2.073 -0.2692  0.2844 -0.2771
18984TIP3    H278368   4.385   2.930   2.035 -1.4797  0.3286 -0.1750
18985TIP3   OH278369   6.449   0.721  14.188 -0.2982  0.0310  0.7446
18985TIP3    H178370   6.441   0.709  14.283  1.6378  1.0855  1.0762
18985TIP3    H278371   6.433   0.814  14.174  1.4839  0.3000  0.3257
18986TIP3   OH278372   6.338   0.423  11.051  0.0377 -0.6820 -0.0042
18986TIP3    H178373   6.415   0.372  11.028  1.2462  0.2335  1.8372
18986TIP3    H278374   6.268   0.359  11.058  0.0958 -1.2806 -3.7805
18987TIP3   OH278375   0.466   4.665   4.879  0.4581 -0.1314 -0.1894
18987TIP3    H178376   0.391   4.681   4.821  0.0357 -0.5512  0.2454
18987TIP3    H278377   0.495   4.577   4.856  1.3033  0.3204 -0.9000
18988TIP3   OH278378   2.595   2.731   6.076  0.2078  0.7418 -0.0917
18988TIP3    H178379   2.662   2.741   6.009  0.6741 -1.4284  0.0373
18988TIP3    H278380   2.639   2.688   6.149 -0.7449  1.4467  0.9163
18989TIP3   OH278381   2.572   5.448  13.141 -0.5665 -0.6835  0.0635
18989TIP3    H178382   2.499   5.511  13.143  1.1534  1.3436  0.5857
18989TIP3    H278383   2.609   5.452  13.229  0.6361 -1.1559 -0.4176
18990TIP3   OH278384   1.500   6.421  15.473 -0.0691  0.5212  0.2673
18990TIP3    H178385   1.586   6.442  15.435 -0.3545  0.7612 -0.2589
18990TIP3    H278386   1.515   6.342  15.524  0.9172  1.7101  1.8574
18991TIP3   OH278387   1.974   5.157   4.977 -0.0851 -0.2296 -0.1542
18991TIP3    H178388   2.021   5.173   5.058  0.3637 -0.7008 -0.3230
18991TIP3    H278389   1.912   5.230   4.970  1.3956  1.0218 -0.5162
18992TIP3   OH278390   2.800   2.406   3.806 -0.0400  0.2751  0.3174
18992TIP3    H178391   2.713   2.440   3.830  0.2326  1.8694 -0.8443
18992TIP3    H278392   2.807   2.424   3.713  1.9838  1.1393  0.6227
18993TIP3   OH278393   6.786   5.163  11.778 -0.3560 -0.1641  0.1749
18993TIP3    H178394   6.764   5.149  11.686  1.5938 -0.7917 -0.2306
18993TIP3    H278395   6.825   5.250  11.780  3.8124 -1.8739 -0.4742
18994TIP3   OH278396   2.269   3.037   3.572  0.5573 -0.1648  0.6805
18994TIP3    H178397   2.223   3.056   3.654 -0.3917  1.8016 -0.2558
18994TIP3    H278398   2.329   3.111   3.561 -0.7997  0.6736 -1.4144
18995TIP3   OH278399   6.726   1.326   2.254  0.0862 -0.4412  0.0777
18995TIP3    H178400   6.681   1.392   2.306 -1.1074 -1.3821  0.2485
18995TIP3    H278401   6.788   1.284   2.314 -2.1405 -2.3563  1.0836
18996TIP3   OH278402   1.392   3.958  15.984  0.0974 -0.5258  0.3013
18996TIP3    H178403   1.462   3.996  15.930 -1.0015  0.5542 -0.3736
18996TIP3    H278404   1.419   3.867  15.997  2.1490  0.1399  0.9107
18997TIP3   OH278405   2.181   4.695  10.705 -0.6078 -0.0275  0.5124
18997TIP3    H178406   2.170   4.766  10.642  1.9236  2.1589  2.3933
18997TIP3    H278407   2.095   4.655  10.712 -1.4645  1.1612 -2.5677
18998TIP3   OH278408   1.261   2.939   5.773  0.2297  0.5860 -0.2069
18998TIP3    H178409   1.353   2.943   5.799  0.3500 -2.6914  0.1717
18998TIP3    H278410   1.212   2.966   5.851  0.8557  1.8577 -0.2545
18999TIP3   OH278411   5.785   6.381  15.554  0.2341  0.2651 -0.3834
18999TIP3    H178412   5.862   6.349  15.602 -0.1855  1.9543  1.4667
18999TIP3    H278413   5.804   6.474  15.539 -1.6518  0.8254  0.5629
19000TIP3   OH278414   0.660   2.159  17.018  0.5825 -0.0129  0.5814
19000TIP3    H178415   0.716   2.086  17.046  0.6832 -0.1763 -0.0522
19000TIP3    H278416   0.672   2.164  16.924  1.7331  1.7830  0.7988
19001TIP3   OH278417   0.502   4.598  14.652 -0.3535 -0.3315  0.2422
19001TIP3    H178418   0.542   4.514  14.674  0.0908 -0.0560  0.4953
19001TIP3    H278419   0.434   4.576  14.588  0.4972 -0.7490 -0.5279
19002TIP3   OH278420   0.568   5.093  16.328  0.0493  0.6658 -0.2096
19002TIP3    H178421   0.656   5.132  16.331  0.5230 -0.2740 -1.5670
19002TIP3    H278422   0.512   5.157  16.372  1.4337  1.2081  0.8071
19003TIP3   OH278423   0.591   6.119  11.451 -0.1573  0.4708 -0.4345
19003TIP3    H178424   0.602   6.045  11.391  2.5093  1.0046 -0.6671
19003TIP3    H278425   0.614   6.196  11.398  0.7908  1.0889  0.8568
19004TIP3   OH278426   4.405   2.835  12.887  0.1636 -0.3306 -0.5462
19004TIP3    H178427   4.350   2.785  12.827  2.4482 -1.7392 -1.5316
19004TIP3    H278428   4.485   2.783  12.894  0.7542  0.8688  2.0986
19005TIP3   OH278429   1.235   5.599   5.683  0.3347 -0.0189  0.2967
19005TIP3    H178430   1.257   5.683   5.643  1.1413 -0.5589 -0.4085
19005TIP3    H278431   1.300   5.587   5.752 -0.1752  0.2374  0.8247
19006TIP3   OH278432   4.814   3.347  16.946 -0.2812 -0.4407 -0.1588
19006TIP3    H178433   4.752   3.400  16.896 -0.1365 -0.9436 -0.8632
19006TIP3    H278434   4.765   3.269  16.971 -0.1047 -0.5730 -0.2233
19007TIP3   OH278435   6.198   6.062  12.516 -0.3353  0.1922 -0.2423
19007TIP3    H178436   6.148   6.091  12.441 -1.7716 -2.9589 -0.5863
19007TIP3    H278437   6.148   6.092  12.592 -1.5270 -0.8749 -0.5853
19008TIP3   OH278438   0.544   5.505   0.649 -0.2839  0.6085  0.0551
19008TIP3    H178439   0.494   5.503   0.567 -0.1541  2.1381 -0.0773
19008TIP3    H278440   0.477   5.509   0.717 -0.3685  2.0459 -0.0975
19009TIP3   OH278441   5.098   6.543  14.154 -0.9650 -0.0705  0.0128
19009TIP3    H178442   5.021   6.499  14.117  0.6443  0.5149 -4.3265
19009TIP3    H278443   5.170   6.482  14.138 -0.0791  0.5768  1.5101
19010TIP3   OH278444   4.097   6.031   3.092 -0.0367  0.0253  0.0124
19010TIP3    H178445   4.174   5.978   3.072  0.4170  0.2744  1.0384
19010TIP3    H278446   4.028   5.997   3.036  1.2893  0.9985 -2.2744
19011TIP3   OH278447   3.307   0.231   1.833  0.1077  0.5488 -0.5280
19011TIP3    H178448   3.270   0.297   1.891 -2.4178 -0.9777 -0.3195
19011TIP3    H278449   3.379   0.193   1.883 -1.0683  0.3083  1.0055
19012TIP3   OH278450   5.935   6.540   4.828 -0.0462  0.3723 -0.4415
19012TIP3    H178451   5.868   6.601   4.798 -1.6781 -0.7042  0.8565
19012TIP3    H278452   5.959   6.489   4.750 -1.1064  0.4514 -0.8259
19013TIP3   OH278453   6.144   3.991   5.459  0.6782 -0.8219  0.0612
19013TIP3    H178454   6.122   3.990   5.366 -3.2689 -0.0325  0.8577
19013TIP3    H278455   6.184   4.076   5.474 -1.0907  0.1301 -0.4812
19014TIP3   OH278456   0.425   2.889  12.713 -0.4268  0.1265  0.5304
19014TIP3    H178457   0.491   2.844  12.766  0.7411  0.5060 -0.5829
19014TIP3    H278458   0.397   2.824  12.649 -1.9236 -0.3686  1.6443
19015TIP3   OH278459   4.894   5.552  11.421 -0.0233  0.6320 -0.0443
19015TIP3    H178460   4.899   5.456  11.426 -0.9984  0.6604  1.6109
19015TIP3    H278461   4.857   5.569  11.334 -0.8857 -0.5337  0.0748
19016TIP3   OH278462   5.589   3.699  17.002 -0.4594  0.1835  0.0225
19016TIP3    H178463   5.617   3.789  16.984  0.0471 -0.2535 -1.4191
19016TIP3    H278464   5.500   3.709  17.036 -0.7262  1.1794 -0.9192
19017TIP3   OH278465   5.334   4.811  14.446 -0.0172 -0.2903  0.0681
19017TIP3    H178466   5.362   4.761  14.370  1.2770 -0.3753  0.5907
19017TIP3    H278467   5.324   4.746  14.515 -3.5021 -0.5744 -0.5928
19018TIP3   OH278468   5.608   3.345   2.641  0.2740  0.6462  0.0751
19018TIP3    H178469   5.584   3.437   2.631  2.0752  1.1618  0.2537
19018TIP3    H278470   5.634   3.317   2.553  0.0762  0.4223  0.0887
19019TIP3   OH278471   0.043   1.325   5.977 -0.0898  0.0206  0.1492
19019TIP3    H178472  -0.005   1.244   5.996  1.1455 -0.7698 -0.0404
19019TIP3    H278473   0.015   1.348   5.888  0.4710 -0.8800 -0.2725
19020TIP3   OH278474   5.918   6.191   0.914 -0.1831  0.0798 -0.3156
19020TIP3    H178475   5.936   6.284   0.927 -1.4222  0.1550  0.9980
19020TIP3    H278476   5.867   6.166   0.991  1.8785 -2.1773  0.3462
19021TIP3   OH278477   2.541   4.141   0.269 -0.0836 -0.2065 -0.1329
19021TIP3    H178478   2.582   4.154   0.354  0.8573  1.2533 -0.7784
19021TIP3    H278479   2.482   4.067   0.281 -0.5224  0.4487  1.9867
19022TIP3   OH278480   3.022   0.080  16.743  0.6525 -0.1961  0.2575
19022TIP3    H178481   2.932   0.056  16.723  0.6176 -0.5681  0.8414
19022TIP3    H278482   3.037   0.161  16.695 -0.7595  1.1548  2.0364
19023TIP3   OH278483   1.814   6.660   0.784 -0.2286  0.0506 -0.0782
19023TIP3    H178484   1.905   6.687   0.794 -0.0835 -1.3061  2.5943
19023TIP3    H278485   1.765   6.721   0.838 -0.7622 -0.0562 -0.4380
19024TIP3   OH278486   6.329   5.515  11.634 -0.4372 -0.7277  0.1008
19024TIP3    H178487   6.246   5.545  11.671 -0.4061 -1.0510  0.4376
19024TIP3    H278488   6.396   5.553  11.692 -0.3413 -0.2711 -0.3101
19025TIP3   OH278489   4.264   3.602  14.532  0.1861  0.3281  0.6729
19025TIP3    H178490   4.189   3.600  14.472 -0.4909 -1.4599  1.5437
19025TIP3    H278491   4.325   3.664  14.492 -0.8619  0.2330 -1.1370
19026TIP3   OH278492   3.442   0.783  14.892 -0.2414 -0.6186 -0.1004
19026TIP3    H178493   3.401   0.702  14.862 -1.8200 -0.3333  1.2055
19026TIP3    H278494   3.457   0.834  14.813 -2.0356 -0.9130 -0.6396
19027TIP3   OH278495   0.154   1.262   4.997  0.3555  0.5348  0.1007
19027TIP3    H178496   0.099   1.255   4.919  0.7852 -0.8446 -0.1090
19027TIP3    H278497   0.205   1.342   4.985 -0.3910  0.9159 -0.5001
19028TIP3   OH278498   2.525   5.052   3.011 -0.2340 -0.1996 -0.4182
19028TIP3    H178499   2.460   4.985   3.032 -0.6212  0.8607  1.8810
19028TIP3    H278500   2.570   5.017   2.934 -2.8852 -1.3684 -1.5020
19029TIP3   OH278501   2.403   0.134  13.767 -0.2106 -0.1744 -0.1333
19029TIP3    H178502   2.309   0.121  13.764 -0.1689 -0.2111 -1.3029
19029TIP3    H278503   2.432   0.086  13.845 -1.5041  2.1149  1.8371
19030TIP3   OH278504   5.600   4.148   3.737 -0.4848 -0.5936  0.2061
19030TIP3    H178505   5.658   4.116   3.667 -0.5311 -2.6089  1.0427
19030TIP3    H278506   5.568   4.068   3.779  0.3953  0.6099  3.2480
19031TIP3   OH278507   4.927   1.627  17.226  0.4720  0.2348  0.2951
19031TIP3    H178508   4.952   1.643  17.317  1.3808 -0.0586  0.0937
19031TIP3    H278509   4.842   1.583  17.232 -0.1663  1.5116  0.9622
19032TIP3   OH278510   3.974   6.454  16.408 -0.0965  0.1354  0.2688
19032TIP3    H178511   3.938   6.383  16.354  0.4531 -0.8021  1.1367
19032TIP3    H278512   3.896   6.498  16.443 -0.4393  0.0662 -0.3810
19033TIP3   OH278513   5.283   0.772   2.754  0.2567  0.5626  0.3502
19033TIP3    H178514   5.205   0.733   2.716 -0.2921  0.1811  1.8512
19033TIP3    H278515   5.296   0.853   2.705 -1.0395  0.5951  0.0501
19034TIP3   OH278516   0.149   2.817   4.478  0.5401  0.8447  0.2777
19034TIP3    H178517   0.077   2.800   4.538 -0.4185  1.0923 -0.7761
19034TIP3    H278518   0.205   2.740   4.485 -1.2972 -0.6471 -0.9644
19035TIP3   OH278519   3.350   0.583   0.229  0.1849 -0.0735  0.3232
19035TIP3    H178520   3.343   0.504   0.283  0.9285  1.4600  2.7612
19035TIP3    H278521   3.411   0.560   0.159  1.1498 -1.3586  1.5647
19036TIP3   OH278522   6.237   6.608   3.775  0.1665 -0.0974  0.2770
19036TIP3    H178523   6.150   6.588   3.809 -0.7845 -0.9460 -2.5192
19036TIP3    H278524   6.229   6.597   3.680  3.6357 -1.4842  0.0690
19037TIP3   OH278525   6.596   3.122  11.318  0.1466 -0.1773 -0.4016
19037TIP3    H178526   6.674   3.126  11.373  0.9801  2.0025 -1.6835
19037TIP3    H278527   6.583   3.029  11.301  1.9540 -0.6206  0.5215
19038TIP3   OH278528   5.037   2.640   3.353 -0.0020 -0.5086 -0.5423
19038TIP3    H178529   5.071   2.712   3.300  0.0577  0.3656  0.6671
19038TIP3    H278530   5.051   2.668   3.443 -1.1135 -1.5046 -0.0554
19039TIP3   OH278531   2.647   2.749  14.644 -0.2816 -0.2389 -0.5142
19039TIP3    H178532   2.631   2.785  14.556  0.2720  2.2895  0.3616
19039TIP3    H278533   2.578   2.788  14.697  0.0227 -0.9227  0.3785
19040TIP3   OH278534   5.055   3.019   1.782 -0.0505 -0.0755  0.0643
19040TIP3    H178535   5.141   3.061   1.787 -0.5574  1.3591 -2.2817
19040TIP3    H278536   5.070   2.929   1.809  1.9565  0.4723  0.8362
19041TIP3   OH278537   6.060   3.764  15.323 -0.5409  0.1847 -0.3271
19041TIP3    H178538   6.122   3.836  15.308 -2.8729  2.3545  0.0866
19041TIP3    H278539   6.089   3.725  15.405  0.4260  1.0261 -0.2529
19042TIP3   OH278540   3.623   1.472   4.192 -0.1755 -0.1508 -0.2048
19042TIP3    H178541   3.670   1.536   4.245 -1.4844  0.6997 -0.0247
19042TIP3    H278542   3.684   1.449   4.122  1.2210 -0.5958  1.1534
19043TIP3   OH278543   2.278   5.092  11.338 -0.4177  0.4718  0.0485
19043TIP3    H178544   2.227   5.120  11.414  1.8936 -1.2548  2.3405
19043TIP3    H278545   2.338   5.164  11.322  0.8706 -0.2166  1.5920
19044TIP3   OH278546   6.353   1.558   0.125  0.1685  0.7556  0.8070
19044TIP3    H178547   6.430   1.503   0.138 -0.3034 -0.4849 -1.4218
19044TIP3    H278548   6.370   1.636   0.178  3.0049  0.5428  0.2728
19045TIP3   OH278549   3.762   6.684   0.882 -0.1295  0.7241 -0.0374
19045TIP3    H178550   3.820   6.703   0.808 -1.0261  1.4925 -0.5573
19045TIP3    H278551   3.738   6.770   0.916 -1.2347  0.4250 -0.0515
19046TIP3   OH278552   6.598   0.414   3.528  0.0790 -0.7351  0.0743
19046TIP3    H178553   6.527   0.453   3.577  0.6679 -0.2424  0.5344
19046TIP3    H278554   6.584   0.319   3.536  0.0805 -0.6500  1.0330
19047TIP3   OH278555   0.358   3.792  15.275  0.5687 -0.1947  0.3956
19047TIP3    H178556   0.369   3.887  15.262  1.8649 -0.1399  1.7668
19047TIP3    H278557   0.441   3.755  15.244 -0.2594 -0.9724 -0.9296
19048TIP3   OH278558   4.467   5.160   1.033  0.3489  0.2592 -0.2122
19048TIP3    H178559   4.548   5.120   1.064  0.2995  0.1125 -0.2711
19048TIP3    H278560   4.440   5.106   0.959  0.3405  0.4675 -0.3639
19049TIP3   OH278561   6.229   4.296  12.189  0.2906  0.1413 -0.3376
19049TIP3    H178562   6.223   4.314  12.095 -0.2046 -2.1825 -0.7824
19049TIP3    H278563   6.188   4.372  12.230 -0.9289  0.4543 -2.0669
19050TIP3   OH278564   0.392   0.245  15.316  0.5699  0.2211 -0.1982
19050TIP3    H178565   0.375   0.204  15.232 -0.6778 -0.9594  0.6042
19050TIP3    H278566   0.325   0.313  15.324 -0.5425 -0.9331  0.6459
19051TIP3   OH278567   3.716   4.718  11.678  0.0871  0.3160 -0.2768
19051TIP3    H178568   3.659   4.728  11.602 -1.0244  0.4281  0.5653
19051TIP3    H278569   3.732   4.623  11.683  2.6027  0.5626 -2.3936
19052TIP3   OH278570   2.378   5.335   4.176  0.5687 -0.2517  0.4250
19052TIP3    H178571   2.305   5.282   4.144  1.5240 -0.6812 -1.0784
19052TIP3    H278572   2.350   5.363   4.263 -0.9804 -1.2076  0.2625
19053TIP3   OH278573   0.507   6.454  10.548  0.0101  0.0503  0.2809
19053TIP3    H178574   0.446   6.520  10.512  0.6412 -0.1651 -1.2132
19053TIP3    H278575   0.455   6.373  10.551 -0.7091  0.5432  1.9408
19054TIP3   OH278576   4.104   6.167  15.699  0.3336  1.3265  0.2447
19054TIP3    H178577   4.027   6.144  15.751  0.3389 -0.1549 -0.4029
19054TIP3    H278578   4.095   6.261  15.684 -0.9237  1.3125  0.8488
19055TIP3   OH278579   1.807   3.929  15.417 -0.2394  0.2968 -0.1186
19055TIP3    H178580   1.900   3.936  15.394 -0.4173 -0.7642 -1.1644
19055TIP3    H278581   1.807   3.903  15.509  0.4734  3.4805  0.8549
19056TIP3   OH278582   3.143   0.678   2.188  0.8470  0.1766 -0.6035
19056TIP3    H178583   3.228   0.667   2.230  0.4449 -1.3959 -0.1489
19056TIP3    H278584   3.129   0.772   2.186  0.2609  0.3111  4.1077
19057TIP3   OH278585   0.200   3.531   1.402  0.6312  0.3131  0.1585
19057TIP3    H178586   0.112   3.563   1.420  0.8549  0.7283  0.5159
19057TIP3    H278587   0.209   3.452   1.456  0.3546  0.0670 -0.1490
19058TIP3   OH278588   5.545   0.497   6.558  0.2022  0.2682 -0.2825
19058TIP3    H178589   5.625   0.445   6.557  0.3786  0.5396 -2.2600
19058TIP3    H278590   5.475   0.433   6.569  0.3469 -0.5608 -3.6892
19059TIP3   OH278591   6.084   5.325  13.539 -0.0002 -0.1537 -0.2235
19059TIP3    H178592   6.026   5.254  13.565 -0.8201  0.3981 -0.5430
19059TIP3    H278593   6.114   5.301  13.451  0.7587 -0.7444  0.1852
19060TIP3   OH278594   1.963   2.183   4.367  0.5948  0.2705  0.7116
19060TIP3    H178595   1.931   2.159   4.281 -1.9517 -0.7895  1.9169
19060TIP3    H278596   2.057   2.161   4.365  0.1038 -1.7819 -1.0634
19061TIP3   OH278597   2.262   6.570  14.793  0.7452 -0.4209 -0.3857
19061TIP3    H178598   2.197   6.588  14.725 -0.6427 -1.6304  0.5919
19061TIP3    H278599   2.302   6.487  14.767  0.5354 -0.6557  0.0553
19062TIP3   OH278600   3.151   5.979  12.897 -0.6457 -0.2311  0.2100
19062TIP3    H178601   3.063   5.992  12.862 -0.6050 -0.6287 -0.0513
19062TIP3    H278602   3.138   5.927  12.976 -0.4030 -3.4571 -1.7430
19063TIP3   OH278603   0.676   3.922   2.255 -0.3541 -0.4020  0.4575
19063TIP3    H178604   0.678   3.995   2.317 -0.7422  1.4476 -1.6523
19063TIP3    H278605   0.585   3.919   2.225 -0.5396 -2.3205  1.1470
19064TIP3   OH278606   1.076   6.082   4.806  0.2665  0.1661 -0.7422
19064TIP3    H178607   1.030   6.121   4.880  0.8216  1.3057 -0.9964
19064TIP3    H278608   1.069   5.987   4.821 -0.9978  0.3565 -0.0802
19065TIP3   OH278609   2.214   2.441   2.817 -0.5505 -0.1210  0.2557
19065TIP3    H178610   2.217   2.345   2.812 -1.7440 -0.1138 -1.2378
19065TIP3    H278611   2.139   2.459   2.873 -0.9055 -0.0672 -0.2303
19066TIP3   OH278612   5.551   6.292  15.689  0.5100 -0.0976 -0.2458
19066TIP3    H178613   5.481   6.357  15.674  0.4169  0.3946  2.0365
19066TIP3    H278614   5.628   6.330  15.648 -0.5011 -0.5461 -2.6242
19067TIP3   OH278615   6.281   5.195   2.068  0.7177 -0.5126 -0.3228
19067TIP3    H178616   6.288   5.101   2.084  0.5139 -0.2464  1.4493
19067TIP3    H278617   6.343   5.212   1.997  2.0503 -1.6950  0.5366
19068TIP3   OH278618   1.066   5.386  13.009  0.0012 -0.0142 -0.2115
19068TIP3    H178619   1.110   5.460  12.966 -1.4789  0.0238 -1.6846
19068TIP3    H278620   0.992   5.366  12.952 -1.6426 -0.3780  2.0101
19069TIP3   OH278621   2.486   2.898  14.831 -0.8998  0.0923 -0.2490
19069TIP3    H178622   2.555   2.866  14.890 -0.3088 -1.0006 -1.5063
19069TIP3    H278623   2.493   2.993  14.835  0.4913 -0.0098 -0.1347
19070TIP3   OH278624   4.363   6.660  14.285 -0.2773  0.1967  0.0320
19070TIP3    H178625   4.367   6.634  14.193  0.7513  2.1714 -0.4927
19070TIP3    H278626   4.286   6.716  14.291  0.1556  0.7695  0.2087
19071TIP3   OH278627   5.622   4.998   3.443 -0.2202 -0.1784 -0.1316
19071TIP3    H178628   5.677   5.021   3.368  0.1960  1.8225  0.7749
19071TIP3    H278629   5.652   4.911   3.468  0.7364 -0.1957 -1.2780
19072TIP3   OH278630   4.975   5.925  15.224 -0.7921  0.3347 -0.1194
19072TIP3    H178631   4.991   5.859  15.291 -1.9583 -0.4690 -0.6146
19072TIP3    H278632   4.896   5.971  15.254 -0.0137  1.4605  0.1975
19073TIP3   OH278633   5.259   4.128  14.959  0.7565 -0.4337 -0.6631
19073TIP3    H178634   5.288   4.143  14.869  0.3366 -1.3790 -0.9657
19073TIP3    H278635   5.177   4.178  14.966  0.4808 -0.8406 -0.9907
19074TIP3   OH278636   4.904   0.346  12.077  0.2245 -0.1323 -0.6032
19074TIP3    H178637   4.983   0.294  12.065 -0.3233 -1.0386 -0.3296
19074TIP3    H278638   4.872   0.362  11.989 -0.5850 -1.7886 -0.6221
19075TIP3   OH278639   4.942   5.850  13.549 -0.0860 -0.0560 -0.3111
19075TIP3    H178640   4.975   5.790  13.482 -0.3765  0.4445 -0.8998
19075TIP3    H278641   4.857   5.814  13.574  0.4329 -0.7701  0.4678
19076TIP3   OH278642   5.096   1.596   5.267 -0.3816 -0.4094 -0.0721
19076TIP3    H178643   5.145   1.533   5.214 -3.9520 -0.3848 -3.6904
19076TIP3    H278644   5.030   1.543   5.312  0.1720  0.0746  1.3318
19077TIP3   OH278645   4.748   2.011   5.732 -0.7554 -0.3774  0.0592
19077TIP3    H178646   4.710   2.066   5.664 -0.7708  0.4854  0.7657
19077TIP3    H278647   4.781   2.072   5.798  1.4463 -1.1096 -0.3039
19078TIP3   OH278648   6.065   1.468   0.112 -0.2893  0.2086  0.4995
19078TIP3    H178649   6.050   1.386   0.158  1.0722  0.0823  0.7481
19078TIP3    H278650   6.143   1.505   0.154  1.8677 -0.5817 -2.5816
19079TIP3   OH278651   1.675   4.870  15.266 -0.7676  0.1169 -0.6940
19079TIP3    H178652   1.693   4.944  15.325  0.1782 -1.6967  1.3549
19079TIP3    H278653   1.761   4.831  15.249 -1.2027 -0.2063 -2.1900
19080TIP3   OH278654   2.606   1.679   4.227  0.8792  0.7371  0.4318
19080TIP3    H178655   2.667   1.751   4.240  1.5882  0.1966  0.1556
19080TIP3    H278656   2.520   1.721   4.219  1.1957  1.4902  0.9471
19081TIP3   OH278657   2.614   5.497  13.981  0.9352 -0.0639 -0.4452
19081TIP3    H178658   2.565   5.569  13.941 -1.1271 -0.7331  0.7867
19081TIP3    H278659   2.661   5.538  14.054  0.9055  0.2880 -0.6207
19082TIP3   OH278660   4.631   5.056   0.669  0.0064  0.2387 -0.2656
19082TIP3    H178661   4.721   5.040   0.641  0.5438  2.5936  0.0333
19082TIP3    H278662   4.613   4.988   0.735  0.6081 -1.9120 -2.2611
19083TIP3   OH278663   6.070   5.351   5.594  0.5717 -0.0192  0.9738
19083TIP3    H178664   6.081   5.375   5.686  0.6957  0.0388  0.9439
19083TIP3    H278665   6.159   5.347   5.559  0.5598 -0.5593  0.9907
19084TIP3   OH278666   2.701   6.774   0.405 -0.4636  0.2569 -0.6525
19084TIP3    H178667   2.660   6.785   0.490  3.1014  0.8620  1.0702
19084TIP3    H278668   2.716   6.863   0.373 -0.8899  0.0389 -1.5015
19085TIP3   OH278669   1.170   1.792   3.798  0.0491  0.0110 -0.0275
19085TIP3    H178670   1.121   1.859   3.846  0.3942  0.7101 -0.6531
19085TIP3    H278671   1.118   1.776   3.719  0.6609  0.5000 -0.5232
19086TIP3   OH278672   0.840   6.188  12.553  0.0006 -0.5348 -0.0723
19086TIP3    H178673   0.761   6.141  12.581 -0.7887  0.3673 -0.7453
19086TIP3    H278674   0.807   6.267  12.511  1.2866  0.0217 -0.0503
19087TIP3   OH278675   5.814   5.538  14.478 -0.5916 -0.0115  0.2475
19087TIP3    H178676   5.732   5.509  14.517 -1.6460  1.6861 -0.6548
19087TIP3    H278677   5.821   5.488  14.396 -0.2321 -0.8646  0.7958
19088TIP3   OH278678   4.052   1.238  15.971  0.0299 -0.4454 -1.0238
19088TIP3    H178679   4.004   1.321  15.978  0.7046 -0.0858 -0.5552
19088TIP3    H278680   4.141   1.264  15.947  1.0789 -0.7621  2.1930
19089TIP3   OH278681   5.263   1.593   0.648 -0.1048  0.4280  0.0268
19089TIP3    H178682   5.203   1.572   0.720 -0.2762 -1.4374 -0.6411
19089TIP3    H278683   5.278   1.687   0.657 -2.7791  0.8705  0.4883
19090TIP3   OH278684   5.613   2.152   5.521 -0.4263  0.1656  0.4409
19090TIP3    H178685   5.615   2.064   5.484 -0.1119 -0.0413  0.9436
19090TIP3    H278686   5.689   2.195   5.482  0.5541 -0.4026  1.6838
19091TIP3   OH278687   6.475   6.750   3.818  0.0050 -0.0034  0.4960
19091TIP3    H178688   6.539   6.697   3.770  0.2209  0.2667  0.4811
19091TIP3    H278689   6.390   6.710   3.798  0.0072  0.6320 -0.8330
19092TIP3   OH278690   1.508   6.740   1.659  0.1670 -0.1405  0.0457
19092TIP3    H178691   1.440   6.688   1.701  0.5313  0.3660  1.2817
19092TIP3    H278692   1.535   6.687   1.583 -1.1691 -0.6128 -0.1114
19093TIP3   OH278693   4.305   1.117  12.981  0.1495 -0.5318 -0.0894
19093TIP3    H178694   4.387   1.080  12.947  0.5728  0.2246  0.1024
19093TIP3    H278695   4.255   1.040  13.010  1.2411 -0.9257  0.7832
19094TIP3   OH278696   3.352   6.453   2.961 -0.2862 -0.1429  0.3185
19094TIP3    H178697   3.300   6.388   3.008 -1.0829  0.0833 -0.2175
19094TIP3    H278698   3.297   6.532   2.962 -0.5182 -0.2695 -1.3603
19095TIP3   OH278699   4.275   4.757  16.357  0.1036  1.0826  0.2162
19095TIP3    H178700   4.325   4.813  16.417 -1.3681  1.0709  1.4911
19095TIP3    H278701   4.190   4.800  16.350 -0.7383 -0.5002  0.4800
19096TIP3   OH278702   4.716   3.278   1.943  0.8463  0.1533 -0.1572
19096TIP3    H178703   4.622   3.290   1.952  0.6062 -1.6720 -0.2418
19096TIP3    H278704   4.746   3.252   2.031  1.0069 -0.9815 -0.5431
19097TIP3   OH278705   2.091   3.094   6.405 -0.1485 -0.1079 -0.1108
19097TIP3    H178706   2.047   3.172   6.373 -0.1140 -0.2961 -0.6233
19097TIP3    H278707   2.088   3.101   6.500  2.5937  2.0694 -0.1300
19098TIP3   OH278708   4.060   1.361   6.118 -0.1596  0.3818 -0.0702
19098TIP3    H178709   3.989   1.305   6.090 -0.2790  0.4280  0.1401
19098TIP3    H278710   4.131   1.301   6.141  0.2591  0.3744 -1.3266
19099TIP3   OH278711   5.507   2.780   0.976 -0.2518  0.5190 -0.0176
19099TIP3    H178712   5.585   2.794   1.030  1.3925 -1.6971 -1.7360
19099TIP3    H278713   5.435   2.816   1.028  1.7294  1.4221  2.1714
19100TIP3   OH278714   3.360   4.506   2.700 -0.2833  0.4335 -0.1925
19100TIP3    H178715   3.312   4.586   2.678  0.5462  0.7788 -0.7555
19100TIP3    H278716   3.381   4.516   2.793  2.7569  2.4570 -1.0182
19101TIP3   OH278717   1.078   3.608  11.869 -0.3561  0.5831  0.0889
19101TIP3    H178718   1.066   3.667  11.943  0.4928  0.2748  0.4724
19101TIP3    H278719   0.991   3.601  11.830 -1.0750 -0.2183  1.7760
19102TIP3   OH278720   2.796   0.420  14.933  0.1828 -0.5480 -0.3958
19102TIP3    H178721   2.801   0.384  15.022 -0.3308  0.0937 -0.1020
19102TIP3    H278722   2.706   0.451  14.925 -0.3346 -2.3623 -1.8334
19103TIP3   OH278723   0.057   6.395   5.272  0.1002 -0.9974 -0.3748
19103TIP3    H178724   0.109   6.336   5.218  1.2584 -1.4425  1.1947
19103TIP3    H278725   0.022   6.339   5.342  1.3871  0.1824  1.2524
19104TIP3   OH278726   2.428   0.605  13.090 -0.2630  0.2768 -0.0481
19104TIP3    H178727   2.412   0.629  13.181  1.5142 -3.0944  1.2253
19104TIP3    H278728   2.351   0.552  13.066  0.5214 -1.1096  0.4155
19105TIP3   OH278729   4.256   5.927  12.054 -0.3327  0.0747 -0.2185
19105TIP3    H178730   4.192   5.918  11.984 -0.5858 -0.8420  0.1208
19105TIP3    H278731   4.316   5.995  12.023 -0.6615 -0.0528 -1.1547
19106TIP3   OH278732   4.976   0.585   6.227  0.1358  0.0785  0.1143
19106TIP3    H178733   5.019   0.665   6.198  1.4282 -0.5393  0.2790
19106TIP3    H278734   5.048   0.528   6.255 -0.8699 -0.4481  1.7165
19107TIP3   OH278735   1.853   2.864   3.933  0.1952  0.3151 -0.2513
19107TIP3    H178736   1.781   2.809   3.904 -1.4446  2.3125 -0.1123
19107TIP3    H278737   1.838   2.948   3.889  2.1705  0.9033  0.1567
19108TIP3   OH278738   3.916   6.197  12.056  0.5161 -0.1494  0.0201
19108TIP3    H178739   3.878   6.117  12.092  0.5316 -0.4796 -0.6970
19108TIP3    H278740   3.843   6.241  12.012  0.4180  0.4299  0.7488
19109TIP3   OH278741   2.867   5.860   1.736 -0.5134 -0.2475  0.2709
19109TIP3    H178742   2.880   5.949   1.704  1.9991  0.1564  2.3026
19109TIP3    H278743   2.853   5.808   1.656 -0.8863  1.7617 -1.0063
19110TIP3   OH278744   6.668   1.742  13.025  0.1332  0.0871 -0.1263
19110TIP3    H178745   6.710   1.712  12.944 -0.5473  1.5429 -1.0347
19110TIP3    H278746   6.578   1.761  13.000 -0.0232  0.7510  0.9199
19111TIP3   OH278747   3.856   5.448   4.976  0.3146 -0.0721 -0.4205
19111TIP3    H178748   3.946   5.479   4.990  0.7522 -1.7864  0.8382
19111TIP3    H278749   3.852   5.366   5.027 -1.7074 -0.4294 -1.1408
19112TIP3   OH278750   4.586   3.404   3.142  0.3888 -1.2329  0.2000
19112TIP3    H178751   4.504   3.407   3.191  0.1173 -0.5700 -0.2961
19112TIP3    H278752   4.563   3.431   3.053  1.4678  0.7866  0.5066
19113TIP3   OH278753   3.734   5.508   0.785  0.3801 -0.3552  0.7564
19113TIP3    H178754   3.676   5.432   0.783  1.7660 -1.4071 -0.6843
19113TIP3    H278755   3.719   5.551   0.700  2.3619 -1.1479 -0.0128
19114TIP3   OH278756   0.687   0.777   4.281 -0.3727  0.6957  0.0932
19114TIP3    H178757   0.645   0.785   4.366 -0.1750  1.3520  0.1296
19114TIP3    H278758   0.617   0.747   4.222 -0.2352 -0.9310  0.7229
19115TIP3   OH278759   1.396   5.183   2.906  0.6782 -0.3158 -0.0755
19115TIP3    H178760   1.465   5.143   2.959  0.5558  0.1779  0.4540
19115TIP3    H278761   1.359   5.252   2.961 -1.4293 -1.7158  0.3474
19116TIP3   OH278762   2.160   4.539   2.734 -0.1516 -0.1386  0.3009
19116TIP3    H178763   2.215   4.479   2.784  0.9519  0.8448  0.2815
19116TIP3    H278764   2.213   4.617   2.723 -0.4606 -0.2229 -2.1858
19117TIP3   OH278765   3.346   1.150  10.954  0.1355  0.7212  0.0293
19117TIP3    H178766   3.442   1.154  10.960  0.1521  0.9482 -0.3549
19117TIP3    H278767   3.329   1.073  10.900  0.1389  1.2499 -0.7425
19118TIP3   OH278768   2.908   0.140   5.534  0.1087  0.5711 -0.4231
19118TIP3    H178769   2.944   0.156   5.622  0.1568  3.1412 -0.8825
19118TIP3    H278770   2.979   0.163   5.475 -0.4255  0.2644 -1.1879
19119TIP3   OH278771   6.615   0.861   3.920  0.0854 -0.1756  0.5831
19119TIP3    H178772   6.621   0.823   3.832  1.1487  2.1343 -0.3801
19119TIP3    H278773   6.673   0.806   3.973  1.6264  0.0592 -0.7991
19120TIP3   OH278774   1.728   1.979  13.190 -0.5411 -0.3873 -0.5953
19120TIP3    H178775   1.729   2.040  13.116  1.5779 -1.8359 -1.8209
19120TIP3    H278776   1.751   1.895  13.152 -0.9270 -1.4698  1.4873
19121TIP3   OH278777   5.563   0.670  15.359 -0.5248  0.2475  0.9739
19121TIP3    H178778   5.553   0.628  15.273  0.7084 -1.8383  1.8200
19121TIP3    H278779   5.650   0.710  15.356 -1.3218  1.9761  0.5108
19122TIP3   OH278780   3.233   2.192   3.916  0.3042 -0.4084  0.2501
19122TIP3    H178781   3.242   2.254   3.844 -0.8774  0.5382  0.8830
19122TIP3    H278782   3.199   2.112   3.876 -1.5813  0.5341 -0.0749
19123TIP3   OH278783   3.741   3.932   2.610  0.2587 -0.3333 -0.6541
19123TIP3    H178784   3.701   4.017   2.627  2.0748  0.3479  0.4233
19123TIP3    H278785   3.829   3.940   2.647 -0.1030 -3.2439  0.9214
19124TIP3   OH278786   0.048   2.093   4.880 -0.1758  0.1179 -0.1713
19124TIP3    H178787   0.018   2.169   4.928  1.2461  0.7477 -0.2667
19124TIP3    H278788  -0.021   2.077   4.815 -1.8914 -0.4835  1.7561
19125TIP3   OH278789   1.734   0.248   4.444  0.0918 -0.1191 -0.1297
19125TIP3    H178790   1.747   0.178   4.509 -1.3595  1.3681  1.8006
19125TIP3    H278791   1.794   0.317   4.471  1.0484 -0.3319 -1.6603
19126TIP3   OH278792   3.342   3.606  16.095  0.0514  0.2218  0.0558
19126TIP3    H178793   3.321   3.609  16.002  0.9955 -1.3120 -0.2253
19126TIP3    H278794   3.405   3.535  16.103 -0.9054 -0.4505  2.0433
19127TIP3   OH278795   4.665   2.947   4.781  0.1343  0.7032 -1.2189
19127TIP3    H178796   4.601   2.878   4.796  1.5606 -0.3511  0.2523
19127TIP3    H278797   4.633   3.021   4.831  0.1698  0.1029 -0.2968
19128TIP3   OH278798   0.660   5.281   4.661  0.4757  0.3263  0.4755
19128TIP3    H178799   0.713   5.278   4.581  1.1529  0.3317  0.9242
19128TIP3    H278800   0.579   5.326   4.634  1.4792  2.0140  0.2382
19129TIP3   OH278801   2.700   3.275   2.117  0.1631  0.1755 -0.1825
19129TIP3    H178802   2.646   3.321   2.180  0.1134  0.9734 -0.8016
19129TIP3    H278803   2.654   3.192   2.102 -0.5301  0.5559 -0.1840
19130TIP3   OH278804   3.541   3.498   6.066 -0.0434  0.3662  0.2747
19130TIP3    H178805   3.637   3.503   6.062 -0.0340 -0.5348 -1.4010
19130TIP3    H278806   3.512   3.525   5.979 -1.5197  3.9828  1.8212
19131TIP3   OH278807   1.587   6.338   2.626 -0.1523  0.2800 -0.3012
19131TIP3    H178808   1.583   6.390   2.706 -0.3667 -0.9780  0.5301
19131TIP3    H278809   1.617   6.252   2.656 -2.6716 -0.9522 -1.1832
19132TIP3   OH278810   5.737   6.650   1.463  0.1163 -0.6390 -0.2674
19132TIP3    H178811   5.831   6.668   1.474  0.1116 -1.6812  1.8515
19132TIP3    H278812   5.730   6.554   1.469 -1.0883 -0.5603 -0.2507
19133TIP3   OH278813   6.252   5.458   0.783  0.2081  0.0685  0.0266
19133TIP3    H178814   6.169   5.410   0.778  0.6183 -0.9316  2.4645
19133TIP3    H278815   6.269   5.467   0.877  2.4548  0.9985 -0.4514
19134TIP3   OH278816   3.506   0.485  11.140 -0.2026  0.7863 -0.4269
19134TIP3    H178817   3.530   0.576  11.121 -1.8479  1.6920  1.5872
19134TIP3    H278818   3.411   0.487  11.149 -0.4433 -1.5045 -2.0723
19135TIP3   OH278819   6.579   0.182  12.786 -0.2176 -0.3644  0.6580
19135TIP3    H178820   6.668   0.217  12.795 -0.1231 -0.7852  1.4080
19135TIP3    H278821   6.588   0.089  12.809 -0.8908 -0.3632  0.9218
19136TIP3   OH278822   6.350   5.458   1.223 -0.8120 -0.4385  0.1522
19136TIP3    H178823   6.322   5.375   1.185  1.2474 -1.4557  0.7816
19136TIP3    H278824   6.380   5.436   1.311 -0.7259  1.0580  0.5218
19137TIP3   OH278825   0.047   6.486  13.202  0.5864  0.7000 -0.2899
19137TIP3    H178826  -0.045   6.503  13.183  0.5363  0.8871  0.1161
19137TIP3    H278827   0.074   6.560  13.257  0.8868  0.4652 -0.1249
19138TIP3   OH278828   1.283   4.007  17.160  0.4206  0.4221 -0.6445
19138TIP3    H178829   1.310   3.937  17.100  1.6167  1.7724 -1.7015
19138TIP3    H278830   1.358   4.066  17.164 -1.1126  2.4513 -0.9443
19139TIP3   OH278831   2.892   5.134  15.924  0.1521  0.3827 -0.1147
19139TIP3    H178832   2.816   5.189  15.944 -0.4171 -0.8527  1.2077
19139TIP3    H278833   2.892   5.128  15.828  0.1455  2.5515 -0.2797
19140TIP3   OH278834   6.594   0.100  11.099  0.3248 -0.0236 -0.4074
19140TIP3    H178835   6.542   0.147  11.164  1.5806  1.0858 -0.1970
19140TIP3    H278836   6.530   0.043  11.055 -0.6808 -0.1715  1.2055
19141TIP3   OH278837   3.625   3.698   2.547 -0.9128 -0.4840 -0.3090
19141TIP3    H178838   3.674   3.774   2.579 -1.6378  0.9705 -2.5678
19141TIP3    H278839   3.534   3.727   2.548 -1.3772 -1.9345  0.4157
19142TIP3   OH278840   3.717   4.770   4.795  0.4675  0.4885 -0.8302
19142TIP3    H178841   3.774   4.717   4.850 -2.1437 -1.9456 -0.3388
19142TIP3    H278842   3.762   4.773   4.710  0.6483 -2.6961 -0.9108
19143TIP3   OH278843   0.739   5.609   3.282 -0.3001 -0.5389 -0.1746
19143TIP3    H178844   0.656   5.651   3.260 -0.9358 -0.9830  1.3032
19143TIP3    H278845   0.802   5.681   3.285 -0.9860  0.0579  0.3849
19144TIP3   OH278846   2.563   1.793  12.680 -0.2892 -0.0116 -0.5962
19144TIP3    H178847   2.541   1.839  12.761  2.3390 -0.8766  0.6655
19144TIP3    H278848   2.576   1.863  12.616  0.9777  0.8750  0.6022
19145TIP3   OH278849   3.922   0.009  16.547  0.4305 -0.2524 -0.3563
19145TIP3    H178850   3.938   0.019  16.453 -0.2300 -1.4078 -0.6043
19145TIP3    H278851   3.856   0.075  16.567 -1.8160 -2.1025 -1.3872
19146TIP3   OH278852   1.311   2.440   0.001 -0.0155  0.4527  0.0372
19146TIP3    H178853   1.222   2.408  -0.013  0.4372 -1.0588  0.5705
19146TIP3    H278854   1.353   2.430  -0.085 -0.0679  0.2322  0.0360
19147TIP3   OH278855   5.736   4.826   2.620 -0.0160 -0.0686 -0.2760
19147TIP3    H178856   5.680   4.749   2.609 -0.3695  0.4438 -2.3372
19147TIP3    H278857   5.763   4.823   2.712 -1.5037 -1.6290  0.1466
19148TIP3   OH278858   1.589   4.935   3.381  0.0093 -0.2083 -0.0060
19148TIP3    H178859   1.511   4.988   3.398 -0.3360 -0.3592 -1.0915
19148TIP3    H278860   1.657   4.975   3.436 -0.7487  0.1136  0.7124
19149TIP3   OH278861   0.082   5.988   3.362 -0.0080 -0.2868 -0.2207
19149TIP3    H178862  -0.011   5.968   3.377 -0.0527  0.0175 -0.0814
19149TIP3    H278863   0.114   6.017   3.447  0.2258 -0.4389 -0.2592
19150TIP3   OH278864   1.178   3.808  13.886 -0.6731 -0.1508  0.1654
19150TIP3    H178865   1.225   3.809  13.803 -3.6929  2.3524 -1.6620
19150TIP3    H278866   1.228   3.866  13.943  0.0464  0.1414 -0.7554
19151TIP3   OH278867   1.934   3.719   6.831  0.4120 -0.3669  0.5389
19151TIP3    H178868   1.893   3.633   6.820  1.3990 -0.8100  0.3176
19151TIP3    H278869   2.003   3.704   6.895 -0.1905  0.5239  1.4190
19152TIP3   OH278870   4.868   5.793   2.715  1.0284  0.3424 -0.3076
19152TIP3    H178871   4.953   5.753   2.697  1.5490  1.2444  0.1081
19152TIP3    H278872   4.855   5.782   2.809  0.3230 -0.4890 -0.5020
19153TIP3   OH278873   4.430   6.358   1.074 -0.1034 -0.0863  0.3682
19153TIP3    H178874   4.344   6.383   1.108  0.3090  0.1288  1.2647
19153TIP3    H278875   4.475   6.318   1.149 -0.0979 -1.8815 -0.5662
19154TIP3   OH278876   6.043   3.334   4.289  0.2202  0.3984 -0.3490
19154TIP3    H178877   5.980   3.262   4.293  0.4792 -0.0862 -3.3854
19154TIP3    H278878   6.127   3.291   4.274  1.0355  1.1330  2.0426
19155TIP3   OH278879   4.759   3.571  12.655  0.5268  0.7071 -0.7063
19155TIP3    H178880   4.835   3.555  12.711  0.2545 -0.0985 -0.5518
19155TIP3    H278881   4.787   3.541  12.568  0.1738 -0.2044 -0.5136
19156TIP3   OH278882   4.468   6.128  15.930 -0.4002 -0.1009  0.3282
19156TIP3    H178883   4.429   6.086  16.006  0.1638 -0.5392  0.3746
19156TIP3    H278884   4.562   6.114  15.940 -0.3409 -0.3618 -0.5682
19157TIP3   OH278885   3.037   5.872   5.110  0.1735  0.1802  0.5658
19157TIP3    H178886   2.972   5.803   5.094  0.5289  0.1055 -0.6517
19157TIP3    H278887   3.045   5.876   5.205  0.7180 -2.0321  0.6455
19158TIP3   OH278888   4.343   3.316  16.991 -0.1637 -0.0166 -0.1629
19158TIP3    H178889   4.395   3.383  17.036  0.9199 -1.2757  0.4794
19158TIP3    H278890   4.406   3.272  16.934 -1.0745  0.1003 -1.2662
19159TIP3   OH278891   6.524   2.430  16.923 -0.0838  0.0043  0.3246
19159TIP3    H178892   6.482   2.354  16.964 -2.3077  0.8449 -0.3217
19159TIP3    H278893   6.547   2.399  16.835 -1.8460  0.3490 -0.2669
19160TIP3   OH278894   0.058   1.204  15.017 -0.8532  0.4483  0.0017
19160TIP3    H178895   0.045   1.262  15.092 -1.0025  3.1057 -2.0058
19160TIP3    H278896  -0.027   1.159  15.007 -0.7470 -0.1531  1.5315
19161TIP3   OH278897   2.251   0.402   2.854  0.4795 -0.2750 -0.6641
19161TIP3    H178898   2.246   0.437   2.943  1.0123 -1.2206 -0.2532
19161TIP3    H278899   2.249   0.307   2.866 -1.6468 -0.4045 -1.7994
19162TIP3   OH278900   0.163   3.023   2.051  0.5087 -0.0639 -0.1770
19162TIP3    H178901   0.103   2.967   2.100  0.9283 -0.0210  0.3823
19162TIP3    H278902   0.120   3.034   1.966 -0.6198  0.5474  0.4662
19163TIP3   OH278903   3.991   6.412  12.917  0.0907 -0.6012  0.2238
19163TIP3    H178904   3.932   6.464  12.970  0.6144 -0.5439  0.7543
19163TIP3    H278905   3.935   6.372  12.851  0.0149  2.6140 -1.7814
19164TIP3   OH278906   1.553   0.096   4.623 -0.0760 -1.0561  0.5571
19164TIP3    H178907   1.546   0.003   4.602  1.4756 -0.9442 -0.5692
19164TIP3    H278908   1.491   0.139   4.564  1.4940 -1.1006 -1.1592
19165TIP3   OH278909   0.609   3.975   1.431  0.6073  0.2493  0.3631
19165TIP3    H178910   0.527   4.007   1.392 -0.3571 -1.0802  1.2508
19165TIP3    H278911   0.667   3.961   1.356  0.0279  1.1837 -0.2786
19166TIP3   OH278912   3.521   5.123  14.468 -0.0191 -0.2719  0.1640
19166TIP3    H178913   3.453   5.188  14.487 -0.6170 -1.0739  0.8173
19166TIP3    H278914   3.487   5.073  14.394 -0.4150 -1.0550  0.8665
19167TIP3   OH278915   4.005   5.557  11.648  0.3452  0.2727  0.3573
19167TIP3    H178916   3.993   5.485  11.710  0.1401 -1.6041 -1.7847
19167TIP3    H278917   4.099   5.573  11.648  0.4074 -0.0789  0.7731
19168TIP3   OH278918   4.611   0.586  14.624  0.4827  0.2069  0.0007
19168TIP3    H178919   4.664   0.511  14.652 -0.3481 -0.2918  0.2578
19168TIP3    H278920   4.581   0.561  14.536  0.4510  0.3650 -0.0321
19169TIP3   OH278921   2.333   0.719   2.669  0.3037 -0.0816  0.2877
19169TIP3    H178922   2.347   0.709   2.763  1.6785  1.4097  0.2491
19169TIP3    H278923   2.419   0.740   2.633 -0.1995 -0.6316 -1.3265
19170TIP3   OH278924   1.059   0.970   3.789  0.3837  0.1511 -0.1703
19170TIP3    H178925   0.988   0.922   3.830 -0.0975  0.4884 -0.6032
19170TIP3    H278926   1.105   0.906   3.735  0.0135  0.0822 -0.4003
19171TIP3   OH278927   6.165   5.514   2.800  0.5904 -0.1908 -0.1519
19171TIP3    H178928   6.252   5.522   2.762  0.6213 -3.2270 -0.8690
19171TIP3    H278929   6.106   5.550   2.734  1.1357 -0.0866 -0.5810
19172TIP3   OH278930   0.087   0.321   1.124  0.4902 -0.5263  0.3237
19172TIP3    H178931   0.073   0.405   1.081  0.7027 -1.1322 -0.9419
19172TIP3    H278932   0.177   0.325   1.155  1.1449 -1.0698 -1.4985
19173TIP3   OH278933   3.392   0.101  15.579 -0.8714 -0.3000 -0.7529
19173TIP3    H178934   3.458   0.064  15.638 -0.0794 -0.2916 -1.6213
19173TIP3    H278935   3.382   0.035  15.510 -1.3053 -0.0192 -0.9574
19174TIP3   OH278936   2.921   1.666  12.772 -0.1424 -0.4394  0.1257
19174TIP3    H178937   2.868   1.674  12.851  0.2810  0.7758  0.2910
19174TIP3    H278938   2.894   1.582  12.734 -0.7320 -0.7786  1.2679
19175TIP3   OH278939   1.847   1.730  14.678 -0.0438  0.1548 -0.2649
19175TIP3    H178940   1.751   1.737  14.676 -0.0374 -0.0562 -1.6918
19175TIP3    H278941   1.865   1.667  14.747 -0.8060  2.2453  1.9401
19176TIP3   OH278942   1.015   3.342  14.879  0.4838 -0.4731  0.0307
19176TIP3    H178943   1.008   3.281  14.806 -1.3356  1.4695 -1.4739
19176TIP3    H278944   0.928   3.342  14.918  0.6656  0.6739  0.4354
19177TIP3   OH278945   5.160   6.196  15.828 -0.1147 -0.1471 -0.4601
19177TIP3    H178946   5.122   6.108  15.837 -2.1081  0.8530  1.2182
19177TIP3    H278947   5.215   6.207  15.906 -0.0464  0.1811 -0.5542
19178TIP3   OH278948   6.193   3.429   5.355 -0.0880 -0.7747  0.2153
19178TIP3    H178949   6.194   3.521   5.330  0.7186 -0.6353  0.7621
19178TIP3    H278950   6.272   3.417   5.407  0.8306 -2.2191 -1.4582
19179TIP3   OH278951   1.785   0.482  11.251 -0.0143  0.4385  0.0639
19179TIP3    H178952   1.707   0.458  11.301 -0.9603  0.8882 -1.1718
19179TIP3    H278953   1.782   0.425  11.173  0.7420  0.6433 -0.1197
19180TIP3   OH278954   2.411   0.747  10.902 -0.2377  0.9209  0.1161
19180TIP3    H178955   2.477   0.678  10.897  0.1834  1.3280  0.0305
19180TIP3    H278956   2.359   0.736  10.822  0.5491  1.4298 -0.4712
19181TIP3   OH278957   5.779   3.688  15.480 -0.5879 -0.1063 -0.2995
19181TIP3    H178958   5.848   3.685  15.546 -1.0252  2.0866  0.3135
19181TIP3    H278959   5.715   3.624  15.509 -0.3411  0.1902  0.9293
19182TIP3   OH278960   2.449   3.719   0.486 -0.0586 -0.1501  0.1663
19182TIP3    H178961   2.544   3.711   0.487 -0.0154  0.3877  0.7592
19182TIP3    H278962   2.419   3.655   0.550 -0.1115 -0.4796 -0.1849
19183TIP3   OH278963   0.747   1.674  16.958  0.1859 -0.3234  0.9141
19183TIP3    H178964   0.652   1.674  16.944  0.2065  2.0167  0.4315
19183TIP3    H278965   0.783   1.642  16.875 -0.1487  0.6824  0.3542
19184TIP3   OH278966   1.410   0.852   4.610  0.3872 -0.0078  0.0840
19184TIP3    H178967   1.438   0.780   4.554  1.1490  1.5079 -1.5042
19184TIP3    H278968   1.340   0.895   4.562 -0.9485 -0.4456  1.6051
19185TIP3   OH278969   4.711   6.385  11.654 -0.6110  0.4773  0.2296
19185TIP3    H178970   4.729   6.342  11.737 -0.1144  0.7219  0.2491
19185TIP3    H278971   4.726   6.318  11.588  1.2859  0.9202  0.1783
19186TIP3   OH278972   5.971   4.469   7.084  0.2339  0.4691 -0.0700
19186TIP3    H178973   6.053   4.441   7.044  1.6121  1.0164  2.2597
19186TIP3    H278974   5.914   4.490   7.010  2.8947  2.1070 -1.7708
19187TIP3   OH278975   5.976   4.914   4.629  0.5665 -0.4142 -0.0547
19187TIP3    H178976   5.884   4.895   4.649  0.1179 -0.0151 -1.6283
19187TIP3    H278977   6.000   4.984   4.689 -0.0742 -0.7370  0.5802
19188TIP3   OH278978   5.909   6.557   1.867  0.3812  0.2265 -0.2959
19188TIP3    H178979   5.859   6.637   1.848 -0.4188 -0.4123 -0.8812
19188TIP3    H278980   5.844   6.487   1.868  1.1463 -0.4917 -0.2314
19189TIP3   OH278981   2.109   6.600  11.592 -0.4525 -0.0405  0.0566
19189TIP3    H178982   2.173   6.541  11.553  0.4028  1.2490 -0.5524
19189TIP3    H278983   2.028   6.581  11.546 -0.3538 -1.2178  0.3574
19190TIP3   OH278984   4.032   3.656   4.739  0.3437  0.3054  0.5000
19190TIP3    H178985   4.061   3.617   4.822  0.9807  0.1176  0.1927
19190TIP3    H278986   4.113   3.679   4.694  0.0365 -0.9720 -0.7448
19191TIP3   OH278987   2.200   1.607  12.144  0.4038  0.0337  0.0955
19191TIP3    H178988   2.197   1.518  12.110 -1.5930 -0.0390  0.3815
19191TIP3    H278989   2.241   1.598  12.230 -1.7587 -0.9631  1.0621
19192TIP3   OH278990   6.169   2.741  11.680  0.4655  0.0370 -0.0442
19192TIP3    H178991   6.209   2.655  11.669 -0.3541 -0.4481  0.7583
19192TIP3    H278992   6.182   2.785  11.596  1.7849 -0.4911 -0.1234
19193TIP3   OH278993   1.377   4.399  16.364  0.0186 -0.6413  0.6598
19193TIP3    H178994   1.386   4.494  16.356  1.0020 -0.7042  0.9916
19193TIP3    H278995   1.358   4.384  16.456 -1.8226 -0.6471  0.2993
19194TIP3   OH278996   3.749   5.742  12.883  0.2655 -0.0351  0.0559
19194TIP3    H178997   3.786   5.794  12.954 -1.0867  1.5266 -0.3535
19194TIP3    H278998   3.676   5.795  12.850 -0.1391 -1.4769 -1.4179
19195TIP3   OH278999   2.070   3.204  12.796 -0.2003  0.2014 -0.6114
19195TIP3    H179000   2.129   3.267  12.837  0.4575 -0.4765 -0.5214
19195TIP3    H279001   1.993   3.256  12.772 -0.3907  0.6942  1.0272
19196TIP3   OH279002   5.815   2.386  14.428  0.1391 -0.1464  0.6721
19196TIP3    H179003   5.845   2.477  14.435 -0.9506  0.1418  1.6588
19196TIP3    H279004   5.809   2.371  14.333  2.2408  0.1580  0.4638
19197TIP3   OH279005   5.488   3.752   2.302  0.0813  0.7124 -0.0716
19197TIP3    H179006   5.494   3.840   2.263  0.3391  0.6938 -0.0741
19197TIP3    H279007   5.406   3.717   2.268 -0.0222  0.9529 -0.0735
19198TIP3   OH279008   3.943   4.018  12.989 -0.0157 -0.0532  0.2289
19198TIP3    H179009   3.849   4.001  12.985  0.0789 -0.3176 -0.9007
19198TIP3    H279010   3.957   4.091  12.929  0.3292  0.7886  1.3123
19199TIP3   OH279011   4.596   2.539   2.115  0.8580 -0.2923 -0.0632
19199TIP3    H179012   4.519   2.512   2.065  1.2246 -2.0018  0.2482
19199TIP3    H279013   4.664   2.477   2.088  1.5948  0.0119  1.0647
19200TIP3   OH279014   5.196   0.211   4.989 -0.0174  0.0418 -0.6800
19200TIP3    H179015   5.283   0.190   4.957  0.0948 -1.7305  0.7117
19200TIP3    H279016   5.207   0.220   5.084 -1.4300 -0.6819 -0.4356
19201TIP3   OH279017   4.443   3.196   0.717  0.1761  0.0288  0.0392
19201TIP3    H179018   4.488   3.135   0.777  0.8515  1.5566  1.1224
19201TIP3    H279019   4.373   3.234   0.770 -0.9004 -0.5674 -0.9487
19202TIP3   OH279020   0.131   0.271  16.347 -0.2413 -0.0923 -0.0340
19202TIP3    H179021   0.107   0.183  16.375  0.8954 -0.7504 -1.1395
19202TIP3    H279022   0.195   0.300  16.412  1.3092 -1.0712 -1.1011
19203TIP3   OH279023   6.218   3.273  14.458  0.4106 -0.0166  0.2140
19203TIP3    H179024   6.291   3.329  14.481  0.7283 -0.2686 -0.1574
19203TIP3    H279025   6.142   3.331  14.454  0.9127  0.5789 -1.1477
19204TIP3   OH279026   4.817   4.162   0.053 -0.0663  0.7050 -0.0047
19204TIP3    H179027   4.772   4.149   0.136 -0.6255  2.4616 -0.0123
19204TIP3    H279028   4.753   4.133  -0.013 -0.6231  1.7500  0.0624
19205TIP3   OH279029   5.167   2.983   5.071  0.1577  0.0568 -0.6047
19205TIP3    H179030   5.188   3.013   5.160 -0.1432 -3.4057  0.7072
19205TIP3    H279031   5.243   2.933   5.044 -0.5118 -0.4582 -1.5457
19206TIP3   OH279032   0.289   1.783   6.416 -0.4816  0.4985 -0.8226
19206TIP3    H179033   0.310   1.690   6.413  1.4872  0.9263 -0.7845
19206TIP3    H279034   0.232   1.797   6.341 -0.6892 -0.7125 -0.9013
19207TIP3   OH279035   0.410   2.166  14.323 -1.0456 -0.5406  0.3183
19207TIP3    H179036   0.447   2.099  14.381 -1.6762  0.3799  1.8392
19207TIP3    H279037   0.362   2.116  14.257  0.3784 -1.6424  0.0962
19208TIP3   OH279038   0.658   6.384  11.364 -0.0512  0.3759  0.3559
19208TIP3    H179039   0.741   6.386  11.316  0.7328 -1.4536  1.5801
19208TIP3    H279040   0.596   6.429  11.306  1.1796 -0.5413 -1.7394
19209TIP3   OH279041   4.408   0.892   2.418  0.0108  0.0937  0.1809
19209TIP3    H179042   4.429   0.811   2.464 -1.9643  0.4397  1.7423
19209TIP3    H279043   4.319   0.880   2.386 -0.5676  1.9160  1.0468
19210TIP3   OH279044   2.416   6.301   0.408 -0.4399  0.5942 -0.1551
19210TIP3    H179045   2.505   6.300   0.374  0.6673  2.2995  2.5726
19210TIP3    H279046   2.386   6.391   0.396 -1.0404  0.5353  0.8734
19211TIP3   OH279047   1.477   0.973   2.318  0.0020  0.0532  0.5002
19211TIP3    H179048   1.471   0.952   2.411  2.5626 -1.6004  0.3267
19211TIP3    H279049   1.483   0.888   2.274  1.4349  0.8707 -0.9554
19212TIP3   OH279050   1.771   1.399   3.570 -0.2807  0.5278  0.0507
19212TIP3    H179051   1.739   1.392   3.660 -1.0400 -0.1958 -0.2689
19212TIP3    H279052   1.850   1.453   3.577 -0.6798  1.0024  1.0637
19213TIP3   OH279053   2.857   2.437   5.324  0.6401  0.2960 -0.0181
19213TIP3    H179054   2.897   2.366   5.274  1.9663  0.3583  0.9387
19213TIP3    H279055   2.771   2.402   5.350  0.8246 -0.5259 -0.5001
19214TIP3   OH279056   6.664   3.003   3.110  0.3382 -0.3257  0.6564
19214TIP3    H179057   6.738   2.979   3.166  0.1218  0.6500  1.3778
19214TIP3    H279058   6.615   3.067   3.161  0.9996  1.7895 -1.2311
19215TIP3   OH279059   5.727   1.420  16.360  0.0392  0.1755  0.5187
19215TIP3    H179060   5.673   1.453  16.432 -0.7109 -0.1022  0.1014
19215TIP3    H279061   5.754   1.332  16.389 -1.0583 -0.3235  0.0743
19216TIP3   OH279062   2.350   1.771   3.316  0.1715 -0.1156 -0.2827
19216TIP3    H179063   2.263   1.803   3.297  0.1281  0.5305  0.9569
19216TIP3    H279064   2.366   1.703   3.250 -1.0191  0.1775 -0.8775
19217TIP3   OH279065   1.473   0.262  14.682 -0.0604 -0.3933 -0.6789
19217TIP3    H179066   1.443   0.237  14.770  1.8338 -0.8987 -0.1621
19217TIP3    H279067   1.415   0.334  14.657 -1.3270 -0.9558  0.5244
19218TIP3   OH279068   2.699   4.622  16.670 -0.2758  0.5291  0.4887
19218TIP3    H179069   2.723   4.545  16.722  1.5621  1.0891  0.5157
19218TIP3    H279070   2.725   4.599  16.581 -0.2319  0.8975  0.4045
19219TIP3   OH279071   1.968   0.057  16.041 -0.2375 -0.0996 -0.4551
19219TIP3    H179072   2.050   0.018  16.070 -0.0666 -0.1143 -0.9427
19219TIP3    H279073   1.994   0.117  15.970 -0.6414 -0.0835 -0.5922
19220TIP3   OH279074   1.444   2.741   4.857  0.0319  0.0197  0.5599
19220TIP3    H179075   1.365   2.745   4.803  0.4130  0.1777  0.0123
19220TIP3    H279076   1.454   2.830   4.891  1.2376  0.5772 -1.1938
19221TIP3   OH279077   4.870   1.077  15.086  0.0679 -0.3120  0.0272
19221TIP3    H179078   4.870   1.151  15.147  0.0054  0.5261 -0.9944
19221TIP3    H279079   4.941   1.096  15.025 -0.2681 -0.8555 -0.5367
19222TIP3   OH279080   1.452   6.096   2.384 -0.4311 -0.1326  0.2432
19222TIP3    H179081   1.389   6.135   2.445 -0.9941  0.5212 -0.7529
19222TIP3    H279082   1.398   6.060   2.314  0.2713 -0.0959 -0.3184
19223TIP3   OH279083   1.243   0.760  11.424 -0.3771  0.3804  0.3036
19223TIP3    H179084   1.159   0.737  11.383 -0.2456 -0.0969  0.2998
19223TIP3    H279085   1.239   0.855  11.435  0.5931  0.8442 -3.0655
19224TIP3   OH279086   1.897   3.927  16.321 -0.1799  0.1538  0.0980
19224TIP3    H179087   1.901   3.999  16.257 -0.1987  0.0784  0.0110
19224TIP3    H279088   1.890   3.848  16.267 -3.8145  0.3026  0.1909
19225TIP3   OH279089   2.483   3.707   4.118  0.0013  0.0626  0.1850
19225TIP3    H179090   2.467   3.801   4.124  0.7508  0.3023 -1.2714
19225TIP3    H279091   2.538   3.697   4.040 -1.0757 -1.7084 -0.3756
19226TIP3   OH279092   1.134   1.715  13.715  0.7068 -0.8095  0.6661
19226TIP3    H179093   1.144   1.623  13.739  2.1384 -0.3256  1.9770
19226TIP3    H279094   1.176   1.764  13.786  0.0940  0.8634 -0.0824
19227TIP3   OH279095   0.687   3.505   0.795  0.1519 -0.0113 -0.2386
19227TIP3    H179096   0.600   3.502   0.834  0.4107  0.7995  0.4114
19227TIP3    H279097   0.745   3.469   0.862  0.3472 -0.3904 -0.6043
19228TIP3   OH279098   4.688   1.855  11.200  0.5147  0.2250 -0.2404
19228TIP3    H179099   4.688   1.929  11.260  1.7201 -0.7096  0.9540
19228TIP3    H279100   4.626   1.793  11.238 -0.3126  0.5055 -1.1090
19229TIP3   OH279101   6.594   5.927   3.900  0.3521  0.1871  0.2259
19229TIP3    H179102   6.525   5.989   3.878  0.0876  0.1953  1.0766
19229TIP3    H279103   6.647   5.921   3.820 -2.0200 -1.6619 -1.2714
19230TIP3   OH279104   4.220   2.381   0.784 -0.4512  0.5589 -0.2814
19230TIP3    H179105   4.193   2.473   0.789 -0.4760  0.5561 -0.3650
19230TIP3    H279106   4.285   2.371   0.854 -1.3033  0.3453  0.4825
19231TIP3   OH279107   2.364   0.133  16.944 -0.2588  0.4616 -0.0433
19231TIP3    H179108   2.410   0.142  17.027 -1.0851 -2.5073  0.8014
19231TIP3    H279109   2.282   0.181  16.957  0.6506  2.0569 -0.0307
19232TIP3   OH279110   2.119   6.595  16.846 -0.2128 -0.3912 -0.0001
19232TIP3    H179111   2.052   6.661  16.828  0.4216 -0.1129 -1.4169
19232TIP3    H279112   2.117   6.538  16.769  2.5131  0.7646 -1.0135
19233TIP3   OH279113   2.464   3.577   2.947  0.3044  0.2510  0.1200
19233TIP3    H179114   2.426   3.651   2.901  0.7088 -0.4937 -1.4596
19233TIP3    H279115   2.409   3.502   2.923 -1.4088  0.3620  3.4197
19234TIP3   OH279116   5.089   4.048  15.645 -0.0730  0.1131  0.1323
19234TIP3    H179117   5.132   4.064  15.561  0.1888 -2.7865 -0.3374
19234TIP3    H279118   5.153   4.078  15.710  0.5975  0.3896 -0.6431
19235TIP3   OH279119   0.251   2.514  11.536 -0.1214  0.2884  0.6807
19235TIP3    H179120   0.162   2.496  11.567 -1.1138  3.4697 -0.1573
19235TIP3    H279121   0.245   2.509  11.441  0.6466  0.3509  0.6262
19236TIP3   OH279122   4.257   2.797  13.535 -0.2062 -0.4833 -0.0929
19236TIP3    H179123   4.274   2.762  13.448 -1.3399  1.7490 -1.2545
19236TIP3    H279124   4.162   2.790  13.545 -0.0083 -1.3432  1.2421
19237TIP3   OH279125   6.065   2.485  13.783  0.2269 -0.1745 -0.5270
19237TIP3    H179126   5.974   2.493  13.754  0.5439  0.0713 -1.4665
19237TIP3    H279127   6.085   2.569  13.824  0.1729 -0.0637 -0.7286
19238TIP3   OH279128   5.100   6.031   4.619  0.2277 -0.3693  0.0436
19238TIP3    H179129   5.086   5.988   4.535  1.9131  0.9537 -0.9318
19238TIP3    H279130   5.194   6.045   4.624  0.2125 -0.8187  2.3549
19239TIP3   OH279131   6.548   5.795   1.650  0.3337 -0.2285 -0.4333
19239TIP3    H179132   6.491   5.843   1.592  0.0758 -1.4634 -1.2242
19239TIP3    H279133   6.533   5.703   1.628 -0.3370 -0.7722  2.0911
19240TIP3   OH279134   1.817   5.731  16.531 -0.5890  0.2246  0.5094
19240TIP3    H179135   1.820   5.637  16.552  0.8100 -0.1631 -1.3266
19240TIP3    H279136   1.871   5.772  16.597  0.6423 -0.5314 -0.0179
19241TIP3   OH279137   5.806   3.390  14.358  0.5085 -0.7631  0.4284
19241TIP3    H179138   5.734   3.391  14.421  1.0402  2.2574  1.0623
19241TIP3    H279139   5.885   3.401  14.410  1.0912  0.0813 -0.6062
19242TIP3   OH279140   5.382   1.701  12.508  0.1246  0.5090 -0.2967
19242TIP3    H179141   5.380   1.605  12.501  3.0649  0.4432 -0.9071
19242TIP3    H279142   5.435   1.718  12.587 -1.1254  1.6433  0.3181
19243TIP3   OH279143   6.185   1.526  16.738  0.7944 -0.2625 -0.1116
19243TIP3    H179144   6.090   1.520  16.741  1.0068 -4.7209 -0.1287
19243TIP3    H279145   6.206   1.549  16.648 -0.2226  0.6609 -0.1157
19244TIP3   OH279146   1.744   4.247   0.015  0.3136 -0.8149 -0.5810
19244TIP3    H179147   1.787   4.218  -0.065  0.4303  1.7122 -1.4737
19244TIP3    H279148   1.784   4.332   0.035 -0.7699 -0.7102  1.3314
19245TIP3   OH279149   5.365   2.805  11.077  0.3531 -0.5265 -0.7224
19245TIP3    H179150   5.408   2.744  11.017 -0.9147  0.4973 -2.7187
19245TIP3    H279151   5.275   2.812  11.044 -0.0387  0.9693  0.6071
19246TIP3   OH279152   0.531   6.478   3.037  0.8250 -0.8183  0.1429
19246TIP3    H179153   0.607   6.502   3.090 -0.3833 -1.1207  2.0582
19246TIP3    H279154   0.538   6.383   3.028  0.4317 -0.9060  0.7230
19247TIP3   OH279155   5.483   0.586  13.919 -0.0324  0.1208  0.1082
19247TIP3    H179156   5.503   0.524  13.849  0.3081 -0.1389  0.4339
19247TIP3    H279157   5.498   0.536  14.000 -1.2959  0.1446  0.3639
19248TIP3   OH279158   2.821   4.144   1.011  0.6191  0.1411  0.0565
19248TIP3    H179159   2.791   4.054   0.998  0.5025  0.5515 -2.6935
19248TIP3    H279160   2.811   4.159   1.105  1.5717 -3.0292  0.7119
19249TIP3   OH279161   4.348   0.502   5.565  1.1577 -0.3612  0.2788
19249TIP3    H179162   4.292   0.579   5.560  2.2079  0.5032  1.3793
19249TIP3    H279163   4.376   0.487   5.474 -0.8216 -0.8025 -0.2654
19250TIP3   OH279164   5.928   0.556  13.404  0.1798 -0.1322 -0.0375
19250TIP3    H179165   5.847   0.579  13.360  0.7073  0.4740 -0.6989
19250TIP3    H279166   5.972   0.495  13.344  0.8980  0.6935 -0.3672
19251TIP3   OH279167   2.314   1.056  13.324  0.1413 -0.0262  0.1285
19251TIP3    H179168   2.324   0.997  13.399 -2.1891 -1.4259 -0.6138
19251TIP3    H279169   2.309   0.997  13.249  1.4400  1.3274 -1.0459
19252TIP3   OH279170   5.900   3.886   1.509  0.5026  0.4857  0.3286
19252TIP3    H179171   5.844   3.964   1.509  2.2609  1.8515 -2.4133
19252TIP3    H279172   5.843   3.815   1.479 -0.6475  1.1165  1.0180
19253TIP3   OH279173   2.166   1.580   0.362 -0.3626  0.2406 -0.6085
19253TIP3    H179174   2.198   1.511   0.419  0.4489  1.2574  0.1866
19253TIP3    H279175   2.142   1.651   0.421 -2.4868  0.1437 -1.3082
19254TIP3   OH279176   5.348   0.840   6.151  0.3368 -0.4515 -0.1039
19254TIP3    H179177   5.255   0.846   6.127  0.6546  0.0561 -1.2373
19254TIP3    H279178   5.369   0.747   6.142  0.0169 -0.5191 -0.1595
19255TIP3   OH279179   6.364   1.941  13.600 -0.1981  0.0365 -0.1094
19255TIP3    H179180   6.432   1.985  13.548 -0.8167  0.6082 -0.4419
19255TIP3    H279181   6.283   1.959  13.554 -0.6018 -0.5100  0.3781
19256TIP3   OH279182   6.520   2.281   0.534 -0.0968 -0.4167 -0.6902
19256TIP3    H179183   6.551   2.247   0.450  0.7931 -3.1480  0.6669
19256TIP3    H279184   6.484   2.204   0.579 -1.7249  1.2385  0.9194
19257TIP3   OH279185   1.637   6.654   6.889 -0.1141 -0.0271 -0.2543
19257TIP3    H179186   1.693   6.586   6.852 -0.3344  1.1368 -2.8008
19257TIP3    H279187   1.675   6.736   6.858 -1.4963  0.8940  0.4341
19258TIP3   OH279188   4.219   3.969   1.401 -0.6128 -0.0296  0.4264
19258TIP3    H179189   4.144   4.028   1.398  0.3615  1.3005  1.4751
19258TIP3    H279190   4.268   3.988   1.321 -0.8955 -0.2440  0.2000
19259TIP3   OH279191   5.624   2.857   4.657 -0.1319 -0.1549 -0.8015
19259TIP3    H179192   5.598   2.765   4.667  0.2439 -0.1760  0.0503
19259TIP3    H279193   5.606   2.878   4.566 -1.7365 -0.6052 -0.5909
19260TIP3   OH279194   3.460   1.239  13.443  0.1259 -0.2528  0.4188
19260TIP3    H179195   3.518   1.225  13.369 -0.0389  1.1102  0.0206
19260TIP3    H279196   3.372   1.233  13.406  0.0337 -0.3791  0.6576
19261TIP3   OH279197   6.480   5.535  12.099 -0.4618 -0.8091 -0.2450
19261TIP3    H179198   6.427   5.477  12.044 -0.3756  1.7345 -3.1902
19261TIP3    H279199   6.428   5.547  12.178 -0.7818 -4.2799  0.1732
19262TIP3   OH279200   5.037   3.075  17.000 -0.5397 -0.2374  0.1360
19262TIP3    H179201   5.002   3.142  16.941 -0.2245  0.1854  0.4268
19262TIP3    H279202   5.022   2.992  16.954 -1.8237 -0.0557  0.2143
19263TIP3   OH279203   3.348   3.279  13.904 -0.2944  0.0999  0.5083
19263TIP3    H179204   3.418   3.336  13.872  0.0428 -1.0452 -0.8773
19263TIP3    H279205   3.394   3.202  13.938 -0.8553 -0.6852 -0.4655
19264TIP3   OH279206   3.055   6.647  16.505 -0.0236  0.0430  0.4081
19264TIP3    H179207   3.014   6.720  16.459  2.3670 -0.0946 -2.0975
19264TIP3    H279208   3.027   6.569  16.457  2.6596 -0.0908 -1.0465
19265TIP3   OH279209   1.072   6.430   4.248  0.2975 -0.0896  0.3471
19265TIP3    H179210   0.983   6.465   4.252  0.8805  1.4716 -0.2085
19265TIP3    H279211   1.061   6.336   4.263 -1.4479  0.0874  0.2677
19266TIP3   OH279212   0.696   3.894   5.248 -0.7106 -0.3992  0.1449
19266TIP3    H179213   0.640   3.826   5.211 -0.7254 -0.1149 -0.3567
19266TIP3    H279214   0.670   3.899   5.340 -0.5994 -1.1822  0.2265
19267TIP3   OH279215   6.666   1.558  15.687  0.2437 -0.2429  0.0671
19267TIP3    H179216   6.620   1.508  15.755 -1.2322  1.6621  0.5173
19267TIP3    H279217   6.596   1.595  15.633  1.2648  1.9981  0.2280
19268TIP3   OH279218   3.952   3.108   3.481 -0.1270  0.2432 -0.2215
19268TIP3    H179219   3.886   3.059   3.432  0.4379  0.1427 -0.8873
19268TIP3    H279220   3.961   3.060   3.563 -1.2484  0.5495  0.0817
19269TIP3   OH279221   1.998   4.622  16.386  0.3819  0.4381  0.0850
19269TIP3    H179222   2.092   4.604  16.390  0.5479  1.5978  3.2570
19269TIP3    H279223   1.957   4.537  16.402  0.9074  0.1042 -0.3307
19270TIP3   OH279224   3.869   3.424   0.654  0.7232  0.3292 -0.1408
19270TIP3    H179225   3.960   3.400   0.637  0.9959  1.5115 -0.3986
19270TIP3    H279226   3.874   3.507   0.701 -0.2519  1.2536 -1.5995
19271TIP3   OH279227   1.854   0.083  15.089 -0.1065 -0.1722  0.1642
19271TIP3    H179228   1.904   0.001  15.094 -0.7646 -0.5378  0.9029
19271TIP3    H279229   1.820   0.085  15.000  0.4345 -0.3855 -0.0525
19272TIP3   OH279230   2.778   3.982  16.186 -0.4772 -0.2657  0.5820
19272TIP3    H179231   2.751   4.013  16.273 -0.1074  1.1267  0.2030
19272TIP3    H279232   2.838   3.909  16.205  1.6044  1.6308  1.5670
19273TIP3   OH279233   2.028   3.535  12.524 -0.5200  0.0784 -0.1239
19273TIP3    H179234   1.966   3.599  12.560 -0.7717 -1.1565  1.6862
19273TIP3    H279235   2.057   3.574  12.442 -2.1776  1.6051 -0.0186
19274TIP3   OH279236   4.689   4.462   0.941 -0.9177  0.2932 -0.7050
19274TIP3    H179237   4.619   4.473   1.005  1.3265  1.6414  1.6022
19274TIP3    H279238   4.756   4.412   0.988 -0.0118 -0.3619 -2.6576
19275TIP3   OH279239   3.241   5.765   0.497  0.6851 -0.0680  0.0205
19275TIP3    H179240   3.277   5.771   0.409  0.1044  0.2162 -0.1978
19275TIP3    H279241   3.309   5.802   0.553  1.0161 -0.1627 -0.3209
19276TIP3   OH279242   2.539   0.743  11.866  0.1649  0.5603 -0.4912
19276TIP3    H179243   2.586   0.724  11.785  0.3641 -0.2171 -0.1976
19276TIP3    H279244   2.488   0.664  11.884  1.8083 -0.1223  1.3054
19277TIP3   OH279245   1.503   2.305   0.174 -0.0806  0.0309  0.0795
19277TIP3    H179246   1.559   2.367   0.220  0.0270  0.2367 -0.3248
19277TIP3    H279247   1.459   2.357   0.107 -1.0089 -0.0652  0.6008
19278TIP3   OH279248   1.261   1.862  14.689 -0.0517 -0.8793 -0.0147
19278TIP3    H179249   1.167   1.858  14.706 -0.1884  1.9556  0.1612
19278TIP3    H279250   1.267   1.877  14.595  0.1330  1.0919  0.2961
19279TIP3   OH279251   2.781   4.186   3.385 -0.2778  0.1743  0.0190
19279TIP3    H179252   2.720   4.133   3.437 -0.6049 -0.1391 -0.6741
19279TIP3    H279253   2.816   4.125   3.319  2.6962 -0.2834  1.9606
19280TIP3   OH279254   4.583   5.092  17.206  0.2663 -0.4649 -0.3024
19280TIP3    H179255   4.562   5.137  17.124  0.9113 -0.6377 -0.5618
19280TIP3    H279256   4.541   5.007  17.198  1.2735 -0.9060 -0.9282
19281TIP3   OH279257   5.551   2.026   0.850  0.3321 -0.2402  0.6501
19281TIP3    H179258   5.553   1.996   0.759 -0.4363  0.1554  0.4955
19281TIP3    H279259   5.638   2.005   0.885  0.9460  0.4278 -0.4476
19282TIP3   OH279260   4.638   3.874  12.227 -0.3884  0.2634 -0.3770
19282TIP3    H179261   4.620   3.898  12.136  0.7591  1.6396 -0.2601
19282TIP3    H279262   4.723   3.830  12.224  0.7788  2.4002  0.3078
19283TIP3   OH279263   6.261   1.050  15.246  0.2794  0.6497  0.9947
19283TIP3    H179264   6.338   0.992  15.243 -0.0238  0.3283 -2.9534
19283TIP3    H279265   6.298   1.137  15.261  1.7398  0.8059 -2.8243
19284TIP3   OH279266   2.329   1.784  15.217  0.0920 -0.2454  0.0585
19284TIP3    H179267   2.364   1.871  15.235 -1.1871  0.0857  1.0476
19284TIP3    H279268   2.234   1.796  15.215 -0.0458 -1.4201 -0.8712
19285TIP3   OH279269   0.787   0.970   3.627 -0.4555  0.6901  0.2380
19285TIP3    H179270   0.786   1.049   3.682 -0.8422 -0.1016  1.3702
19285TIP3    H279271   0.840   0.907   3.676 -0.5222  0.0867 -0.4610
19286TIP3   OH279272   5.373   0.118   2.697 -0.0363  0.2345 -0.0047
19286TIP3    H179273   5.280   0.106   2.679  0.0651 -0.6206  0.0008
19286TIP3    H279274   5.379   0.205   2.736 -0.7771  0.4679 -0.4004
19287TIP3   OH279275   6.117   6.348  10.867 -0.4667 -0.1206 -0.4924
19287TIP3    H179276   6.100   6.253  10.866  0.9053 -0.3610 -0.9593
19287TIP3    H279277   6.098   6.374  10.958  0.2952 -1.0437 -0.0619
19288TIP3   OH279278   6.368   4.398  14.140 -0.0542  0.2613 -0.2167
19288TIP3    H179279   6.400   4.447  14.216 -1.2147  1.3871 -0.4173
19288TIP3    H279280   6.431   4.416  14.071  0.7351 -0.3572  0.3325
19289TIP3   OH279281   5.184   5.621   0.941 -0.1073 -0.4972  0.0574
19289TIP3    H179282   5.147   5.695   0.987 -0.1028 -0.1191 -0.5404
19289TIP3    H279283   5.236   5.660   0.870  0.8857 -1.0343  0.4857
19290TIP3   OH279284   1.602   1.960  16.273 -0.1768  0.1680  0.7143
19290TIP3    H179285   1.645   2.035  16.313  1.5000 -0.4364  0.1012
19290TIP3    H279286   1.661   1.887  16.290 -1.2438 -0.7922  0.3308
19291TIP3   OH279287   1.080   6.202  12.973 -0.4228  0.0980 -0.5189
19291TIP3    H179288   1.003   6.186  13.027 -0.5129  1.9325 -0.0612
19291TIP3    H279289   1.050   6.262  12.904 -0.1010 -1.5474 -2.1187
19292TIP3   OH279290   2.437   2.703  12.565  0.3268  0.0220  0.0436
19292TIP3    H179291   2.431   2.741  12.478  1.2289  1.1962  0.4829
19292TIP3    H279292   2.374   2.631  12.564 -0.5893  0.8148 -1.1601
19293TIP3   OH279293   2.637   5.455   1.150 -0.4405 -0.5047 -0.2833
19293TIP3    H179294   2.636   5.540   1.195 -1.0551 -0.7920  0.2417
19293TIP3    H279295   2.685   5.397   1.209 -0.6378 -0.7001 -0.3130
19294TIP3   OH279296   3.764   0.803   6.258 -0.5708  0.4910 -1.0432
19294TIP3    H179297   3.769   0.781   6.352 -0.3837 -0.7548 -1.3292
19294TIP3    H279298   3.719   0.887   6.256 -0.5341  0.5596  0.1793
19295TIP3   OH279299   5.619   2.942   5.212 -0.1719 -0.1267  0.5295
19295TIP3    H179300   5.645   2.904   5.296 -1.1415 -0.5396  0.6572
19295TIP3    H279301   5.674   2.900   5.147  0.2114 -0.1996  0.9032
19296TIP3   OH279302   3.680   4.518  13.340 -0.0687  0.2772  0.1539
19296TIP3    H179303   3.734   4.577  13.391  0.0103 -1.2313  1.8788
19296TIP3    H279304   3.592   4.555  13.346  0.5323  2.0651 -1.6450
19297TIP3   OH279305   3.839   3.685   4.143  0.3148  0.0798  0.5031
19297TIP3    H179306   3.923   3.642   4.161 -0.3471 -0.6371  1.9320
19297TIP3    H279307   3.831   3.753   4.210 -1.0652 -1.0316  1.4920
19298TIP3   OH279308   3.597   2.672  16.519 -0.2699  0.2305 -0.0328
19298TIP3    H179309   3.559   2.759  16.527  0.2143  1.1018 -5.4951
19298TIP3    H279310   3.535   2.624  16.465  0.8840 -1.9545  0.5155
19299TIP3   OH279311   6.331   4.294   4.156  0.0503 -0.3247 -0.5735
19299TIP3    H179312   6.399   4.354   4.127 -0.2814  0.0608 -0.5578
19299TIP3    H279313   6.331   4.300   4.251 -0.5780  0.3125 -0.6112
19300TIP3   OH279314   5.987   1.903  11.847  0.0651  0.4128  0.0965
19300TIP3    H179315   6.067   1.860  11.819 -0.1030  0.4842 -0.4892
19300TIP3    H279316   5.920   1.871  11.786 -0.3660  0.2940  0.6275
19301TIP3   OH279317   3.995   5.764  11.475 -0.1061  0.1864  0.7895
19301TIP3    H179318   4.008   5.698  11.543  0.0191 -0.9771 -0.3270
19301TIP3    H279319   3.921   5.730  11.423  2.0361 -0.7879 -1.7577
19302TIP3   OH279320   4.370   0.248  16.307 -0.3987  0.1697 -0.2380
19302TIP3    H179321   4.444   0.287  16.353  0.4651 -2.1631  0.4028
19302TIP3    H279322   4.302   0.240  16.375 -0.0485 -0.8297 -0.0033
19303TIP3   OH279323   1.117   3.087  13.491  0.5376 -0.0201  0.1055
19303TIP3    H179324   1.209   3.074  13.467  0.9518  1.7146  0.6456
19303TIP3    H279325   1.070   3.088  13.408  1.4119  1.8922 -0.4064
19304TIP3   OH279326   5.607   2.556  16.857 -0.4162  0.2974 -0.4402
19304TIP3    H179327   5.556   2.635  16.878  0.4385  1.0137 -1.0388
19304TIP3    H279328   5.643   2.572  16.770 -1.0412 -1.1831 -0.9877
19305TIP3   OH279329   2.446   0.267  14.114  0.3941  0.1789  0.8136
19305TIP3    H179330   2.353   0.254  14.098  0.7968  0.3024 -1.8587
19305TIP3    H279331   2.478   0.182  14.143 -0.2624 -0.2371  0.3116
19306TIP3   OH279332   1.679   1.390   2.441  0.1998 -0.3002 -0.0085
19306TIP3    H179333   1.632   1.308   2.455 -1.8208  1.1090  1.6682
19306TIP3    H279334   1.628   1.436   2.375  1.0895 -0.2050 -0.6318
19307TIP3   OH279335   1.184   3.461   0.298  0.7521 -0.0598  0.4648
19307TIP3    H179336   1.092   3.454   0.274  1.0390 -0.6553 -0.5051
19307TIP3    H279337   1.186   3.447   0.393 -0.0746 -0.7867  0.3824
19308TIP3   OH279338   3.589   5.916  14.250  0.6319  0.5433 -0.3033
19308TIP3    H179339   3.645   5.993  14.239 -0.0700  1.1515  0.3524
19308TIP3    H279340   3.617   5.879  14.334  0.4827  0.4844 -0.2797
19309TIP3   OH279341   0.456   3.264   0.362  0.4783  0.4314 -0.6678
19309TIP3    H179342   0.454   3.357   0.342 -0.9962  0.6585  0.5129
19309TIP3    H279343   0.413   3.256   0.447  1.6429 -1.1907 -0.1972
19310TIP3   OH279344   5.353   2.328   5.033 -0.4396  0.0130  0.1404
19310TIP3    H179345   5.298   2.389   4.983 -1.2351 -0.8966 -0.1165
19310TIP3    H279346   5.438   2.331   4.989  0.1005  2.3327  1.2668
19311TIP3   OH279347   2.644   0.108   2.763 -0.5583 -0.5067  0.1535
19311TIP3    H179348   2.736   0.091   2.745 -0.7244 -1.7888  0.5021
19311TIP3    H279349   2.607   0.023   2.786 -1.6764  0.1073  0.6996
19312TIP3   OH279350   2.072   4.513   3.869 -0.4251 -0.0758 -0.2880
19312TIP3    H179351   2.086   4.449   3.800 -2.2899 -3.6823  2.5598
19312TIP3    H279352   2.016   4.580   3.829 -0.9526 -1.7527 -2.4380
19313TIP3   OH279353   6.211   3.629  16.289 -0.1906 -0.1937 -0.0058
19313TIP3    H179354   6.151   3.646  16.216 -0.2022  0.7894  0.2204
19313TIP3    H279355   6.239   3.539  16.277 -1.0151 -0.3699 -0.6319
19314TIP3   OH279356   3.558   3.427   2.058  0.2033  0.2590  0.2424
19314TIP3    H179357   3.558   3.333   2.044  0.6653  0.1880  0.6759
19314TIP3    H279358   3.585   3.438   2.150  0.4120  0.8163  0.1209
19315TIP3   OH279359   4.890   3.708  11.415  0.4430 -0.7379 -0.4241
19315TIP3    H179360   4.811   3.683  11.368  0.0109  1.6127 -0.9767
19315TIP3    H279361   4.924   3.784  11.368  0.5478  1.0734  2.4615
19316TIP3   OH279362   3.485   1.255  14.226 -0.2515  0.2490  0.8979
19316TIP3    H179363   3.445   1.258  14.139  2.7643  2.5757 -0.5163
19316TIP3    H279364   3.483   1.346  14.256  3.3549  0.3811  0.9872
19317TIP3   OH279365   3.669   1.622  14.378  0.4442 -0.2064 -0.4154
19317TIP3    H179366   3.700   1.700  14.331  0.4852 -0.2038 -0.3833
19317TIP3    H279367   3.633   1.566  14.309 -2.3950  1.1528 -0.1148
19318TIP3   OH279368   6.015   0.178   1.359 -0.1988 -0.4773  0.9352
19318TIP3    H179369   5.931   0.171   1.313  1.2100 -0.5139 -1.7160
19318TIP3    H279370   6.011   0.110   1.426 -0.9199 -2.7946 -1.3830
19319TIP3   OH279371   5.597   2.552  17.183 -0.1091 -0.2700  0.2689
19319TIP3    H179372   5.528   2.607  17.145 -0.1882  2.0003  3.4614
19319TIP3    H279373   5.673   2.566  17.126 -1.5548 -0.8762 -1.8658
19320TIP3   OH279374   3.787   5.235   2.621  0.0651  0.3164 -0.1804
19320TIP3    H179375   3.709   5.180   2.625  0.0059  0.4669  1.1474
19320TIP3    H279376   3.803   5.260   2.713  1.0879  1.0938 -0.5608
19321TIP3   OH279377   0.623   2.041   6.649 -0.1934  0.2961  0.1280
19321TIP3    H179378   0.601   2.105   6.581 -0.9091 -1.3042 -1.1640
19321TIP3    H279379   0.540   2.003   6.675  0.3254 -0.8559  0.1390
19322TIP3   OH279380   2.888   4.784   4.100 -0.3704 -0.2520  0.1343
19322TIP3    H179381   2.898   4.693   4.070  0.5485  0.1425 -0.7814
19322TIP3    H279382   2.793   4.796   4.105 -0.5027 -1.5739  1.2556
19323TIP3   OH279383   4.000   2.821   5.967  0.1873  0.2396 -0.0703
19323TIP3    H179384   3.926   2.762   5.954  0.9819 -0.6763 -0.5409
19323TIP3    H279385   3.979   2.868   6.047 -1.0887  0.2751 -0.4064
19324TIP3   OH279386   5.561   0.250   4.290  0.0884  0.7068 -0.1642
19324TIP3    H179387   5.624   0.322   4.278  1.5189 -0.5022 -0.1161
19324TIP3    H279388   5.476   0.289   4.273  0.7438  2.6695  0.8569
19325TIP3   OH279389   6.679   2.544  17.123 -0.1963 -0.6967  0.1591
19325TIP3    H179390   6.632   2.625  17.143 -0.3719 -0.5248 -0.9300
19325TIP3    H279391   6.656   2.525  17.032  1.6881 -0.7092 -0.3368
19326TIP3   OH279392   5.581   1.913  16.517  0.0649  0.3320 -0.8435
19326TIP3    H179393   5.504   1.864  16.489  0.4866  0.8827 -3.0495
19326TIP3    H279394   5.642   1.908  16.443  0.8665  2.5748 -0.3936
19327TIP3   OH279395   4.439   5.720   5.747  0.2881  0.2960 -0.2820
19327TIP3    H179396   4.348   5.748   5.754 -0.1843 -0.4602 -2.8166
19327TIP3    H279397   4.434   5.634   5.705  2.2194  0.6541 -1.3087
19328TIP3   OH279398   4.667   0.258  15.710 -0.4696  0.8026  0.2375
19328TIP3    H179399   4.674   0.323  15.639 -0.8486  1.7359  1.0382
19328TIP3    H279400   4.742   0.277  15.767 -0.3595  0.2782  0.2637
19329TIP3   OH279401   3.154   5.071  16.519 -0.4273  0.1166 -0.3584
19329TIP3    H179402   3.092   5.121  16.572 -1.6577  0.3847 -2.0115
19329TIP3    H279403   3.099   5.020  16.460  0.9061 -0.8561 -0.7830
19330TIP3   OH279404   3.472   2.675  12.218  0.5946  0.7070 -0.5088
19330TIP3    H179405   3.510   2.663  12.305 -1.5290 -1.7384  0.1567
19330TIP3    H279406   3.519   2.749  12.181  2.6447  0.7765  2.0994
19331TIP3   OH279407   3.699   6.207   5.155  0.3558 -0.4174 -0.1671
19331TIP3    H179408   3.672   6.126   5.113  1.0452 -0.9012  0.3020
19331TIP3    H279409   3.750   6.253   5.089 -1.3929  0.3790 -0.9656
19332TIP3   OH279410   3.040   6.227   0.374 -0.4555 -0.3111  0.1090
19332TIP3    H179411   2.950   6.243   0.345 -0.8029 -0.7064  0.9622
19332TIP3    H279412   3.090   6.219   0.293 -1.6339 -2.7318 -0.4270
19333TIP3   OH279413   3.025   1.464   6.149  0.3983  0.3908  0.4349
19333TIP3    H179414   3.014   1.407   6.225  0.4061 -0.8063 -0.4331
19333TIP3    H279415   3.016   1.553   6.183 -0.0501 -0.1497  1.7485
19334TIP3   OH279416   3.697   4.153  13.586 -0.2286  0.0395  0.3887
19334TIP3    H179417   3.627   4.193  13.533  0.0265 -0.0318 -0.0045
19334TIP3    H279418   3.697   4.204  13.667  0.6904  1.4344 -0.4705
19335TIP3   OH279419   1.067   4.900  11.493  0.0940 -0.7996 -0.0135
19335TIP3    H179420   1.061   4.939  11.580 -1.2851 -0.1828 -0.3722
19335TIP3    H279421   1.160   4.877  11.484  0.6956  1.1732  0.7324
19336TIP3   OH279422   2.052   6.602  16.290  0.0061 -0.3100  0.0051
19336TIP3    H179423   2.092   6.640  16.212 -1.5600 -0.1329 -0.7166
19336TIP3    H279424   1.972   6.560  16.259 -1.3345  0.8934  1.6825
19337TIP3   OH279425   2.874   6.113   5.148 -0.8016 -0.0385  0.4169
19337TIP3    H179426   2.860   6.035   5.202  0.0850  1.2802  2.5872
19337TIP3    H279427   2.965   6.106   5.119 -0.7382  0.1672  0.5671
19338TIP3   OH279428   4.107   6.073   4.306 -0.1124  0.1072  0.3389
19338TIP3    H179429   4.153   5.997   4.341 -0.4726 -0.4583 -0.4073
19338TIP3    H279430   4.112   6.063   4.211 -1.0419  0.4791  0.2423
19339TIP3   OH279431   6.037   3.097   0.046  0.0792  0.1091  0.1667
19339TIP3    H179432   6.116   3.105   0.099 -0.1391 -0.4215  0.5707
19339TIP3    H279433   6.069   3.083  -0.043  0.4342 -0.9813  0.4685
19340TIP3   OH279434   5.830   1.053   1.205  0.5482  0.1974  0.3318
19340TIP3    H179435   5.830   1.140   1.164  1.3171  0.6614  1.2848
19340TIP3    H279436   5.835   0.992   1.132  1.0774  0.9903 -0.3060
19341TIP3   OH279437   5.111   5.040   4.510  0.0036  0.4515 -0.5345
19341TIP3    H179438   5.147   5.078   4.590 -0.0619  1.0151 -0.7714
19341TIP3    H279439   5.029   4.999   4.538  0.5377 -0.3496 -0.1013
19342TIP3   OH279440   5.594   5.746   3.670  0.4872 -0.0967 -0.1453
19342TIP3    H179441   5.688   5.754   3.689  0.6067  1.1527 -1.1715
19342TIP3    H279442   5.552   5.771   3.752  1.0450 -0.2411  0.1923
19343TIP3   OH279443   0.708   0.307  14.982 -0.3032 -0.2883 -0.5739
19343TIP3    H179444   0.685   0.339  14.895  0.6985  0.7366 -0.4737
19343TIP3    H279445   0.759   0.227  14.965  0.8412  0.5176 -0.9699
19344TIP3   OH279446   3.043   0.271   4.880 -0.1852  0.7606 -0.2065
19344TIP3    H179447   3.056   0.200   4.943 -0.3031  2.6598  1.9728
19344TIP3    H279448   2.949   0.286   4.879 -0.2807  0.2073 -1.4754
19345TIP3   OH279449   2.060   1.356   1.596  0.3652 -0.6666 -0.4890
19345TIP3    H179450   2.008   1.365   1.677  1.7646 -1.2661  0.4952
19345TIP3    H279451   1.995   1.348   1.527 -0.8750  0.8651  0.4611
19346TIP3   OH279452   2.545   6.766   1.313  0.7600 -0.1135 -0.9826
19346TIP3    H179453   2.468   6.790   1.263 -1.0723 -1.5154  1.0542
19346TIP3    H279454   2.518   6.690   1.364  2.9112  0.4714  1.1586
19347TIP3   OH279455   2.795   1.386   5.089  0.2862  0.3477  0.4446
19347TIP3    H179456   2.726   1.436   5.044  0.4833 -0.6008 -0.9337
19347TIP3    H279457   2.875   1.436   5.073  0.3157  0.1444 -0.0322
19348TIP3   OH279458   6.383   4.626   1.611 -0.1670  0.4345  0.3939
19348TIP3    H179459   6.372   4.547   1.558 -1.3141  1.2099 -0.5500
19348TIP3    H279460   6.331   4.610   1.689 -0.5432  0.3101  0.1234
19349TIP3   OH279461   5.056   5.681  12.652 -0.5556  0.3362  0.1907
19349TIP3    H179462   5.084   5.684  12.561  0.1159 -0.8228  0.3546
19349TIP3    H279463   4.962   5.701  12.649 -0.3946  0.9887 -0.6770
19350TIP3   OH279464   2.185   1.948   1.920  0.0864 -0.0401  0.4365
19350TIP3    H179465   2.249   2.014   1.893  1.1216 -1.8771 -1.7942
19350TIP3    H279466   2.100   1.989   1.905  0.7168  0.8479 -0.7621
19351TIP3   OH279467   2.578   3.387   3.310  0.4938 -0.0127 -0.7851
19351TIP3    H179468   2.635   3.445   3.361 -2.8952  3.1870 -0.4111
19351TIP3    H279469   2.585   3.420   3.220 -2.4268  1.9170 -0.3600
19352TIP3   OH279470   1.006   0.515  16.149 -0.3948 -0.5923  0.4620
19352TIP3    H179471   1.061   0.563  16.088  0.8960 -3.2517 -0.5651
19352TIP3    H279472   1.067   0.480  16.214 -1.3420 -0.5242  1.4025
19353TIP3   OH279473   1.945   2.393   1.747 -0.8535  0.0516 -0.3899
19353TIP3    H179474   1.866   2.393   1.693 -1.1122  1.0882 -0.0265
19353TIP3    H279475   1.920   2.440   1.827 -0.0284 -0.0882 -0.0439
19354TIP3   OH279476   0.058   0.036   4.454 -0.7029  0.2836  0.0288
19354TIP3    H179477   0.149   0.017   4.431 -1.2984 -0.3891 -1.8037
19354TIP3    H279478   0.042  -0.019   4.531  0.7062  1.1226  0.9622
19355TIP3   OH279479   2.684   6.529   3.575 -0.2344  0.3051 -0.1192
19355TIP3    H179480   2.678   6.624   3.582  1.3467  0.4266 -0.1391
19355TIP3    H279481   2.632   6.496   3.648  1.8807  1.2766  1.8985
19356TIP3   OH279482   5.337   3.046  15.510 -0.4333 -0.3889  0.4252
19356TIP3    H179483   5.326   2.963  15.462 -0.6941  0.7780 -1.6111
19356TIP3    H279484   5.432   3.053  15.523 -0.1722  0.1661 -1.6063
19357TIP3   OH279485   5.156   3.038   0.493 -0.0029 -0.0546 -0.0753
19357TIP3    H179486   5.094   3.016   0.423  0.3072 -0.5487 -0.1943
19357TIP3    H279487   5.241   3.009   0.461  0.6318  2.4689 -0.7793
19358TIP3   OH279488   2.355   4.328   2.788  0.4169  0.6972 -0.2701
19358TIP3    H179489   2.349   4.238   2.822  1.1074  0.7108 -0.1098
19358TIP3    H279490   2.444   4.356   2.809  0.7390  0.8418 -1.7691
19359TIP3   OH279491   3.852   5.533  13.940  0.1316  0.1086 -0.0609
19359TIP3    H179492   3.905   5.464  13.980 -0.7778 -1.0969 -0.9202
19359TIP3    H279493   3.882   5.536  13.849 -2.6905 -2.0529 -1.1284
19360TIP3   OH279494   4.188   2.948   0.262 -0.0310 -0.3883  0.1900
19360TIP3    H179495   4.252   3.002   0.215  0.7272  0.0281  1.6505
19360TIP3    H279496   4.140   3.009   0.317  1.6509 -1.2837  2.7741
19361TIP3   OH279497   5.134   1.965   0.621  0.3114 -0.1355  0.1587
19361TIP3    H179498   5.180   1.915   0.688  2.2322  1.5388  0.1357
19361TIP3    H279499   5.201   2.022   0.583 -1.2902  0.7153 -1.4590
19362TIP3   OH279500   1.146   4.835  16.760  0.1694  0.0026 -0.1190
19362TIP3    H179501   1.140   4.818  16.854 -1.2444  1.2433  0.0455
19362TIP3    H279502   1.170   4.928  16.755 -1.4423  0.3953 -0.9684
19363TIP3   OH279503   4.866   1.286  15.263 -0.3676 -0.3736 -0.0293
19363TIP3    H179504   4.812   1.328  15.330 -1.1948 -2.0042  0.3454
19363TIP3    H279505   4.951   1.329  15.270 -1.0586  0.8905  0.6717
19364TIP3   OH279506   0.830   1.905  15.846  0.2456 -0.4061  0.0728
19364TIP3    H179507   0.840   1.953  15.764 -0.6174 -0.5014 -0.0920
19364TIP3    H279508   0.905   1.846  15.848  0.8369  0.3313 -0.1467
19365TIP3   OH279509   0.560   0.458  13.956  0.6009  0.1800 -0.2934
19365TIP3    H179510   0.526   0.446  13.868 -0.3736  2.0447 -0.1816
19365TIP3    H279511   0.615   0.536  13.950  0.8723  0.0673  0.6583
19366TIP3   OH279512   6.164   4.162   3.299  0.1878  0.1250  0.2275
19366TIP3    H179513   6.214   4.140   3.220 -1.2873 -1.5944 -0.2760
19366TIP3    H279514   6.073   4.141   3.276 -0.4927  1.1566  1.8469
19367TIP3   OH279515   2.744   0.676   2.170 -0.1193 -0.6482  0.3749
19367TIP3    H179516   2.775   0.760   2.205 -3.2616 -0.2826  2.4795
19367TIP3    H279517   2.716   0.627   2.247 -0.2742 -2.8166 -1.0402
19368TIP3   OH279518   6.034   1.854   1.930 -0.4203  0.1728  0.5026
19368TIP3    H179519   6.064   1.792   1.996 -1.1102 -0.6814  0.0188
19368TIP3    H279520   5.956   1.894   1.969 -1.2643 -0.8722 -0.0885
19369TIP3   OH279521   4.049   5.859   4.624 -0.3449 -0.3637 -0.7012
19369TIP3    H179522   4.084   5.882   4.710  0.7074 -0.0807 -1.1980
19369TIP3    H279523   4.126   5.839   4.571 -0.8328  1.5333 -2.1953
19370TIP3   OH279524   0.187   6.768  12.239 -0.0287 -0.7636  0.3509
19370TIP3    H179525   0.259   6.819  12.201  0.9902 -1.9069  0.7267
19370TIP3    H279526   0.108   6.807  12.202  0.9128 -1.7146 -2.7466
19371TIP3   OH279527   0.508   0.773  12.734  0.2239 -0.2968 -0.1639
19371TIP3    H179528   0.532   0.789  12.825  0.0191 -0.1209 -0.1382
19371TIP3    H279529   0.541   0.685  12.715  0.3828 -0.2817  0.0392
19372TIP3   OH279530   4.849   1.637  16.077 -0.2624 -0.1342 -0.0390
19372TIP3    H179531   4.897   1.600  16.003 -0.2427 -0.1900  0.0008
19372TIP3    H279532   4.774   1.682  16.036 -0.5621 -0.6437 -0.0560
19373TIP3   OH279533   4.834   2.397   1.200 -0.3827  0.3767  0.0320
19373TIP3    H179534   4.900   2.465   1.187  0.0309  0.0947  0.5951
19373TIP3    H279535   4.867   2.322   1.151 -0.4443  0.3364  0.0517
19374TIP3   OH279536   1.444   1.392   3.693 -0.6103  0.1688 -0.1854
19374TIP3    H179537   1.391   1.418   3.769 -0.3431  0.2637 -0.0335
19374TIP3    H279538   1.524   1.355   3.730 -1.3387 -1.6416 -0.3803
19375TIP3   OH279539   1.907   0.094   4.682 -0.1779 -0.7629 -0.2684
19375TIP3    H179540   1.906   0.151   4.759  0.8625 -0.9026 -0.1426
19375TIP3    H279541   1.989   0.114   4.638  0.4192 -2.4862  0.0142
19376TIP3   OH279542   2.534   0.144   1.515 -0.4038  0.1499 -0.6222
19376TIP3    H179543   2.556   0.089   1.440 -0.9836 -2.8859  1.3228
19376TIP3    H279544   2.443   0.123   1.534 -0.4345  1.2976  0.6057
19377TIP3   OH279545   6.746   6.097   4.264 -0.5383 -0.3536  0.1074
19377TIP3    H179546   6.791   6.013   4.254 -1.4356 -0.8252 -0.0719
19377TIP3    H279547   6.765   6.124   4.354  0.5714 -0.2574 -0.1497
19378TIP3   OH279548   2.620   2.181   0.893 -0.0601  0.1773  0.3530
19378TIP3    H179549   2.685   2.194   0.823 -1.2122 -0.1135 -0.7968
19378TIP3    H279550   2.671   2.181   0.974  1.2908  0.6219 -0.4853
19379TIP3   OH279551   0.944   3.272  13.051  0.3374  0.4203 -0.5177
19379TIP3    H179552   0.909   3.287  12.963 -0.1731  0.6007 -0.2838
19379TIP3    H279553   0.920   3.350  13.101  0.7708  0.3926 -0.2572
19380TIP3   OH279554   4.724   3.765   1.008  0.5702  0.1393 -0.2139
19380TIP3    H179555   4.629   3.776   1.017  0.4211  0.9225 -2.4147
19380TIP3    H279556   4.734   3.709   0.932  1.9331  2.1491 -1.5586
19381TIP3   OH279557   0.019   1.078  16.911 -0.1272 -0.3617 -0.0288
19381TIP3    H179558   0.014   1.114  16.822  2.0409  0.1493  0.0141
19381TIP3    H279559   0.083   1.134  16.955 -2.1565  0.2334  2.2906
19382TIP3   OH279560   6.187   1.197   2.257 -0.0488 -0.3152 -0.0897
19382TIP3    H179561   6.117   1.229   2.200  0.1223  1.0575  0.4460
19382TIP3    H279562   6.163   1.228   2.344  0.0832 -1.7557  0.4706
19383TIP3   OH279563   6.382   5.866  12.661 -1.0864 -0.0736  0.4718
19383TIP3    H179564   6.359   5.921  12.587 -1.6897 -1.6626 -0.5375
19383TIP3    H279565   6.404   5.928  12.731  0.7343  1.4602 -1.3828
19384TIP3   OH279566   2.136   6.768  14.989  0.0017 -0.5527  0.4430
19384TIP3    H179567   2.123   6.750  15.082  2.1994 -0.5288  0.7706
19384TIP3    H279568   2.217   6.724  14.967 -1.1819 -1.6740 -1.8079
19385TIP3   OH279569   5.044   4.961  17.195  0.0895  0.3981 -0.4588
19385TIP3    H179570   5.069   5.045  17.158 -0.9044  0.5709 -0.7484
19385TIP3    H279571   4.954   4.973  17.226  0.0045 -0.4909 -0.3259
19386TIP3   OH279572   6.357   5.114   4.264 -0.0054  0.6746 -0.2944
19386TIP3    H179573   6.309   5.113   4.347 -1.3579 -1.1775 -1.0500
19386TIP3    H279574   6.300   5.162   4.204  0.3407  0.8117 -0.5146
19387TIP3   OH279575   5.072   4.710  12.633 -0.1739  0.4905 -0.5902
19387TIP3    H179576   5.066   4.806  12.630 -1.1790  0.4013 -2.9521
19387TIP3    H279577   4.991   4.682  12.675  0.2260  0.6921  0.3140
19388TIP3   OH279578   5.037   1.411   1.748 -0.1313 -0.9181  0.2378
19388TIP3    H179579   5.009   1.321   1.732 -1.1333 -0.4997 -0.3703
19388TIP3    H279580   4.956   1.460   1.757  0.3966  0.2518 -1.2024
19389TIP3   OH279581   5.749   4.325  15.336 -0.1045  0.1861  0.4233
19389TIP3    H179582   5.699   4.267  15.394 -0.6795 -0.4422 -0.6815
19389TIP3    H279583   5.820   4.359  15.391 -1.3083  0.5020  1.8065
19390TIP3   OH279584   0.505   4.709  14.260 -0.1940  0.3932 -0.0257
19390TIP3    H179585   0.529   4.789  14.307 -1.2714  0.9793 -0.4477
19390TIP3    H279586   0.588   4.672  14.230  0.3714  0.9214  0.8628
19391TIP3   OH279587   3.293   1.463  14.269  0.1982 -0.4377  0.3715
19391TIP3    H179588   3.281   1.452  14.175  0.6800 -2.9322  0.5615
19391TIP3    H279589   3.235   1.536  14.292  1.0867  1.1206 -2.0512
19392TIP3   OH279590   4.598   4.965   5.288  0.2642  0.8240 -0.5996
19392TIP3    H179591   4.693   4.974   5.295  0.3616 -0.7302  0.3363
19392TIP3    H279592   4.586   4.912   5.209  0.1908  0.9301 -0.6582
19393TIP3   OH279593   4.941   3.008  11.963 -0.1480 -0.0312  0.0953
19393TIP3    H179594   4.906   3.064  12.032  0.4330  1.2663 -0.6481
19393TIP3    H279595   4.884   2.931  11.963 -2.5156  1.6532 -0.5409
19394TIP3   OH279596   3.468   1.982  13.955 -0.1080 -0.5037 -0.4931
19394TIP3    H179597   3.547   2.009  14.002 -0.7684 -0.4373  0.6160
19394TIP3    H279598   3.476   2.021  13.868  1.6538 -1.5194 -0.7951
19395TIP3   OH279599   4.626   4.991  13.476  0.1040  0.0639  0.6165
19395TIP3    H179600   4.571   5.000  13.398  2.3406 -1.2991 -1.1911
19395TIP3    H279601   4.606   4.903  13.509  2.2473 -1.0593 -0.9525
19396TIP3   OH279602   4.076   3.525  14.342 -0.6054 -0.5223  0.4206
19396TIP3    H179603   4.009   3.474  14.388 -1.3148 -0.8821 -1.0108
19396TIP3    H279604   4.058   3.511  14.249 -0.0594  1.3621  0.0127
19397TIP3   OH279605   5.990   1.094   4.113  0.4999 -0.1013  0.2275
19397TIP3    H179606   5.997   1.157   4.185  2.2301  0.8510 -0.7348
19397TIP3    H279607   6.062   1.117   4.054 -0.1139 -1.6757 -1.1781
19398TIP3   OH279608   4.094   3.452   2.620 -0.4792 -0.0127 -0.3436
19398TIP3    H179609   4.051   3.537   2.610  0.3921  0.2025 -2.4111
19398TIP3    H279610   4.081   3.409   2.536  2.4045 -0.3827 -0.6336
19399TIP3   OH279611   2.938   1.426  15.549 -0.2348 -0.3017  0.0577
19399TIP3    H179612   2.961   1.431  15.642  0.8964  1.5174 -0.3069
19399TIP3    H279613   3.018   1.449  15.503 -1.3099  0.6775 -1.3510
19400TIP3   OH279614   5.225   5.290   1.219 -0.1057  0.4904  0.2373
19400TIP3    H179615   5.301   5.338   1.185  0.0768  0.2263  0.2696
19400TIP3    H279616   5.153   5.316   1.161  0.0190  0.7012  0.1740
19401TIP3   OH279617   4.067   5.123   4.088  0.1317  0.4951  0.1685
19401TIP3    H179618   3.991   5.093   4.139 -0.1062  0.1454 -0.3823
19401TIP3    H279619   4.053   5.217   4.079  0.5603  0.6920  1.3735
19402TIP3   OH279620   0.436   0.477  12.840  0.1861 -0.1570 -0.1100
19402TIP3    H179621   0.343   0.492  12.861  1.0120  0.4490  3.5292
19402TIP3    H279622   0.454   0.391  12.878  1.1251 -0.2626 -0.7938
19403TIP3   OH279623   5.211   4.363  16.209  0.2929 -0.4794 -0.2685
19403TIP3    H179624   5.145   4.390  16.274  0.0417 -2.4798  0.3326
19403TIP3    H279625   5.250   4.445  16.180 -1.1453  0.6111  0.7756
19404TIP3   OH279626   4.660   4.006   3.181  0.7345 -0.0701 -0.1266
19404TIP3    H179627   4.634   3.926   3.136  0.6189  0.7625 -1.5726
19404TIP3    H279628   4.719   3.977   3.250 -0.1204 -1.4925  0.0046
19405TIP3   OH279629   6.466   3.021   4.062  0.4561  0.1573 -0.2051
19405TIP3    H179630   6.441   3.046   4.151  0.0283 -1.1366  0.0420
19405TIP3    H279631   6.435   3.094   4.008  0.1691  0.6606  0.6198
19406TIP3   OH279632   0.638   1.562  12.476 -0.5792 -0.1233 -0.5288
19406TIP3    H179633   0.552   1.521  12.464 -0.8714  0.5549 -0.7799
19406TIP3    H279634   0.656   1.606  12.393  0.1074 -0.4295 -0.5445
19407TIP3   OH279635   5.852   2.596   3.377  0.4473 -0.1464  0.3753
19407TIP3    H179636   5.863   2.560   3.466  3.1777 -2.4797 -0.8124
19407TIP3    H279637   5.820   2.523   3.325 -1.2658  1.2447 -0.5687
19408TIP3   OH279638   1.391   1.407   1.337 -0.4791  0.3819 -0.1574
19408TIP3    H179639   1.439   1.333   1.300 -0.2672 -0.9401  2.6608
19408TIP3    H279640   1.381   1.468   1.263  1.7859 -1.1905 -1.8387
19409TIP3   OH279641   1.731   1.823   3.033 -0.2076 -0.2321 -0.2376
19409TIP3    H179642   1.678   1.800   3.108 -1.3868 -2.5432 -1.7166
19409TIP3    H279643   1.821   1.828   3.067 -1.0326  1.4160  1.8053
19410TIP3   OH279644   2.836   3.178   4.967  0.4849 -0.4467  0.6677
19410TIP3    H179645   2.858   3.087   4.945 -1.5337 -1.2341  1.8239
19410TIP3    H279646   2.743   3.186   4.945  0.4539  1.1123  1.3238
19411TIP3   OH279647   1.205   0.627   2.989 -0.2374  0.3014  0.2645
19411TIP3    H179648   1.298   0.650   2.986 -0.5106  1.4831  0.6275
19411TIP3    H279649   1.192   0.591   3.077  0.0718 -0.7391 -0.1102
19412TIP3   OH279650   2.549   3.402  16.657 -0.2130 -0.8694 -0.1693
19412TIP3    H179651   2.593   3.420  16.740 -0.9430  0.9237 -0.1490
19412TIP3    H279652   2.504   3.318  16.671 -0.5135 -0.4703  1.3168
19413TIP3   OH279653   4.287   5.776  16.762  0.1668  0.1747 -0.5401
19413TIP3    H179654   4.238   5.751  16.683  1.5903 -1.8134 -0.8458
19413TIP3    H279655   4.241   5.734  16.834  0.9348 -1.0541 -0.7448
19414TIP3   OH279656   6.502   0.614   0.511 -0.5535 -0.0542 -0.3248
19414TIP3    H179657   6.516   0.655   0.596  2.5411  1.5172 -1.5164
19414TIP3    H279658   6.491   0.688   0.451 -1.4954 -1.1223 -1.5001
19415TIP3   OH279659   6.226   4.226  16.021 -0.5044 -0.2871 -0.2195
19415TIP3    H179660   6.248   4.314  15.988 -1.8236 -0.1629 -0.8535
19415TIP3    H279661   6.142   4.206  15.978 -2.7909  0.2556  3.8006
19416TIP3   OH279662   6.708   5.093  14.514  0.2683  0.1866 -0.4226
19416TIP3    H179663   6.707   5.171  14.459 -0.9428  0.1603 -0.4339
19416TIP3    H279664   6.725   5.126  14.602  1.2548  0.3142 -0.6490
19417TIP3   OH279665   3.984   0.035  12.123  0.5966 -0.5621  0.7642
19417TIP3    H179666   3.995  -0.044  12.175  1.9916 -0.8868 -0.0004
19417TIP3    H279667   4.057   0.091  12.148  1.2395 -0.6862 -0.7647
19418TIP3   OH279668   4.575   1.347   5.663  0.1192 -0.0043 -0.0840
19418TIP3    H179669   4.658   1.301   5.676 -0.8657 -1.7900  0.0695
19418TIP3    H279670   4.528   1.336   5.745 -0.3331  0.8563 -0.2244
19419TIP3   OH279671   3.053   4.872   4.691 -0.5427 -0.3833 -0.5297
19419TIP3    H179672   2.970   4.892   4.649 -1.3905 -0.8938  0.8601
19419TIP3    H279673   3.105   4.953   4.682 -2.0124  0.7145  0.5067
19420TIP3   OH279674   5.520   3.987  14.259  0.1455 -0.3671 -0.0002
19420TIP3    H179675   5.607   3.948  14.257  0.0080 -0.7617  1.0948
19420TIP3    H279676   5.477   3.946  14.334 -0.6342  0.5517  0.0708
19421TIP3   OH279677   4.189   5.700  15.834  0.7111  0.0148  0.3047
19421TIP3    H179678   4.229   5.779  15.870  1.0438  0.5308 -1.1456
19421TIP3    H279679   4.103   5.729  15.802  0.8742 -0.1987 -0.3228
19422TIP3   OH279680   3.519   4.912  11.160  0.4374 -1.0366 -0.3907
19422TIP3    H179681   3.482   4.893  11.246 -1.7095 -1.6068 -1.4112
19422TIP3    H279682   3.471   4.855  11.100  1.1709  0.1154 -2.1153
19423TIP3   OH279683   3.997   0.068  14.509  0.0911  0.5497 -0.2043
19423TIP3    H179684   4.047   0.094  14.586  0.7397 -0.5644 -0.2377
19423TIP3    H279685   3.918   0.026  14.545  1.3350 -1.7823 -0.1094
19424TIP3   OH279686   1.238   6.469   5.942 -0.1950 -0.2695 -0.2748
19424TIP3    H179687   1.221   6.528   5.869 -2.1804  0.6038  0.8369
19424TIP3    H279688   1.152   6.430   5.961  0.6028 -1.6606  0.5880
19425TIP3   OH279689   1.246   2.066  13.926  0.2526 -0.3267  0.4972
19425TIP3    H179690   1.209   2.025  14.004  1.6072  0.5896  1.6370
19425TIP3    H279691   1.237   2.160  13.942 -1.1778 -0.1277 -1.2907
19426TIP3   OH279692   0.551   2.777   4.599  1.0190  0.0702 -0.1350
19426TIP3    H179693   0.467   2.738   4.574  1.0252 -0.1420  0.1671
19426TIP3    H279694   0.606   2.703   4.624  1.2696  0.2155 -0.2539
19427TIP3   OH279695   6.002   4.867  12.823  0.9287  0.0785  0.6392
19427TIP3    H179696   6.006   4.953  12.867  1.4816  0.8754 -0.9531
19427TIP3    H279697   5.989   4.805  12.895  1.0509  1.4383  1.8719
19428TIP3   OH279698   0.885   0.351   6.228  0.3256 -0.3671 -0.2359
19428TIP3    H179699   0.824   0.291   6.186 -0.8621 -0.4339  1.5440
19428TIP3    H279700   0.932   0.297   6.292  1.1363  0.0394 -0.4749
19429TIP3   OH279701   0.304   1.765   1.376  0.0079 -0.1820 -0.3567
19429TIP3    H179702   0.214   1.746   1.402  0.1821 -2.5364 -1.4235
19429TIP3    H279703   0.358   1.726   1.446  0.2418  0.5371 -0.1259
19430TIP3   OH279704   4.703   3.965  17.000 -0.1823  0.1696 -0.2767
19430TIP3    H179705   4.661   4.051  17.007  0.5811  0.4770  0.6902
19430TIP3    H279706   4.780   3.980  16.946  1.1765  0.5827  1.7315
19431TIP3   OH279707   2.242   0.512  14.849 -0.1241 -0.4389  0.7993
19431TIP3    H179708   2.295   0.582  14.886 -2.9956  1.2948  1.7202
19431TIP3    H279709   2.219   0.543  14.761 -2.1682  0.2145  1.5521
19432TIP3   OH279710   1.193   0.634  12.426 -0.4823 -0.3063 -0.6929
19432TIP3    H179711   1.198   0.634  12.522 -0.9940  1.0633 -0.6533
19432TIP3    H279712   1.120   0.692  12.406  1.0438  1.2326 -1.9696
19433TIP3   OH279713   0.486   3.914  14.721 -0.0238  0.1802 -0.1697
19433TIP3    H179714   0.515   3.823  14.718  1.3886  0.5899  0.3300
19433TIP3    H279715   0.409   3.917  14.664 -0.5054 -1.4624  0.3591
19434TIP3   OH279716   1.487   2.189   4.440  0.7403 -0.4731  0.0898
19434TIP3    H179717   1.471   2.283   4.448 -1.5476 -0.8932  0.7882
19434TIP3    H279718   1.564   2.182   4.383 -0.8190  1.7396 -2.3893
19435TIP3   OH279719   3.956   4.737   2.401 -0.6963 -0.3416 -0.1258
19435TIP3    H179720   3.965   4.832   2.412  0.8011 -0.3007 -1.4090
19435TIP3    H279721   3.981   4.701   2.487  0.9856  0.3490 -0.2917
19436TIP3   OH279722   0.284   4.213   0.558  0.2656  0.3449  0.9510
19436TIP3    H179723   0.234   4.283   0.516 -0.8503 -0.6541  0.5698
19436TIP3    H279724   0.308   4.154   0.487  0.2073 -0.2492  1.4173
19437TIP3   OH279725   0.177   4.285  13.060  0.0820  0.0634  0.5064
19437TIP3    H179726   0.192   4.236  13.141 -1.4727 -0.5700  0.4457
19437TIP3    H279727   0.105   4.238  13.018 -0.9693  1.9963  0.0931
19438TIP3   OH279728   2.012   4.455   3.361  0.7974 -0.1455 -0.2876
19438TIP3    H179729   2.039   4.547   3.356 -1.0724  0.4479  0.4043
19438TIP3    H279730   1.979   4.435   3.273  0.1572  0.1637 -0.1131
19439TIP3   OH279731   1.323   0.221   0.638 -0.0423 -0.1237 -0.2233
19439TIP3    H179732   1.276   0.301   0.614 -0.2755  0.3269  1.5959
19439TIP3    H279733   1.254   0.160   0.665  0.2492 -0.2885  0.1587
19440TIP3   OH279734   5.595   0.123   1.549 -0.6818 -0.0851  0.5242
19440TIP3    H179735   5.618   0.059   1.482  0.4181  1.0658 -0.2240
19440TIP3    H279736   5.674   0.176   1.560 -1.1953  0.4100  1.9660
19441TIP3   OH279737   1.359   0.865  12.281 -0.5071 -0.2731 -0.6450
19441TIP3    H179738   1.305   0.938  12.253 -0.3113  0.5352  1.0222
19441TIP3    H279739   1.324   0.841  12.367  1.4400 -0.0580  0.2413
19442TIP3   OH279740   4.386   6.065   1.571 -0.3612  0.2099  0.2903
19442TIP3    H179741   4.479   6.070   1.592 -0.4651  1.1536  0.5236
19442TIP3    H279742   4.352   6.152   1.592 -0.9915  0.3538 -1.2589
19443TIP3   OH279743   4.485   2.020   3.697  0.1031  0.0480  0.0171
19443TIP3    H179744   4.545   2.008   3.771  0.2281 -1.2120 -0.2774
19443TIP3    H279745   4.399   1.999   3.731  0.0153  0.4949  0.0757
19444TIP3   OH279746   1.008   2.528  14.708 -0.5656  0.2447 -0.4206
19444TIP3    H179747   1.042   2.441  14.728 -0.7733 -0.3734 -2.5931
19444TIP3    H279748   0.913   2.519  14.716 -0.4613  0.9950  1.9739
19445TIP3   OH279749   3.229   3.373   3.915  0.2270  0.2184  0.3557
19445TIP3    H179750   3.225   3.394   4.008  2.0764  0.7155  0.3508
19445TIP3    H279751   3.234   3.277   3.912  1.4543  0.2503  0.8556
19446TIP3   OH279752   6.084   4.782   2.460 -0.0866 -0.1885  0.1636
19446TIP3    H179753   6.074   4.874   2.485 -0.5990 -0.3393  0.5133
19446TIP3    H279754   6.011   4.737   2.503 -0.5358 -0.5702 -0.9713
19447TIP3   OH279755   6.614   0.873   2.010 -0.1199  0.3075  0.5530
19447TIP3    H179756   6.709   0.867   1.994 -0.3050  2.9638 -1.8037
19447TIP3    H279757   6.603   0.953   2.061 -0.9652 -1.0531  2.6099
19448TIP3   OH279758   2.906   3.823  16.507  0.0924  0.4758 -0.3194
19448TIP3    H179759   2.942   3.735  16.503  1.1224  0.9492 -2.3483
19448TIP3    H279760   2.949   3.870  16.435 -2.1648  1.9781 -0.7498
19449TIP3   OH279761   4.684   0.858  17.182 -0.3672 -0.0921  0.1963
19449TIP3    H179762   4.725   0.926  17.128  3.0993 -3.2402 -1.2829
19449TIP3    H279763   4.699   0.887  17.272  1.0061  1.1504 -0.4102
19450TIP3   OH279764   6.167   2.730  15.804  0.4783  0.6951 -0.3065
19450TIP3    H179765   6.129   2.800  15.751 -1.3142 -0.6583 -0.8423
19450TIP3    H279766   6.192   2.663  15.741  2.0892  0.7780  0.2158
19451TIP3   OH279767   4.414   4.126  15.305  0.6140  0.0942 -0.3289
19451TIP3    H179768   4.428   4.089  15.392 -0.7486 -0.9126 -0.5338
19451TIP3    H279769   4.428   4.220  15.316 -3.1091  0.4724  1.7591
19452TIP3   OH279770   2.208   2.764   3.719 -0.7183 -0.2020 -0.9005
19452TIP3    H179771   2.242   2.717   3.795 -0.3920 -0.5814 -1.2858
19452TIP3    H279772   2.153   2.833   3.757 -0.0953 -0.0342 -0.3056
19453TIP3   OH279773   1.579   1.555  13.133 -0.3480 -0.1863 -0.0979
19453TIP3    H179774   1.588   1.579  13.226 -1.1713  0.0474 -0.0699
19453TIP3    H279775   1.653   1.496  13.116 -1.5179 -2.1596  1.3616
19454TIP3   OH279776   2.300   2.763  12.305  0.1389 -0.7526 -0.5867
19454TIP3    H179777   2.326   2.851  12.333  0.4801 -0.7168 -1.0126
19454TIP3    H279778   2.206   2.759  12.323  0.4310 -0.8917  1.0061
19455TIP3   OH279779   1.800   1.341   5.183  0.2128  0.1718 -0.2924
19455TIP3    H179780   1.711   1.330   5.150 -0.3306  1.8088  0.5702
19455TIP3    H279781   1.805   1.432   5.210  1.6910 -0.2666  1.0346
19456TIP3   OH279782   1.656   2.317   5.971  1.0265  0.4635  0.1603
19456TIP3    H179783   1.733   2.355   6.014  0.9673  0.7042  0.0520
19456TIP3    H279784   1.608   2.274   6.042  2.4956 -1.7645 -0.1387
19457TIP3   OH279785   5.254   3.830  15.410 -0.1997 -0.3062  0.2513
19457TIP3    H179786   5.285   3.810  15.498  0.3472  0.2211  0.1815
19457TIP3    H279787   5.302   3.909  15.385  0.9373 -1.4240 -1.1923
19458TIP3   OH279788   5.060   1.303   3.020  0.0399  0.5166  0.3534
19458TIP3    H179789   5.047   1.395   3.041  0.0589  0.0243  2.7157
19458TIP3    H279790   5.113   1.269   3.092 -2.5506 -2.0439  1.1633
19459TIP3   OH279791   4.186   2.340  11.132  0.5177  0.2894  0.2922
19459TIP3    H179792   4.239   2.285  11.189  1.0884  0.4741 -0.0576
19459TIP3    H279793   4.159   2.414  11.186 -1.2759 -0.9361  1.1251
19460TIP3   OH279794   1.442   0.776   6.035 -0.1446  0.3229 -0.6817
19460TIP3    H179795   1.395   0.708   5.987  1.2219 -0.0761 -1.4790
19460TIP3    H279796   1.423   0.857   5.987  2.9994 -0.3821 -3.3160
19461TIP3   OH279797   5.105   5.361   0.984  0.1256 -0.1982 -0.0126
19461TIP3    H179798   5.082   5.318   0.902 -1.5959 -0.5445  0.6321
19461TIP3    H279799   5.144   5.444   0.957  2.3418 -1.5947 -1.2309
19462TIP3   OH279800   0.804   2.172   5.017  0.1634  0.3687 -0.4087
19462TIP3    H179801   0.896   2.173   4.989  1.0818  0.7520  2.4657
19462TIP3    H279802   0.805   2.125   5.100 -2.4803 -0.7667 -0.9727
19463TIP3   OH279803   4.595   3.397   0.267 -0.2147 -0.0371  0.1952
19463TIP3    H179804   4.539   3.420   0.341  1.3949  1.0260  1.1110
19463TIP3    H279805   4.559   3.445   0.193 -1.7728 -1.0277  0.3015
19464TIP3   OH279806   0.351   3.282   5.478  0.2394  0.1959  0.1647
19464TIP3    H179807   0.349   3.206   5.420  0.8005 -0.9821  1.6586
19464TIP3    H279808   0.363   3.357   5.420 -0.8287 -0.8007 -1.3748
19465TIP3   OH279809   5.810   2.298   0.259  0.2307  0.0009  0.2245
19465TIP3    H179810   5.718   2.320   0.246  0.8146  1.0096 -2.5032
19465TIP3    H279811   5.817   2.206   0.233  0.0164 -0.0842  0.4581
19466TIP3   OH279812   1.335   3.360  12.487  0.1583 -0.1416 -0.4003
19466TIP3    H179813   1.341   3.267  12.465  0.2788 -0.0768 -0.6377
19466TIP3    H279814   1.294   3.401  12.410 -0.2258 -0.0519 -0.1522
19467TIP3   OH279815   2.153   3.559  12.050  0.0787  0.3348 -0.2237
19467TIP3    H179816   2.234   3.595  12.014 -0.0722  0.0072 -0.8924
19467TIP3    H279817   2.141   3.476  12.005  1.3117 -1.3907  2.4784
19468TIP3   OH279818   5.273   0.117   1.996  0.0012 -0.3731  0.1909
19468TIP3    H179819   5.319   0.126   1.913  1.1367 -0.6304  0.7796
19468TIP3    H279820   5.190   0.076   1.973 -0.1451  0.5514 -0.9474
19469TIP3   OH279821   4.747   3.614  13.407  0.1753 -0.2456  0.3478
19469TIP3    H179822   4.833   3.619  13.365  0.7843  0.0852  1.6005
19469TIP3    H279823   4.686   3.593  13.336  1.6063 -2.8839 -0.1580
19470TIP3   OH279824   5.052   4.961   2.627  0.5085 -0.1182 -0.0044
19470TIP3    H179825   5.139   5.000   2.627  0.6852 -0.5082 -0.2546
19470TIP3    H279826   5.037   4.934   2.537  0.6855 -1.2589  0.2874
19471TIP3   OH279827   2.456   5.429   2.575  0.7344  0.5138 -0.7556
19471TIP3    H179828   2.504   5.353   2.542 -2.1067 -1.6613 -0.0823
19471TIP3    H279829   2.448   5.487   2.499  2.6106 -0.0240 -1.3831
19472TIP3   OH279830   4.245   4.648  12.993 -0.2081 -0.1956  0.0458
19472TIP3    H179831   4.310   4.693  13.047 -2.5880  1.9953  1.1859
19472TIP3    H279832   4.221   4.571  13.043 -0.0116  0.0972  0.5946
19473TIP3   OH279833   0.095   1.135   3.153 -0.0580 -0.0439  0.5909
19473TIP3    H179834   0.001   1.125   3.161  0.1711 -2.2335  0.6309
19473TIP3    H279835   0.114   1.219   3.196 -2.0391  0.7614 -0.0346
19474TIP3   OH279836   3.538   6.749  15.809 -0.0687 -0.0842  0.1328
19474TIP3    H179837   3.552   6.658  15.781 -0.4834 -0.1985  0.2923
19474TIP3    H279838   3.519   6.743  15.903 -0.2674  0.1503  0.1088
19475TIP3   OH279839   2.020   6.631  15.623 -0.1123  0.7300  0.5160
19475TIP3    H179840   1.968   6.569  15.571  0.4775  0.8299 -0.1985
19475TIP3    H279841   2.101   6.642  15.573  1.6741 -1.3341  2.8454
19476TIP3   OH279842   1.306   3.344  13.489 -0.2889  0.3790 -0.0581
19476TIP3    H179843   1.235   3.286  13.519  1.0573 -1.7288 -0.8005
19476TIP3    H279844   1.267   3.431  13.487 -3.2008 -0.8741 -1.4993
19477TIP3   OH279845   3.727   3.034   5.259  0.1911  0.1389 -0.0773
19477TIP3    H179846   3.634   3.057   5.249 -0.3425 -1.9422 -0.2937
19477TIP3    H279847   3.772   3.117   5.271 -1.5958  1.2491 -0.9366
19478TIP3   OH279848   3.377   4.967   0.833 -0.4010  0.4323 -0.0052
19478TIP3    H179849   3.465   4.966   0.796 -0.0400 -0.6556  0.8748
19478TIP3    H279850   3.341   4.881   0.811 -0.7503  0.3721  0.8180
19479TIP3   OH279851   1.861   1.379   0.746  0.4801 -0.4045 -0.6205
19479TIP3    H179852   1.904   1.302   0.708  2.4939 -0.2043  1.1906
19479TIP3    H279853   1.823   1.347   0.827 -2.1801 -0.3828 -1.8076
19480TIP3   OH279854   2.506   4.228  13.512 -0.7112 -0.0868  0.3896
19480TIP3    H179855   2.492   4.322  13.518 -0.4132  0.0332 -0.5959
19480TIP3    H279856   2.562   4.207  13.587  0.1778  0.7270 -0.0255
19481TIP3   OH279857   4.841   1.225   0.428  0.0994  0.4154  0.2318
19481TIP3    H179858   4.926   1.269   0.424  0.4709 -0.2674  0.4536
19481TIP3    H279859   4.837   1.191   0.518 -0.3790  0.3878  0.1978
19482TIP3   OH279860   2.629   3.921   3.052 -0.2393 -0.2597 -0.4029
19482TIP3    H179861   2.704   3.943   3.106 -0.2052 -0.7209 -0.2626
19482TIP3    H279862   2.631   3.986   2.981 -0.1426  0.1860  0.0064
19483TIP3   OH279863   1.583   5.660   1.416  0.3394  0.2838 -0.1252
19483TIP3    H179864   1.618   5.740   1.455 -0.9242  0.4245  0.7570
19483TIP3    H279865   1.572   5.600   1.490  0.2250 -0.3086 -0.6159
19484TIP3   OH279866   4.619   5.592  12.153 -0.6009 -0.4119  0.6042
19484TIP3    H179867   4.535   5.638  12.145 -0.3914 -0.1996 -0.4445
19484TIP3    H279868   4.685   5.661  12.141 -0.2761 -1.1678 -2.4828
19485TIP3   OH279869   4.092   6.006   0.081  0.0262  0.3738  0.4244
19485TIP3    H179870   4.176   6.041   0.052  0.0583  0.9352  1.1808
19485TIP3    H279871   4.027   6.067   0.045 -0.0539 -0.0167 -0.0961
19486TIP3   OH279872   5.720   2.049   1.448  0.0232  0.2326  0.1441
19486TIP3    H179873   5.676   1.965   1.442 -0.7028  0.6838 -0.8107
19486TIP3    H279874   5.650   2.113   1.463  0.5952  0.6395  1.1689
19487TIP3   OH279875   4.607   4.099   0.859 -0.3912 -0.1168 -0.5533
19487TIP3    H179876   4.528   4.127   0.905 -1.2690 -1.4951 -1.1912
19487TIP3    H279877   4.663   4.063   0.927  0.1283  1.8134  0.0526
19488TIP3   OH279878   3.032   1.072   0.384  0.5297  0.5700 -0.2614
19488TIP3    H179879   3.068   1.034   0.304 -1.8828 -1.3070 -0.4965
19488TIP3    H279880   3.046   1.167   0.373 -1.2271  0.5171 -3.6989
19489TIP3   OH279881   0.998   3.581   1.975 -0.0952  0.5208  0.2144
19489TIP3    H179882   0.984   3.571   2.069  1.1957 -0.1339  0.3411
19489TIP3    H279883   1.066   3.647   1.967 -0.7091  1.1037 -0.2945
19490TIP3   OH279884   2.390   4.291  15.231  0.2043  0.2985 -0.2509
19490TIP3    H179885   2.390   4.387  15.228  1.6410  0.3069 -0.2769
19490TIP3    H279886   2.358   4.270  15.319  0.3550  0.8119 -0.0717
19491TIP3   OH279887   0.593   1.062  16.848  0.1439 -0.5784  0.0425
19491TIP3    H179888   0.602   1.156  16.830  1.9237 -0.8539 -0.6431
19491TIP3    H279889   0.618   1.052  16.940 -0.6384 -0.2988  0.2866
19492TIP3   OH279890   4.926   5.296   3.653 -0.2317 -0.2980  0.5148
19492TIP3    H179891   4.838   5.328   3.637 -0.1679 -0.8407 -1.1054
19492TIP3    H279892   4.915   5.225   3.716 -0.9770 -0.4769  0.1884
19493TIP3   OH279893   3.592   0.589   4.204  0.2365  0.4254 -0.1740
19493TIP3    H179894   3.616   0.502   4.172  0.1344  1.1896 -2.3976
19493TIP3    H279895   3.528   0.572   4.273  1.4089 -1.3110  0.5396
19494TIP3   OH279896   0.202   1.725   5.623  0.1167 -0.1061 -0.4651
19494TIP3    H179897   0.119   1.692   5.588  0.1056  0.4812 -1.0147
19494TIP3    H279898   0.230   1.792   5.560  1.0139 -0.3037 -0.2943
19495TIP3   OH279899   4.796   6.701   6.234  0.1554 -0.1010 -0.5756
19495TIP3    H179900   4.749   6.773   6.275 -0.4245  0.1260 -1.6154
19495TIP3    H279901   4.797   6.632   6.300  2.2495  1.4496  1.0962
19496TIP3   OH279902   0.868   4.946  16.478  0.4709  0.2937  0.5606
19496TIP3    H179903   0.904   5.016  16.423  1.0140  0.4579  1.1300
19496TIP3    H279904   0.896   4.865  16.435 -0.4544  0.4136 -0.2963
19497TIP3   OH279905   2.061   0.150  13.292  0.1906  0.4887  0.1577
19497TIP3    H179906   1.995   0.185  13.232  3.8104  2.7512 -2.7412
19497TIP3    H279907   2.062   0.056  13.274 -1.9690  0.4727  0.0164
19498TIP3   OH279908   1.974   2.719  15.116 -0.2717  0.4027  0.4952
19498TIP3    H179909   1.885   2.685  15.108 -0.1940  0.0606  1.0946
19498TIP3    H279910   2.030   2.649  15.082 -0.3207  1.1662 -1.1890
19499TIP3   OH279911   3.680   4.214   4.161 -0.2124 -0.0246 -0.3214
19499TIP3    H179912   3.605   4.160   4.135 -1.1679  1.0005  0.2793
19499TIP3    H279913   3.694   4.192   4.254  0.0448  0.0111 -0.3512
19500TIP3   OH279914   0.917   3.320   3.060 -0.3328 -0.9302  0.1485
19500TIP3    H179915   0.832   3.338   3.020 -0.7230  0.8781  1.7334
19500TIP3    H279916   0.979   3.370   3.007 -0.7477  0.7915  1.2359
19501TIP3   OH279917   4.291   6.030  11.167 -0.0812 -0.6329  0.4007
19501TIP3    H179918   4.253   6.101  11.220 -0.7217 -0.0216 -0.8616
19501TIP3    H279919   4.246   5.951  11.197  0.4831 -0.4995  1.6623
19502TIP3   OH279920   4.197   3.240  10.842  0.5231 -0.0838  0.2894
19502TIP3    H179921   4.290   3.236  10.822  0.3219 -1.9047 -0.3675
19502TIP3    H279922   4.162   3.158  10.809 -1.4268  0.8355 -0.0010
19503TIP3   OH279923   0.225   1.427  12.911  0.0329 -0.0626 -0.0736
19503TIP3    H179924   0.165   1.460  12.977 -0.5729 -0.4608 -0.4182
19503TIP3    H279925   0.282   1.366  12.957  0.9252  1.1579  0.4939
19504TIP3   OH279926   5.467   2.450  12.229 -0.4568  0.0685  0.0150
19504TIP3    H179927   5.555   2.420  12.250 -0.3091 -0.2867 -1.0864
19504TIP3    H279928   5.433   2.385  12.167 -0.8983  1.0736 -0.8107
19505TIP3   OH279929   1.094   3.885  12.711  0.2259 -0.2822  0.4138
19505TIP3    H179930   1.067   3.810  12.658  0.7435  0.4554 -0.9166
19505TIP3    H279931   1.166   3.851  12.764  1.6304 -0.2946 -1.4405
19506TIP3   OH279932   1.977   2.422   1.308  0.2281 -0.0588  0.6039
19506TIP3    H179933   2.063   2.381   1.321  0.4786  0.2150 -0.1617
19506TIP3    H279934   1.942   2.433   1.396  0.6865 -0.7979  0.8807
19507TIP3   OH279935   4.986   3.373  14.196 -0.4526 -0.1117 -0.4769
19507TIP3    H179936   4.967   3.345  14.107 -0.8534 -0.8901 -0.1463
19507TIP3    H279937   4.987   3.292  14.247  2.2463  0.0388 -0.2115
19508TIP3   OH279938   4.026   4.770   1.101  0.3079 -0.8910  0.0828
19508TIP3    H179939   4.088   4.760   1.173  1.9955  1.3259 -0.9838
19508TIP3    H279940   4.073   4.822   1.036 -3.0620  1.9637 -0.2569
19509TIP3   OH279941   4.380   0.841   5.681 -0.3231  0.1632  0.0696
19509TIP3    H179942   4.316   0.795   5.626  0.0335 -0.9117  0.5392
19509TIP3    H279943   4.461   0.792   5.671  0.8128  2.3205 -1.5715
19510TIP3   OH279944   3.980   4.894  12.390  0.6073 -0.0058  0.1928
19510TIP3    H179945   4.023   4.852  12.316  0.8309  0.2609  0.1664
19510TIP3    H279946   4.051   4.913  12.452  0.5402  0.5028  0.1179
19511TIP3   OH279947   1.798   4.457   1.452  0.5310 -0.3073 -0.3251
19511TIP3    H179948   1.860   4.386   1.439  1.5166  0.2938  0.8882
19511TIP3    H279949   1.818   4.520   1.383  0.8564 -0.3986 -0.3143
19512TIP3   OH279950   4.906   3.737   3.695 -0.2996  0.1602  0.2313
19512TIP3    H179951   4.963   3.803   3.654  0.1513  0.8748  1.9418
19512TIP3    H279952   4.893   3.671   3.628  1.5263  0.6284 -0.6196
19513TIP3   OH279953   4.760   5.686  11.611  0.6601  0.4618 -0.6544
19513TIP3    H179954   4.678   5.643  11.586  0.9492 -0.3124 -0.2784
19513TIP3    H279955   4.827   5.644  11.558  0.8718  0.8312 -0.6838
19514TIP3   OH279956   4.633   0.821  13.515 -0.8544  0.3054 -0.2498
19514TIP3    H179957   4.544   0.787  13.521 -0.2136 -1.1443  2.2430
19514TIP3    H279958   4.651   0.827  13.422 -3.0297 -0.8291 -0.7679
19515TIP3   OH279959   6.047   1.989   2.861 -0.2920  0.5065  0.3271
19515TIP3    H179960   6.007   2.064   2.817 -1.6175  0.2285  1.0184
19515TIP3    H279961   5.991   1.915   2.837  0.4178 -0.0855  0.4761
19516TIP3   OH279962   3.123   2.438   5.660 -0.5510 -0.8326  0.2744
19516TIP3    H179963   3.040   2.417   5.704 -0.3022 -0.8396  0.7378
19516TIP3    H279964   3.098   2.499   5.590 -0.8095 -0.0027  1.0730
19517TIP3   OH279965   5.977   6.103  12.711 -0.4625  0.1927  0.4073
19517TIP3    H179966   5.888   6.120  12.740 -0.5322  2.2100 -0.9271
19517TIP3    H279967   5.978   6.010  12.689 -0.9677 -0.9921  4.7591
19518TIP3   OH279968   1.092   6.517   0.091  0.3506 -0.4260  0.3781
19518TIP3    H179969   1.026   6.470   0.142  2.5928 -0.9162  2.9186
19518TIP3    H279970   1.084   6.608   0.119  0.5615 -0.4341  0.4658
19519TIP3   OH279971   4.080   0.373   5.757 -0.1272 -0.4859  0.1694
19519TIP3    H179972   4.131   0.294   5.740  1.6227  0.7227 -0.3599
19519TIP3    H279973   4.140   0.430   5.804 -1.1531  0.7835 -0.0330
19520TIP3   OH279974   6.737   0.891  13.458  0.2778 -0.5604 -0.1679
19520TIP3    H179975   6.670   0.941  13.411  0.9748  1.2168  0.6997
19520TIP3    H279976   6.793   0.957  13.499  1.5958 -2.0417  0.4910
19521TIP3   OH279977   3.357   2.747   1.214 -0.4956 -0.5586  0.3026
19521TIP3    H179978   3.412   2.778   1.143 -0.1620 -0.1596  0.7377
19521TIP3    H279979   3.268   2.769   1.186 -0.2823  0.5855  0.5054
19522TIP3   OH279980   1.948   6.427   3.732 -0.3282  0.2361  0.4390
19522TIP3    H179981   1.891   6.407   3.658  1.5923 -0.9579 -0.7421
19522TIP3    H279982   2.037   6.411   3.699  0.5645 -0.0633  2.9129
19523TIP3   OH279983   0.501   3.219  15.878  0.0613  0.2744 -0.1676
19523TIP3    H179984   0.524   3.214  15.785  1.9384  2.2658  0.1339
19523TIP3    H279985   0.420   3.270  15.880 -0.5550 -0.6712 -0.7724
19524TIP3   OH279986   2.152   2.752  13.697 -0.3862  0.1674 -0.3310
19524TIP3    H179987   2.153   2.739  13.602 -2.3871 -1.0248 -0.1917
19524TIP3    H279988   2.061   2.773  13.718 -0.1943 -0.7454  1.4939
19525TIP3   OH279989   2.778   0.204  15.447  0.7197 -0.2760  0.0275
19525TIP3    H179990   2.719   0.129  15.452 -0.7999  0.7241 -2.2656
19525TIP3    H279991   2.862   0.167  15.419  0.0618 -1.1518 -0.8210
19526TIP3   OH279992   3.153   6.706   0.588  0.3823 -0.1734  0.8377
19526TIP3    H179993   3.106   6.667   0.514 -0.0634  2.0352 -0.0695
19526TIP3    H279994   3.243   6.675   0.579  0.4892  0.6614 -1.0521
19527TIP3   OH279995   2.002   5.449   3.335  0.1254  0.1073 -0.2379
19527TIP3    H179996   1.943   5.524   3.345  0.6258  0.4869 -0.1070
19527TIP3    H279997   1.945   5.373   3.339 -0.3531  0.4716 -0.0636
19528TIP3   OH279998   6.569   3.373   5.285 -0.0462  0.1611  0.5605
19528TIP3    H179999   6.514   3.301   5.315  0.6163 -0.5159  0.1386
19528TIP3    H280000   6.652   3.333   5.261  0.0609  0.9488 -0.4308
19529TIP3   OH280001   1.799   4.878   2.991 -0.3809  0.0103 -0.0412
19529TIP3    H180002   1.774   4.904   2.902 -0.8821 -0.1956  0.0378
19529TIP3    H280003   1.815   4.784   2.985  0.1181  0.0930 -0.0321
19530TIP3   OH280004   3.477   4.366  14.642  0.4449  0.1153 -0.6296
19530TIP3    H180005   3.440   4.287  14.680 -1.8086  0.7195 -1.4759
19530TIP3    H280006   3.478   4.350  14.548  2.6512  0.0020 -0.5998
19531TIP3   OH280007   6.043   1.427   1.506 -0.0611  0.5059 -0.8368
19531TIP3    H180008   6.066   1.488   1.576 -0.4296 -0.7249  0.3822
19531TIP3    H280009   6.016   1.347   1.551  1.7549 -1.0697 -2.4213
19532TIP3   OH280010   5.278   4.490   4.822 -0.6738  0.0706 -0.2457
19532TIP3    H180011   5.193   4.450   4.804 -1.0006  1.2066 -1.3599
19532TIP3    H280012   5.327   4.424   4.871 -1.9273 -0.8783 -0.2666
19533TIP3   OH280013   3.170   6.715   5.711  0.4291 -0.6099  0.6801
19533TIP3    H180014   3.099   6.777   5.726  0.4524 -0.5287  0.4626
19533TIP3    H280015   3.225   6.721   5.789 -0.1330 -1.1136  1.1140
19534TIP3   OH280016   5.488   4.191  17.003 -0.2958  0.3564  0.4312
19534TIP3    H180017   5.512   4.195  17.096 -1.0639  0.6257  0.6256
19534TIP3    H280018   5.436   4.270  16.988  1.3989  1.2767 -0.6937
19535TIP3   OH280019   1.511   3.523   6.147 -0.5094 -0.4277 -0.7941
19535TIP3    H180020   1.594   3.508   6.191 -0.3571  1.5029 -0.3615
19535TIP3    H280021   1.469   3.437   6.143  0.7756 -1.1245  0.4515
19536TIP3   OH280022   0.375   2.214  16.053 -0.2454  0.5787 -0.3273
19536TIP3    H180023   0.313   2.264  16.001 -0.0881  0.9909 -0.1142
19536TIP3    H280024   0.449   2.199  15.994 -0.1015  0.9772 -0.2453
19537TIP3   OH280025   0.939   2.535  14.279  0.6325 -0.2933 -0.2378
19537TIP3    H180026   0.943   2.455  14.227  0.5924  0.2346 -1.0724
19537TIP3    H280027   1.006   2.592  14.241  1.5212 -0.3881  1.1443
19538TIP3   OH280028   0.552   2.094  11.808 -0.2662 -0.0088  0.2063
19538TIP3    H180029   0.481   2.049  11.761  1.7505 -1.4905 -1.5836
19538TIP3    H280030   0.604   2.023  11.845  0.6104  1.0222  0.9700
19539TIP3   OH280031   4.095   2.349  15.938 -0.7953  0.2463 -0.7817
19539TIP3    H180032   4.067   2.278  15.995 -1.1910  0.9682 -0.0695
19539TIP3    H280033   4.183   2.323  15.910 -0.5955 -0.1194  0.1489
19540TIP3   OH280034   0.554   3.408   5.074 -0.6881  0.0132 -0.1766
19540TIP3    H180035   0.648   3.409   5.058 -0.4467  1.9667  1.1425
19540TIP3    H280036   0.516   3.456   5.000 -0.5900 -0.2639 -0.4060
19541TIP3   OH280037   3.106   5.527  13.256  0.3084 -0.3517 -0.4732
19541TIP3    H180038   3.114   5.616  13.222  1.6955 -0.0596  0.5894
19541TIP3    H280039   3.115   5.471  13.178  1.1291  0.3832 -0.9155
19542TIP3   OH280040   0.588   5.334   4.099  0.2521 -0.3712 -0.2009
19542TIP3    H180041   0.493   5.321   4.102  0.4326 -1.6884  0.2266
19542TIP3    H280042   0.613   5.346   4.191  0.9935 -4.0312  0.1573
19543TIP3   OH280043   1.150   6.372   1.010  1.1591 -0.0590  0.0192
19543TIP3    H180044   1.105   6.292   0.982  0.4463 -0.1800  1.4650
19543TIP3    H280045   1.202   6.398   0.934 -1.4007  0.1015 -1.7430
19544TIP3   OH280046   0.463   5.143  15.803 -0.5048  0.1114 -0.0101
19544TIP3    H180047   0.482   5.049  15.796  0.5114  0.3241 -0.1781
19544TIP3    H280048   0.526   5.184  15.745  0.2987  1.0367  1.4852
19545TIP3   OH280049   0.642   4.675  11.665 -0.0457  0.1991 -0.4558
19545TIP3    H180050   0.668   4.611  11.599  1.3356 -1.2863  1.4520
19545TIP3    H280051   0.568   4.633  11.710 -0.5040  0.8821 -0.5726
19546TIP3   OH280052   2.379   6.157   2.452  0.3203 -0.2263  0.6062
19546TIP3    H180053   2.312   6.213   2.413  0.6624  0.2644  0.7139
19546TIP3    H280054   2.398   6.091   2.385  0.4907  0.2686  0.1606
19547TIP3   OH280055   1.052   5.531   2.556  0.5482  0.5460 -0.2752
19547TIP3    H180056   1.053   5.622   2.525  0.1550  0.4407 -0.5981
19547TIP3    H280057   1.124   5.527   2.620 -0.5691  1.5428  1.0711
19548TIP3   OH280058   5.681   0.154  12.317  0.1669 -0.2811  0.0271
19548TIP3    H180059   5.751   0.091  12.303 -0.6268 -1.3802  0.9075
19548TIP3    H280060   5.615   0.106  12.368 -1.7094  0.3726 -1.7137
19549TIP3   OH280061   1.414   0.645   3.211 -0.0847  0.3650 -0.5462
19549TIP3    H180062   1.450   0.634   3.123  0.5637 -2.5789  0.0443
19549TIP3    H280063   1.472   0.709   3.252  1.7160 -0.8649 -1.1229
19550TIP3   OH280064   5.273   2.953   0.202 -0.0608  0.5136 -0.0563
19550TIP3    H180065   5.252   2.966   0.109  0.7726 -0.0057 -0.3240
19550TIP3    H280066   5.198   2.906   0.238 -1.0822  2.0468 -0.1096
19551TIP3   OH280067   2.814   2.935   0.811 -0.1009  0.2540  0.1274
19551TIP3    H180068   2.842   2.892   0.730  1.4846  0.6225  0.4653
19551TIP3    H280069   2.804   2.864   0.874  0.6607  0.1834  0.1668
19552TIP3   OH280070   2.705   5.394   5.059  0.6700 -0.4068  0.3217
19552TIP3    H180071   2.737   5.385   4.969 -0.7127  1.6255 -0.4141
19552TIP3    H280072   2.745   5.475   5.091  0.0840 -0.4088  1.0739
19553TIP3   OH280073   3.084   1.136  11.966 -0.3208  0.3653  0.2616
19553TIP3    H180074   3.110   1.156  11.876 -0.3112  1.3586  0.4793
19553TIP3    H280075   3.000   1.091  11.957  0.0569 -0.2417 -0.2815
19554TIP3   OH280076   4.307   0.779  10.686  0.4771  0.3161  0.5489
19554TIP3    H180077   4.366   0.824  10.626 -0.1349 -1.3170 -1.3244
19554TIP3    H280078   4.363   0.717  10.733  0.6915  0.5341  0.5788
19555TIP3   OH280079   5.240   3.266  15.346  0.0540  0.0201 -0.3607
19555TIP3    H180080   5.253   3.193  15.407  0.4204 -2.0632 -2.8945
19555TIP3    H280081   5.185   3.328  15.395  0.8609 -1.3041  2.3077
19556TIP3   OH280082   4.325   5.722   4.804 -0.8240  0.3672 -0.0740
19556TIP3    H180083   4.356   5.813   4.802 -1.4343  0.6397  2.1625
19556TIP3    H280084   4.311   5.703   4.896  0.7775 -2.5365 -0.3754
19557TIP3   OH280085   3.220   3.465   4.188  0.2073 -0.3311  0.6691
19557TIP3    H180086   3.267   3.500   4.264  0.6806 -0.3053  0.3663
19557TIP3    H280087   3.198   3.375   4.213  0.7277 -0.4575  0.6749
19558TIP3   OH280088   5.813   4.140   0.170  0.0554 -0.3192  0.1079
19558TIP3    H180089   5.899   4.180   0.154 -1.2726  1.7565 -2.3052
19558TIP3    H280090   5.795   4.089   0.091 -2.7245  2.7361 -1.3545
19559TIP3   OH280091   1.299   3.756  12.129  0.7861  0.1472  0.4339
19559TIP3    H180092   1.351   3.716  12.060  1.8588 -2.3776  2.6274
19559TIP3    H280093   1.327   3.848  12.130  2.2052 -0.2485 -1.1497
19560TIP3   OH280094   0.287   6.180  16.371  0.1273  0.2287  0.3104
19560TIP3    H180095   0.328   6.097  16.395 -0.8958 -0.2459  0.4413
19560TIP3    H280096   0.360   6.237  16.345  0.8676 -0.5635  0.6565
19561TIP3   OH280097   3.158   5.414   2.567 -0.0931 -0.0165 -0.1131
19561TIP3    H180098   3.148   5.509   2.577  1.3737  0.1089  0.4182
19561TIP3    H280099   3.086   5.377   2.617  1.1348  0.8131  2.3822
19562TIP3   OH280100   5.732   0.684  12.938  0.1552 -0.2483  0.2272
19562TIP3    H180101   5.763   0.751  12.998  0.8140  1.0633 -1.5632
19562TIP3    H280102   5.641   0.707  12.921  0.2645 -0.0448 -0.0771
19563TIP3   OH280103   3.779   0.313   4.203  0.5471 -0.0887 -0.3695
19563TIP3    H180104   3.833   0.243   4.241 -1.1392 -2.1409 -1.6510
19563TIP3    H280105   3.832   0.350   4.133  0.0871 -2.5993 -2.1194
19564TIP3   OH280106   5.813   1.762   3.030  0.6932 -0.1795 -0.3979
19564TIP3    H180107   5.783   1.704   3.100 -0.7153  0.9061 -0.0673
19564TIP3    H280108   5.880   1.712   2.983 -0.2854 -1.9521  0.0622
19565TIP3   OH280109   2.485   3.702  17.079  0.1895 -0.4372 -0.3831
19565TIP3    H180110   2.485   3.771  17.145 -0.5550  0.6874 -1.5371
19565TIP3    H280111   2.578   3.688  17.060  0.3365  0.6625 -0.5453
19566TIP3   OH280112   1.129   0.235   5.379  0.0190 -0.6721  0.1913
19566TIP3    H180113   1.206   0.273   5.335 -1.2718  2.4976  0.4945
19566TIP3    H280114   1.163   0.199   5.461  1.6938 -2.3773 -1.2043
19567TIP3   OH280115   4.398   2.583  13.111 -0.4404  0.5565  0.3525
19567TIP3    H180116   4.470   2.558  13.053 -0.0503 -1.7499  1.7690
19567TIP3    H280117   4.319   2.551  13.067 -0.1561 -1.0729  0.9902
19568TIP3   OH280118   2.798   1.682  16.014  0.2459  0.8293  0.5023
19568TIP3    H180119   2.873   1.649  16.064 -0.3596 -1.7689 -0.2454
19568TIP3    H280120   2.722   1.664  16.070 -0.6113 -3.4518 -1.8023
19569TIP3   OH280121   1.723   1.608  14.929  0.0178  0.3513  0.0815
19569TIP3    H180122   1.754   1.547  14.997  2.7620 -0.2483 -1.6036
19569TIP3    H280123   1.777   1.686  14.941  1.6250 -0.3254 -2.2894
19570TIP3   OH280124   1.667   6.743   3.093  0.0731 -0.1235  0.7004
19570TIP3    H180125   1.617   6.824   3.086  0.3898 -0.1528 -2.6462
19570TIP3    H280126   1.757   6.768   3.074  0.1428 -1.2841 -0.5901
19571TIP3   OH280127   4.356   5.790   1.638 -0.2199  0.0056 -0.1987
19571TIP3    H180128   4.376   5.883   1.636 -0.8378  0.1603  0.7326
19571TIP3    H280129   4.392   5.756   1.555  0.4334  0.9703 -0.3207
19572TIP3   OH280130   1.199   5.208   5.056 -0.0332 -0.2567  0.2609
19572TIP3    H180131   1.114   5.237   5.088 -0.8327 -0.5140 -1.6194
19572TIP3    H280132   1.243   5.174   5.134 -1.1613  0.9886  1.4796
19573TIP3   OH280133   5.749   3.864   4.634  0.1266  0.1240  0.2338
19573TIP3    H180134   5.688   3.895   4.567 -0.6700  1.5683  1.5691
19573TIP3    H280135   5.833   3.859   4.590 -1.1327 -3.1041 -1.9721
19574TIP3   OH280136   2.360   2.028  13.550  0.0007 -0.3761 -0.4762
19574TIP3    H180137   2.387   2.013  13.460  1.6080  0.1325 -0.1043
19574TIP3    H280138   2.266   2.040  13.546  0.2545  1.1729 -2.2905
19575TIP3   OH280139   2.641   1.716  13.224 -0.5824 -0.6022  0.0303
19575TIP3    H180140   2.643   1.640  13.283 -0.0154 -0.0960  0.6750
19575TIP3    H280141   2.729   1.753  13.231 -0.9803  0.3542  0.0253
19576TIP3   OH280142   0.005   4.634  14.467  0.0168  0.0796 -0.1792
19576TIP3    H180143  -0.085   4.635  14.497  0.1134  0.0816  0.1155
19576TIP3    H280144   0.014   4.715  14.416 -0.4708 -0.4974 -1.1816
19577TIP3   OH280145   6.785   0.599  16.012  0.4991  0.0146  0.4400
19577TIP3    H180146   6.709   0.600  16.070  0.1771  0.5274  0.0091
19577TIP3    H280147   6.836   0.523  16.041 -1.9523 -2.4963 -1.5795
19578TIP3   OH280148   1.178   4.926  14.305 -0.8148  0.1592 -0.1752
19578TIP3    H180149   1.252   4.867  14.293 -0.0424  1.3753 -1.4579
19578TIP3    H280150   1.105   4.868  14.330 -0.0250 -1.3164 -1.2307
19579TIP3   OH280151   6.213   2.149   1.964 -0.4033 -0.7515 -0.0004
19579TIP3    H180152   6.175   2.195   1.890 -0.2687 -0.1589  0.2922
19579TIP3    H280153   6.157   2.173   2.038  1.1167  0.9301  0.6257
19580TIP3   OH280154   6.181   3.674  11.878  0.0575  0.2631 -0.3317
19580TIP3    H180155   6.138   3.755  11.905  0.3963 -0.3169  2.1344
19580TIP3    H280156   6.194   3.626  11.960  0.5645 -1.9383 -1.6559
19581TIP3   OH280157   3.534   3.030   4.706 -0.3505 -0.2732  0.0676
19581TIP3    H180158   3.507   3.019   4.615 -0.0777  2.5898 -0.4170
19581TIP3    H280159   3.482   2.967   4.755 -1.8083 -0.6023 -1.8634
19582TIP3   OH280160   1.548   1.239   5.093 -0.1866 -0.1753 -0.7508
19582TIP3    H180161   1.545   1.187   5.174 -1.4163  0.7478 -0.1836
19582TIP3    H280162   1.602   1.188   5.033  1.0252 -0.7006  0.7783
19583TIP3   OH280163   4.762   2.498   3.849 -0.1097  0.1903 -0.6000
19583TIP3    H180164   4.799   2.536   3.770  1.2994  1.5561  0.6765
19583TIP3    H280165   4.833   2.447   3.887  0.2757  2.1859  1.4668
19584TIP3   OH280166   3.974   0.866   4.206  0.7868 -0.2688  0.0227
19584TIP3    H180167   4.033   0.942   4.208 -0.2039  0.5957 -2.3698
19584TIP3    H280168   4.014   0.806   4.143 -0.3024 -0.1728 -0.7624
19585TIP3   OH280169   2.421   2.259  12.406  0.3320  0.4801  0.0110
19585TIP3    H180170   2.510   2.239  12.376  0.0359  1.7160 -1.7896
19585TIP3    H280171   2.433   2.325  12.474  0.7733  0.8822 -0.4575
19586TIP3   OH280172   2.526   5.077   4.175  0.4614 -0.1238  0.6687
19586TIP3    H180173   2.441   5.038   4.156  1.2519 -2.4632  1.7077
19586TIP3    H280174   2.518   5.168   4.146 -2.6865 -0.0481  1.6299
19587TIP3   OH280175   0.966   3.726   0.087 -0.4462  0.2957  0.6314
19587TIP3    H180176   1.000   3.687   0.007  1.7220  0.6440  1.3392
19587TIP3    H280177   0.873   3.704   0.088  0.3283 -3.1488  0.0328
19588TIP3   OH280178   6.601   2.256   4.952 -0.0152 -0.4051 -0.0209
19588TIP3    H180179   6.565   2.172   4.980  0.2457  0.0218  1.6079
19588TIP3    H280180   6.528   2.317   4.962  0.7572  0.2032  2.0060
19589TIP3   OH280181   3.199   5.853   5.682  0.7379 -0.2009  0.1463
19589TIP3    H180182   3.126   5.852   5.743  1.8655 -0.9901  1.5311
19589TIP3    H280183   3.179   5.785   5.618 -0.5985  0.8378 -0.5711
19590TIP3   OH280184   4.919   1.472  12.544  0.1529 -0.3234 -0.5284
19590TIP3    H180185   4.843   1.496  12.490 -0.5207  0.5700  0.7516
19590TIP3    H280186   4.932   1.379  12.528 -0.0266 -0.0679 -2.2205
19591TIP3   OH280187   2.719   5.447   0.577  0.3634 -0.3482 -0.4001
19591TIP3    H180188   2.637   5.489   0.551 -0.4975 -1.1653  0.8965
19591TIP3    H280189   2.717   5.449   0.672  0.9242 -2.1090 -0.3365
19592TIP3   OH280190   1.050   4.496   2.939  0.2633 -0.6154  0.2218
19592TIP3    H180191   1.125   4.508   2.997  0.4171  0.9879 -0.2826
19592TIP3    H280192   0.999   4.425   2.978  1.1461 -0.5543  1.4828
19593TIP3   OH280193   0.240   4.986  16.391  0.2471 -0.2005 -0.1917
19593TIP3    H180194   0.274   5.065  16.348  0.4958  0.5707  1.4081
19593TIP3    H280195   0.299   4.970  16.464 -0.1102 -1.5838 -0.1784
19594TIP3   OH280196   5.493   5.036   4.952 -0.5688  0.0635  0.2343
19594TIP3    H180197   5.542   4.963   4.992 -0.9614 -0.0540  0.5007
19594TIP3    H280198   5.441   4.994   4.883 -1.8131 -0.1081  1.2711
19595TIP3   OH280199   0.213   5.636   1.005  0.4475 -0.4512 -0.0889
19595TIP3    H180200   0.282   5.649   1.071  0.4462 -0.1285 -0.1490
19595TIP3    H280201   0.138   5.686   1.039  0.6171  0.1478 -0.5933
19596TIP3   OH280202   1.164   4.529  14.688 -0.2178 -0.2375 -0.8408
19596TIP3    H180203   1.090   4.472  14.666  1.0405 -1.9390 -0.7730
19596TIP3    H280204   1.217   4.477  14.748  0.0793  1.6696  0.6030
19597TIP3   OH280205   6.023   0.940  16.373 -0.1372 -0.2276 -0.2203
19597TIP3    H180206   6.071   1.004  16.426  0.0076 -1.7361  1.5321
19597TIP3    H280207   5.937   0.979  16.360  0.1352  0.5786  0.3115
19598TIP3   OH280208   2.122   4.491  16.654  0.2354 -0.1799  0.5528
19598TIP3    H180209   2.167   4.508  16.737 -0.7427  0.1213  1.0286
19598TIP3    H280210   2.126   4.397  16.642 -0.5369 -0.3333  1.4756
19599TIP3   OH280211   0.071   1.615  15.301  0.3484 -0.6820  0.4663
19599TIP3    H180212   0.140   1.666  15.259  1.2651 -0.6241  2.0124
19599TIP3    H280213   0.056   1.658  15.386 -1.9267 -0.4115 -0.0204
19600TIP3   OH280214   4.130   1.722   1.168 -0.2023 -0.3029  0.2687
19600TIP3    H180215   4.078   1.703   1.091  0.3034 -1.0535  0.1017
19600TIP3    H280216   4.193   1.789   1.139 -0.4777 -0.0662  0.2226
19601TIP3   OH280217   4.930   2.012   2.440 -0.4195 -0.3233  0.6229
19601TIP3    H180218   4.926   2.003   2.535  0.6606  0.0733  0.7066
19601TIP3    H280219   4.895   1.929   2.407  1.2173 -1.3290  1.3631
19602TIP3   OH280220   2.863   2.523  16.956  0.7118  0.1229  0.0748
19602TIP3    H180221   2.845   2.608  16.916  1.0184 -0.1691 -0.7044
19602TIP3    H280222   2.777   2.483  16.966  0.5895  0.4068  0.1646
19603TIP3   OH280223   2.248   2.041   5.563  0.4647 -0.0759 -0.2978
19603TIP3    H180224   2.314   2.017   5.497 -1.5867 -0.4152 -2.3139
19603TIP3    H280225   2.241   2.136   5.555 -0.8469 -0.2656 -1.6753
19604TIP3   OH280226   5.178   0.913  14.961  0.5107 -0.2487 -0.0807
19604TIP3    H180227   5.220   0.985  14.915  1.1725  0.8619  2.1711
19604TIP3    H280228   5.206   0.835  14.914  1.3054  0.8178 -1.4246
19605TIP3   OH280229   4.738   3.732   4.433  0.0061 -0.1777  0.4023
19605TIP3    H180230   4.715   3.701   4.346 -1.7644  1.3605  0.2947
19605TIP3    H280231   4.834   3.724   4.436 -0.1027 -2.2614 -0.8701
19606TIP3   OH280232   5.486   0.423  10.157 -0.2012  0.4815 -0.2844
19606TIP3    H180233   5.513   0.485  10.089 -0.6893 -0.1268 -1.0347
19606TIP3    H280234   5.554   0.356  10.155  1.5455  2.1064  2.0538
19607TIP3   OH280235   2.245   2.023  15.515 -0.4243 -0.1806 -0.0522
19607TIP3    H180236   2.291   2.042  15.597  0.9115  1.6373 -1.1804
19607TIP3    H280237   2.158   1.994  15.542  0.4371 -0.9252  2.0437
19608TIP3   OH280238   4.675   6.576   4.870  0.2736 -0.6099 -0.9813
19608TIP3    H180239   4.743   6.568   4.803 -0.1468  2.4147 -1.8490
19608TIP3    H280240   4.592   6.567   4.822 -0.0280  1.5634 -0.9591
19609TIP3   OH280241   5.589   4.354  16.354 -0.5690  0.1871  0.1940
19609TIP3    H180242   5.532   4.429  16.372  0.1895  0.3866  1.7563
19609TIP3    H280243   5.536   4.278  16.378 -1.7905  0.0960 -2.5164
19610TIP3   OH280244   2.295   4.212   0.518  0.0577  0.6621  0.1279
19610TIP3    H180245   2.368   4.163   0.556  0.7529  1.7955  0.2857
19610TIP3    H280246   2.256   4.152   0.456  0.6870 -0.2138  0.5637
19611TIP3   OH280247   6.766   5.443   3.185  0.4572  0.1706 -0.0697
19611TIP3    H180248   6.776   5.537   3.199  1.5568  0.0520 -0.0286
19611TIP3    H280249   6.777   5.405   3.272 -5.1408  0.3556  0.9062
19612TIP3   OH280250   3.241   1.215  16.579 -0.1298  0.7715  0.8003
19612TIP3    H180251   3.263   1.122  16.574 -0.4645  0.6828  0.9769
19612TIP3    H280252   3.319   1.256  16.616 -0.0387  0.5427  0.8668
19613TIP3   OH280253   2.544   4.556  12.075  0.2995  0.0689 -0.8879
19613TIP3    H180254   2.634   4.588  12.060  0.2336  0.8549  0.3620
19613TIP3    H280255   2.553   4.460  12.076  1.0895  0.1341 -0.9923
19614TIP3   OH280256   2.745   1.125  12.438  0.1928  0.0612 -0.4410
19614TIP3    H180257   2.783   1.156  12.355  0.0896 -1.3339 -1.0140
19614TIP3    H280258   2.821   1.096  12.489  0.1496 -0.1873 -0.5159
19615TIP3   OH280259   3.313   0.590   4.746  0.2607 -0.2216 -0.1804
19615TIP3    H180260   3.326   0.618   4.836 -0.7250  0.2488 -0.1762
19615TIP3    H280261   3.363   0.508   4.739  0.3630 -0.2516  0.7795
19616TIP3   OH280262   1.086   2.562   1.594  0.3191  0.4721 -0.0457
19616TIP3    H180263   1.124   2.552   1.507  0.1665 -0.2916 -0.0325
19616TIP3    H280264   1.030   2.639   1.588  2.0944  1.8002  0.0172
19617TIP3   OH280265   5.310   5.168  12.669  0.5587 -0.6934  0.0671
19617TIP3    H180266   5.402   5.196  12.672  0.2779  0.2989 -0.3550
19617TIP3    H280267   5.261   5.244  12.701 -0.2670 -0.4184 -1.7943
19618TIP3   OH280268   3.738   3.488   0.389 -0.4300 -0.1500  0.2134
19618TIP3    H180269   3.817   3.460   0.342 -0.0453  0.6159  0.3979
19618TIP3    H280270   3.755   3.465   0.480 -0.2745  0.3228  0.3056
19619TIP3   OH280271   4.899   4.158   1.470  1.0649  0.2595  0.0633
19619TIP3    H180272   4.943   4.141   1.387 -1.2721  1.5890 -1.5025
19619TIP3    H280273   4.862   4.246   1.461  0.0692  0.1011  2.1851
19620TIP3   OH280274   4.260   0.590  17.150 -0.4707  0.1784 -0.0381
19620TIP3    H180275   4.341   0.545  17.174 -0.3188 -0.8463 -2.3288
19620TIP3    H280276   4.285   0.682  17.143  0.8939 -0.3327 -2.2696
19621TIP3   OH280277   5.295   6.017   6.312  0.1070  0.2443  0.1317
19621TIP3    H180278   5.232   6.076   6.353 -0.5133  0.4629 -1.1102
19621TIP3    H280279   5.379   6.061   6.322  0.1933 -0.3980  2.4649
19622TIP3   OH280280   6.786   0.732   3.295 -0.3955 -0.1456  0.1855
19622TIP3    H180281   6.881   0.738   3.280 -0.6273  0.4017 -1.0724
19622TIP3    H280282   6.778   0.726   3.390  0.9405 -0.8499  0.2740
19623TIP3   OH280283   3.053   0.102  15.748  0.1840  0.4090  0.4796
19623TIP3    H180284   2.975   0.095  15.802  0.0479  1.8697  0.4842
19623TIP3    H280285   3.033   0.172  15.686  0.9060 -0.2448 -0.5030
19624TIP3   OH280286   4.249   0.657  11.602  0.3770 -0.1968 -0.5162
19624TIP3    H180287   4.156   0.646  11.622  0.5260 -1.1170 -0.2881
19624TIP3    H280288   4.279   0.725  11.662  0.0675 -0.5844  0.0817
19625TIP3   OH280289   2.091   1.259   3.654  0.3412 -0.1601  0.6654
19625TIP3    H180290   2.014   1.299   3.694  0.2198  0.8417 -0.5591
19625TIP3    H280291   2.056   1.187   3.601  0.1545  0.7371 -0.4611
19626TIP3   OH280292   2.798   2.615   5.017 -0.0854  0.6023  0.4496
19626TIP3    H180293   2.728   2.585   4.959 -0.1570  0.6985  0.4860
19626TIP3    H280294   2.809   2.708   4.996  1.8849 -0.0282 -1.4579
19627TIP3   OH280295   1.159   5.958   6.121  0.5592 -0.3797  0.4668
19627TIP3    H180296   1.226   5.922   6.062  0.1122 -0.1957 -0.1587
19627TIP3    H280297   1.190   5.936   6.209  2.0539  0.7317  0.2379
19628TIP3   OH280298   6.464   0.185   0.316 -0.0278 -0.1465 -0.1962
19628TIP3    H180299   6.513   0.243   0.375 -1.0797  0.0202  0.5332
19628TIP3    H280300   6.518   0.106   0.310  1.0250  0.5995 -0.5586
19629TIP3   OH280301   4.469   5.131  15.751 -0.3504  0.4091 -0.1249
19629TIP3    H180302   4.553   5.164  15.782 -0.6820 -0.3690  1.7030
19629TIP3    H280303   4.405   5.191  15.789 -0.7672 -0.5889  0.7939
19630TIP3   OH280304   4.612   4.144  13.352 -0.7618  0.0282 -0.9648
19630TIP3    H180305   4.560   4.068  13.326  0.6717 -0.6136 -2.0226
19630TIP3    H280306   4.702   4.119  13.331  0.2024  0.4166  2.4838
19631TIP3   OH280307   4.898   3.613   0.172 -0.0509 -0.3224  0.6349
19631TIP3    H180308   4.992   3.599   0.159 -0.3051 -2.2292  0.7240
19631TIP3    H280309   4.876   3.680   0.107  0.9294 -1.5369 -0.9984
19632TIP3   OH280310   4.690   6.676   5.372 -0.3423 -0.4982  0.0498
19632TIP3    H180311   4.779   6.644   5.386 -0.4023 -0.3826  0.7338
19632TIP3    H280312   4.645   6.604   5.329  0.5502  0.0824 -1.9085
19633TIP3   OH280313   6.060   2.218   5.042 -0.3074  0.3252 -0.5544
19633TIP3    H180314   5.973   2.186   5.064 -0.6777  1.5230 -0.2066
19633TIP3    H280315   6.107   2.142   5.010 -1.0681 -0.6197  0.5331
19634TIP3   OH280316   3.079   1.162  14.403 -0.1588  0.0909 -0.3036
19634TIP3    H180317   3.018   1.094  14.432  0.7941 -1.3962 -1.7709
19634TIP3    H280318   3.052   1.240  14.452 -0.3368 -1.6679  2.5118
19635TIP3   OH280319   6.102   1.038  13.632 -0.5020  0.2510  0.2108
19635TIP3    H180320   6.150   1.030  13.550  0.1939  0.2749  0.6129
19635TIP3    H280321   6.169   1.057  13.698 -0.6772 -2.8343  1.3295
19636TIP3   OH280322   4.865   5.762  12.058 -0.3433  0.4581 -0.0526
19636TIP3    H180323   4.863   5.760  12.154  0.0414  0.3524 -0.0463
19636TIP3    H280324   4.957   5.772  12.036 -0.5780  1.9673 -0.3914
19637TIP3   OH280325   1.124   1.267  16.140  0.2400 -0.0494 -0.1458
19637TIP3    H180326   1.192   1.306  16.195 -0.1864  0.2582  0.1695
19637TIP3    H280327   1.130   1.173  16.156  0.1476  0.0355  0.3923
19638TIP3   OH280328   0.554   1.905   6.379 -0.0231  0.3260  0.4705
19638TIP3    H180329   0.480   1.845   6.384  0.0046  0.2762  0.2810
19638TIP3    H280330   0.629   1.849   6.358 -0.4150  0.7404 -2.1099
19639TIP3   OH280331   0.418   6.433  12.210 -0.2249  0.3569  0.5564
19639TIP3    H180332   0.467   6.353  12.230 -1.2011 -0.2508  0.5243
19639TIP3    H280333   0.482   6.504  12.222  1.2611 -0.5801 -1.5280
19640TIP3   OH280334   0.022   0.727   1.659  0.1104 -0.0238 -0.7394
19640TIP3    H180335   0.060   0.685   1.582  0.1782 -0.0609 -0.6856
19640TIP3    H280336  -0.072   0.710   1.651  0.0647  0.3456 -1.0416
19641TIP3   OH280337   4.064   6.396  14.140 -0.2128  0.6222  0.2728
19641TIP3    H180338   3.972   6.423  14.144 -0.9742 -0.7830 -4.4502
19641TIP3    H280339   4.066   6.325  14.075  4.0976  0.1467  0.7541
19642TIP3   OH280340   0.822   6.170   2.856 -0.7048 -0.0717 -0.1250
19642TIP3    H180341   0.781   6.095   2.899 -1.8976 -0.6431 -2.2178
19642TIP3    H280342   0.903   6.136   2.820  0.2724  0.3956  1.5829
19643TIP3   OH280343   0.578   6.655  13.333 -0.1983 -0.3837  0.1191
19643TIP3    H180344   0.585   6.562  13.352 -1.0775 -0.4647  0.0526
19643TIP3    H280345   0.589   6.699  13.417 -0.6378 -0.5834  0.2771
19644TIP3   OH280346   6.271   6.431  10.494 -0.2034 -0.0431 -0.2575
19644TIP3    H180347   6.278   6.411  10.588 -2.5369 -1.7738 -0.4241
19644TIP3    H280348   6.358   6.410  10.459 -0.2958 -2.6017  0.9499
19645TIP3   OH280349   3.534   1.102  12.718  0.6109  0.0240  0.0089
19645TIP3    H180350   3.593   1.086  12.791  1.1193  1.2260 -0.1233
19645TIP3    H280351   3.575   1.059  12.643  1.9426  1.8615 -0.3459
19646TIP3   OH280352   0.871   5.938   4.199  0.2337  0.0426  0.0978
19646TIP3    H180353   0.790   5.973   4.162 -0.2735 -0.3241  0.8431
19646TIP3    H280354   0.848   5.851   4.230  1.7651 -1.4294 -2.7048
19647TIP3   OH280355   3.231   1.043   3.823  0.0927 -0.0992  1.0375
19647TIP3    H180356   3.288   0.994   3.882  1.1892  0.6965  0.6651
19647TIP3    H280357   3.149   1.052   3.870  0.9761  0.5680  2.4787
19648TIP3   OH280358   2.639   2.957   3.327  0.4606 -0.0565  0.2372
19648TIP3    H180359   2.546   2.980   3.333 -0.3173 -3.2015  1.2100
19648TIP3    H280360   2.640   2.880   3.270  2.6792  0.8709 -1.0323
19649TIP3   OH280361   2.222   6.124   0.284  0.1457  0.1887  0.3716
19649TIP3    H180362   2.295   6.065   0.268 -0.6774 -1.1407  1.4072
19649TIP3    H280363   2.262   6.202   0.323  1.1064 -0.1949  0.1522
19650TIP3   OH280364   1.568   5.155   1.128  0.1373 -0.2538  0.2772
19650TIP3    H180365   1.581   5.188   1.218  0.2518 -1.5542  0.7483
19650TIP3    H280366   1.621   5.075   1.124 -0.9018 -0.9096 -0.5373
19651TIP3   OH280367   4.575   1.146  15.654  0.0874 -0.1368  0.5049
19651TIP3    H180368   4.655   1.128  15.703 -0.8076  0.2886  2.1355
19651TIP3    H280369   4.565   1.241  15.657  1.7013  0.2633 -3.2223
19652TIP3   OH280370   6.427   5.106  12.431 -0.4389 -0.4056 -0.0973
19652TIP3    H180371   6.360   5.097  12.498 -1.4053 -2.4640 -1.2607
19652TIP3    H280372   6.490   5.036  12.451  0.5348  0.4834  0.0316
19653TIP3   OH280373   4.875   0.605   1.413 -0.2596 -0.1969  0.1931
19653TIP3    H180374   4.850   0.529   1.465  1.1392 -1.1268 -0.4611
19653TIP3    H280375   4.846   0.584   1.324  1.2756 -0.5246 -0.2327
19654TIP3   OH280376   2.673   6.259  13.581 -0.2990 -0.1878  0.1906
19654TIP3    H180377   2.737   6.308  13.529 -0.6090 -0.4865 -0.4844
19654TIP3    H280378   2.717   6.178  13.606  0.6929  1.0114  2.4803
19655TIP3   OH280379   1.146   4.657  11.258  0.1312 -0.1113  0.5715
19655TIP3    H180380   1.205   4.718  11.212  1.2817 -1.3753  0.3228
19655TIP3    H280381   1.059   4.694  11.244  0.9026  2.2342  1.5988
19656TIP3   OH280382   5.515   1.946   1.968  0.4233  0.1511 -0.2040
19656TIP3    H180383   5.475   1.862   1.990  0.2256  0.6871  1.5383
19656TIP3    H280384   5.513   1.949   1.873 -2.8417 -0.2248 -0.1890
19657TIP3   OH280385   2.672   2.890   4.792 -0.3060 -0.1742 -0.4047
19657TIP3    H180386   2.767   2.906   4.791 -0.2789 -0.1079  1.5827
19657TIP3    H280387   2.642   2.920   4.707  1.5956 -1.0053 -1.4116
19658TIP3   OH280388   3.900   0.335  11.467 -0.0649 -0.7096  0.4813
19658TIP3    H180389   3.964   0.388  11.419  0.2501 -1.6898 -0.1887
19658TIP3    H280390   3.830   0.319  11.404 -1.3029  0.9078  1.4035
19659TIP3   OH280391   6.564   4.811  16.612  0.2091  0.4871  0.0481
19659TIP3    H180392   6.519   4.886  16.650  0.6540  0.0924  1.4018
19659TIP3    H280393   6.636   4.793  16.673  0.9621 -0.1484 -1.0111
19660TIP3   OH280394   5.331   0.193   1.572 -0.1614  0.0620  0.3159
19660TIP3    H180395   5.420   0.178   1.540 -0.8445 -0.7282 -1.2948
19660TIP3    H280396   5.340   0.262   1.638  1.3424  1.6267 -1.4750
19661TIP3   OH280397   5.773   5.094   3.888 -0.8538  0.4722 -0.8405
19661TIP3    H180398   5.776   5.068   3.796 -2.3097 -0.1806 -0.7153
19661TIP3    H280399   5.756   5.013   3.935 -1.0252  0.9562 -0.0664
19662TIP3   OH280400   2.943   6.086   3.116  0.5412  0.7182  0.0234
19662TIP3    H180401   2.990   6.003   3.122 -0.1481  0.1693 -1.6275
19662TIP3    H280402   2.961   6.131   3.198 -0.6364 -1.8817  1.7387
19663TIP3   OH280403   1.328   4.974  12.658  0.4983  0.1207 -0.5392
19663TIP3    H180404   1.311   4.880  12.662  1.1752  0.0547  1.6685
19663TIP3    H280405   1.249   5.014  12.694  0.9192  0.2894  0.2198
19664TIP3   OH280406   0.685   3.421   2.985 -0.3241 -0.0646 -0.3401
19664TIP3    H180407   0.599   3.461   2.991 -1.0840 -1.7078  0.1814
19664TIP3    H280408   0.729   3.467   2.914 -2.0742  0.0129 -1.3966
19665TIP3   OH280409   2.586   3.067   6.039 -0.5874  0.6372 -0.0898
19665TIP3    H180410   2.648   3.066   5.966 -0.1578  0.7710  0.2690
19665TIP3    H280411   2.641   3.053   6.117 -0.6003  3.6747  0.5165
19666TIP3   OH280412   4.312   6.356   3.541 -0.0103 -0.1824 -0.1002
19666TIP3    H180413   4.228   6.330   3.580  0.6380 -1.0143  0.7528
19666TIP3    H280414   4.336   6.282   3.485 -1.5368  1.4796 -3.1541
19667TIP3   OH280415   3.975   0.799   4.577 -0.7466 -0.4178  0.1707
19667TIP3    H180416   3.940   0.755   4.500  1.9236  0.3037 -1.5187
19667TIP3    H280417   4.043   0.741   4.609  0.3191  0.7530  0.0779
19668TIP3   OH280418   2.942   2.332   2.267  0.4912 -0.0514 -0.6351
19668TIP3    H180419   2.847   2.337   2.275 -0.0319 -0.7419 -5.2752
19668TIP3    H280420   2.970   2.421   2.247  0.6674 -0.1088 -0.6464
19669TIP3   OH280421   4.469   1.146  14.446 -0.4314  0.3863 -0.0159
19669TIP3    H180422   4.545   1.087  14.450 -0.7317  0.0326  0.4904
19669TIP3    H280423   4.500   1.227  14.485 -1.1665 -0.6855  2.9162
19670TIP3   OH280424   1.853   4.987   4.416 -0.6694  0.2577 -0.2003
19670TIP3    H180425   1.861   5.050   4.488 -1.1642  0.2350 -0.1206
19670TIP3    H280426   1.768   4.944   4.431 -0.7354  0.1919 -0.7470
19671TIP3   OH280427   2.412   6.633  15.620  0.0422  0.2059  0.0830
19671TIP3    H180428   2.367   6.646  15.704  1.1725  1.5504  0.5195
19671TIP3    H280429   2.485   6.575  15.641  1.0616  1.5415  0.3164
19672TIP3   OH280430   6.495   3.816  12.066 -0.5392 -0.2602 -0.6928
19672TIP3    H180431   6.477   3.909  12.084  3.7402  0.3809  1.0324
19672TIP3    H280432   6.459   3.801  11.979  0.5149  3.6356 -1.9182
19673TIP3   OH280433   5.099   0.752   0.581  0.0810 -0.4301 -0.2579
19673TIP3    H180434   5.185   0.712   0.576  0.9145  1.2479  0.2147
19673TIP3    H280435   5.084   0.766   0.675  0.6472  2.0535 -0.4862
19674TIP3   OH280436   3.306   0.904  13.611  0.2917  0.1180 -0.1892
19674TIP3    H180437   3.232   0.959  13.639  0.0133 -0.2731 -0.1500
19674TIP3    H280438   3.363   0.899  13.687  0.1454  0.0678 -0.0824
19675TIP3   OH280439   1.800   3.081  13.970 -0.5101  0.0663 -0.1689
19675TIP3    H180440   1.783   3.175  13.969  0.7952  0.2997 -0.2604
19675TIP3    H280441   1.713   3.042  13.964 -1.0258  1.2601 -0.6681
19676TIP3   OH280442   3.415   0.608  16.061 -0.2304 -0.0632 -0.2269
19676TIP3    H180443   3.357   0.680  16.039  0.4506  1.2680  2.1645
19676TIP3    H280444   3.364   0.553  16.120 -0.9985 -1.9865 -2.5931
19677TIP3   OH280445   0.271   4.132  12.681 -0.2674 -0.0012  0.2922
19677TIP3    H180446   0.230   4.062  12.732 -0.2692 -0.3991 -0.2531
19677TIP3    H280447   0.273   4.099  12.592  1.2648  0.0161  0.3054
19678TIP3   OH280448   3.347   2.996  11.566  0.0437 -0.4523 -0.4075
19678TIP3    H180449   3.335   2.980  11.660 -0.5992 -0.9474 -0.5664
19678TIP3    H280450   3.265   2.965  11.526  0.5287 -0.7424 -1.1835
19679TIP3   OH280451   1.221   3.729   2.494  0.6064 -0.5078 -0.6564
19679TIP3    H180452   1.298   3.697   2.446  0.0338  0.2503 -2.1093
19679TIP3    H280453   1.257   3.784   2.563  1.3386  1.1302 -2.2948
19680TIP3   OH280454   0.582   0.232  12.904  0.3203  0.5781 -0.2858
19680TIP3    H180455   0.555   0.142  12.923  0.7040  0.5039 -0.0820
19680TIP3    H280456   0.676   0.233  12.923  0.6768  0.5565 -1.9697
19681TIP3   OH280457   6.108   1.331   2.525  0.2283 -0.0684  0.7348
19681TIP3    H180458   6.168   1.391   2.569  0.9115  0.5232 -0.9551
19681TIP3    H280459   6.135   1.245   2.556  1.4254  0.2471  0.6246
19682TIP3   OH280460   6.360   0.581  14.707  0.0303 -0.3070 -0.2231
19682TIP3    H180461   6.358   0.546  14.796 -0.8634 -1.4467 -0.6856
19682TIP3    H280462   6.374   0.505  14.652 -1.0793  0.1675 -1.1810
19683TIP3   OH280463   2.389   4.896  12.443  0.5208 -0.2494  0.1880
19683TIP3    H180464   2.388   4.919  12.350 -1.3291 -0.3578  0.1643
19683TIP3    H280465   2.364   4.804  12.445  0.8284 -0.3212  0.7863
19684TIP3   OH280466   4.247   4.702  14.569  0.3276  0.3598 -0.1206
19684TIP3    H180467   4.229   4.642  14.642 -1.0051 -0.2896 -0.9688
19684TIP3    H280468   4.327   4.666  14.529  1.2675  0.9225  1.2145
19685TIP3   OH280469   4.026   0.687  13.448  0.3540 -0.3803  0.4038
19685TIP3    H180470   3.969   0.740  13.393 -0.9192 -1.6758  0.4533
19685TIP3    H280471   4.065   0.750  13.509  0.6114  0.8278 -0.9684
19686TIP3   OH280472   5.965   5.363   6.055 -0.1939 -0.1386 -0.6785
19686TIP3    H180473   5.974   5.273   6.087 -0.3561  0.0104 -0.2125
19686TIP3    H280474   5.878   5.390   6.085  0.3021  0.5615  0.1270
19687TIP3   OH280475   1.289   2.762  12.210 -0.1306 -0.2886 -0.2644
19687TIP3    H180476   1.240   2.692  12.167 -0.2542 -0.6263  0.4226
19687TIP3    H280477   1.306   2.826  12.140  0.7496 -1.4058 -1.0886
19688TIP3   OH280478   1.881   5.058   3.163  0.3327 -0.3482  0.1444
19688TIP3    H180479   1.841   5.127   3.110  2.0681  0.0166 -0.7481
19688TIP3    H280480   1.872   4.979   3.109 -0.2094 -0.5027  0.4569
19689TIP3   OH280481   3.272   5.977  16.976  0.1770 -0.3722  0.0608
19689TIP3    H180482   3.243   6.068  16.980  1.2500  0.1435 -2.5275
19689TIP3    H280483   3.364   5.980  17.003 -0.6767 -1.2129  3.1942
19690TIP3   OH280484   5.885   0.348   2.433  0.4017 -0.0768 -0.2730
19690TIP3    H180485   5.831   0.351   2.512 -1.4383  1.5360 -1.5707
19690TIP3    H280486   5.842   0.285   2.376  2.1819 -1.8576  0.2913
19691TIP3   OH280487   4.572   1.046  11.424 -0.1271 -0.1022 -0.2978
19691TIP3    H180488   4.485   1.012  11.406 -0.7987  1.3882  0.0983
19691TIP3    H280489   4.631   0.978  11.391 -1.4166 -2.2581  1.6696
19692TIP3   OH280490   1.371   2.959   6.340  0.0057 -0.0187  0.0766
19692TIP3    H180491   1.290   2.909   6.355 -0.6602  0.5943 -1.3870
19692TIP3    H280492   1.351   3.047   6.369  0.9127 -0.3745  1.8632
19693TIP3   OH280493   1.463   0.117  12.866 -0.1385 -0.4475 -0.5546
19693TIP3    H180494   1.510   0.103  12.784  1.0144 -1.2543  0.2217
19693TIP3    H280495   1.462   0.213  12.877 -1.5865 -0.2489 -2.2129
19694TIP3   OH280496   0.358   1.718  14.065  0.3930  0.2508  0.8182
19694TIP3    H180497   0.277   1.670  14.051  1.3604 -1.1025 -0.2954
19694TIP3    H280498   0.361   1.782  13.994  1.3445 -1.1769 -0.4668
19695TIP3   OH280499   0.686   1.096   1.566 -0.2679  0.3715 -0.1337
19695TIP3    H180500   0.614   1.158   1.572 -0.2499  0.5137 -1.2039
19695TIP3    H280501   0.755   1.143   1.518  0.0154 -0.2195 -0.3232
19696TIP3   OH280502   6.214   3.950  12.518 -0.3781 -0.0214  0.2896
19696TIP3    H180503   6.201   4.044  12.528  0.7545  0.2728 -0.8700
19696TIP3    H280504   6.202   3.934  12.425  0.3998 -0.8622  0.3251
19697TIP3   OH280505   5.806   0.102  14.138 -0.7007 -0.3267  0.5953
19697TIP3    H180506   5.831   0.161  14.209 -1.1312 -1.2535  1.5367
19697TIP3    H280507   5.881   0.102  14.079 -1.6930  3.1999 -0.8109
19698TIP3   OH280508   1.702   4.718  12.056 -0.2364  0.3683 -0.5522
19698TIP3    H180509   1.637   4.648  12.055 -0.1574  0.2788  0.8190
19698TIP3    H280510   1.733   4.721  12.146  0.6824  1.3203 -0.8976
19699TIP3   OH280511   5.337   3.931  12.186  0.0350  0.6177 -0.4677
19699TIP3    H180512   5.324   4.007  12.129 -1.7398  0.3855 -0.4161
19699TIP3    H280513   5.342   3.857  12.126 -0.6413  0.5112 -0.3988
19700TIP3   OH280514   1.905   5.153  13.272  0.0724 -0.5300  0.3206
19700TIP3    H180515   1.851   5.092  13.321  0.0060 -0.0186  0.8818
19700TIP3    H280516   1.879   5.240  13.303  2.7994 -0.3403  2.2847
19701TIP3   OH280517   4.840   2.682  15.572  1.0476  0.0329 -0.8090
19701TIP3    H180518   4.840   2.614  15.504  0.1261 -0.9010  0.1164
19701TIP3    H280519   4.749   2.710  15.577  1.2449  0.6096 -0.4566
19702TIP3   OH280520   1.783   5.837  15.393  0.5486 -0.2274  0.3932
19702TIP3    H180521   1.742   5.751  15.382 -0.7092  0.6535 -2.0498
19702TIP3    H280522   1.848   5.842  15.323  0.2325  1.0280  0.1804
19703TIP3   OH280523   0.331   0.494  11.385 -0.3186  0.3466 -0.2157
19703TIP3    H180524   0.297   0.528  11.302 -0.6190 -0.2859 -0.3566
19703TIP3    H280525   0.258   0.506  11.447 -0.3255  0.2082 -0.1985
19704TIP3   OH280526   4.506   1.349  17.134 -0.6364 -0.1493 -0.3454
19704TIP3    H180527   4.496   1.441  17.157 -0.5928  0.0578 -1.1534
19704TIP3    H280528   4.417   1.315  17.132 -0.7617  0.2081 -1.3898
19705TIP3   OH280529   4.302   3.392  11.477  0.1177 -0.2166  0.1999
19705TIP3    H180530   4.365   3.354  11.416 -2.6673 -1.2491 -2.1534
19705TIP3    H280531   4.292   3.327  11.546 -1.2301 -1.7858 -1.4427
19706TIP3   OH280532   6.132   6.650  10.996  0.2021 -0.0458  0.4159
19706TIP3    H180533   6.163   6.629  10.908 -0.5289 -0.4573  0.2516
19706TIP3    H280534   6.044   6.612  11.000  0.4401 -0.4863  1.5145
19707TIP3   OH280535   3.274   3.171  14.357 -0.3152 -0.1754 -0.4464
19707TIP3    H180536   3.368   3.166  14.375 -0.2336 -0.0203 -0.8272
19707TIP3    H280537   3.268   3.184  14.262 -0.6652  1.5640 -0.2062
19708TIP3   OH280538   5.987   6.619   2.950 -0.0642  0.3437  0.4119
19708TIP3    H180539   6.067   6.623   2.897  0.1050 -2.0570  0.4359
19708TIP3    H280540   6.014   6.650   3.036  0.7166 -0.0352  0.3041
19709TIP3   OH280541   1.175   4.415   2.260  0.7284  0.3434 -0.0243
19709TIP3    H180542   1.268   4.437   2.270  0.7018  0.0938  0.8689
19709TIP3    H280543   1.134   4.450   2.339  0.1455  0.0092 -0.1750
19710TIP3   OH280544   0.746   2.403  16.405  0.0261 -0.3660 -0.6233
19710TIP3    H180545   0.718   2.313  16.393 -3.8882  0.5412  0.6420
19710TIP3    H280546   0.795   2.425  16.326  0.3025 -3.3216 -1.3022
19711TIP3   OH280547   6.032   3.546  15.897 -0.0195 -0.1566 -0.1077
19711TIP3    H180548   5.980   3.496  15.959 -1.7785  0.8964 -0.6847
19711TIP3    H280549   6.112   3.495  15.884  0.2222 -0.5429  2.7372
19712TIP3   OH280550   1.298   2.206   5.603 -0.1789 -0.0370  0.3271
19712TIP3    H180551   1.357   2.274   5.635 -2.9414  2.7794 -0.3928
19712TIP3    H280552   1.264   2.240   5.521 -1.9107 -2.1464  0.1378
19713TIP3   OH280553   0.415   2.767  13.381  0.3872 -0.2136  0.0656
19713TIP3    H180554   0.481   2.744  13.447 -0.0845 -1.1342  0.2182
19713TIP3    H280555   0.343   2.708  13.398 -0.4769  0.7703 -0.1298
19714TIP3   OH280556   0.776   5.908  16.884  0.2430 -0.2292 -0.4623
19714TIP3    H180557   0.718   5.880  16.955 -0.4311  0.6416 -0.6708
19714TIP3    H280558   0.847   5.956  16.927  0.4718 -0.7355 -0.2725
19715TIP3   OH280559   1.669   1.463   4.738  0.1830  0.1599  0.5053
19715TIP3    H180560   1.658   1.477   4.643  0.5034 -1.0732  0.2849
19715TIP3    H280561   1.735   1.394   4.744  0.0089  0.0948  1.6325
19716TIP3   OH280562   5.781   6.522   2.146  0.3147  0.0215 -0.5984
19716TIP3    H180563   5.847   6.575   2.100  0.3423  0.4918 -0.0166
19716TIP3    H280564   5.803   6.531   2.238 -0.8729  0.5805 -0.3638
19717TIP3   OH280565   4.365   6.727   3.379 -0.6168  1.1385 -0.3775
19717TIP3    H180566   4.410   6.801   3.338  3.7310 -1.9621 -1.5650
19717TIP3    H280567   4.354   6.664   3.308  4.2564 -3.0889  2.2527
19718TIP3   OH280568   3.811   1.910   2.436 -0.9474  0.2188  0.5509
19718TIP3    H180569   3.719   1.923   2.411 -0.8067  0.2262  0.0169
19718TIP3    H280570   3.818   1.817   2.456 -1.3530  0.4503  1.7957
19719TIP3   OH280571   2.549   3.281   4.458  0.0158  0.0941 -0.1258
19719TIP3    H180572   2.465   3.302   4.418 -0.2536  0.2889  0.5350
19719TIP3    H280573   2.573   3.361   4.505 -0.5821 -0.7594  1.6589
19720TIP3   OH280574   2.094   4.683   2.404 -0.1601  0.3667  0.2578
19720TIP3    H180575   2.176   4.635   2.418  0.8118  1.6444 -0.8732
19720TIP3    H280576   2.025   4.621   2.427  1.1318 -0.7358  1.2011
19721TIP3   OH280577   5.190   3.078  11.735 -0.1550 -0.6257  0.1313
19721TIP3    H180578   5.109   3.092  11.785  0.1671 -0.4545  0.6041
19721TIP3    H280579   5.169   3.006  11.676 -0.9874  0.1032 -0.4806
19722TIP3   OH280580   6.150   1.953   6.241 -0.6166 -0.4205  0.1664
19722TIP3    H180581   6.188   1.866   6.230 -1.0851 -0.5197 -0.7382
19722TIP3    H280582   6.203   2.010   6.186 -0.6977 -0.2546  0.2604
19723TIP3   OH280583   3.188   0.366  11.902  0.1569  0.4122  0.7196
19723TIP3    H180584   3.154   0.338  11.817  1.5237  0.8401  0.0281
19723TIP3    H280585   3.184   0.462  11.899 -0.8271  0.4108  1.5721
19724TIP3   OH280586   0.451   0.977  16.624 -0.3082 -0.6653 -0.4554
19724TIP3    H180587   0.361   0.967  16.654 -0.5483 -1.5738 -1.4157
19724TIP3    H280588   0.501   0.996  16.703 -1.3561 -0.0670  0.0696
19725TIP3   OH280589   3.872   0.509   0.051  0.6746 -0.0190  0.1597
19725TIP3    H180590   3.837   0.485   0.137 -0.8036 -1.4238 -0.8162
19725TIP3    H280591   3.798   0.501  -0.008  1.8861  0.1344 -1.4040
19726TIP3   OH280592   0.828   6.683  17.188  0.1830 -0.2464  0.1658
19726TIP3    H180593   0.906   6.726  17.151 -1.2626  1.7539 -0.6451
19726TIP3    H280594   0.798   6.743  17.256 -0.0238 -1.5569  1.2505
19727TIP3   OH280595   2.363   0.777  13.868 -0.0705  0.4351 -0.0788
19727TIP3    H180596   2.403   0.779  13.781 -1.0900 -1.1465 -0.6117
19727TIP3    H280597   2.417   0.716  13.918 -0.6144 -0.1576 -0.2017
19728TIP3   OH280598   4.878   0.446  15.780  0.3770  0.1511  0.1514
19728TIP3    H180599   4.817   0.487  15.841  2.0458  0.9272  1.3204
19728TIP3    H280600   4.941   0.400  15.835  0.6139 -1.0126 -1.0525
19729TIP3   OH280601   2.900   1.327   5.430  0.2792 -0.0714  0.1052
19729TIP3    H180602   2.968   1.334   5.363 -0.5098 -0.5125 -0.7447
19729TIP3    H280603   2.906   1.237   5.461 -0.6712 -0.4502 -0.7850
19730TIP3   OH280604   3.068   1.018  13.679  0.1748 -0.0356 -0.9218
19730TIP3    H180605   3.091   1.100  13.722 -0.5972  0.6962 -1.8789
19730TIP3    H280606   3.018   1.045  13.602 -2.1884 -1.5150  0.0591
19731TIP3   OH280607   5.886   0.162   3.716 -0.1265  0.4228  0.1942
19731TIP3    H180608   5.981   0.159   3.726 -0.3079 -1.1696  1.6129
19731TIP3    H280609   5.859   0.242   3.762  0.6779  1.8267 -1.7273
19732TIP3   OH280610   4.565   1.812   2.385 -0.0024 -0.4507  0.6458
19732TIP3    H180611   4.603   1.800   2.299 -0.1944  1.5355  0.2696
19732TIP3    H280612   4.487   1.866   2.370  0.0576  0.0610  2.0815
19733TIP3   OH280613   0.711   0.671  16.580  0.0716  0.5838 -0.3542
19733TIP3    H180614   0.801   0.691  16.554  0.6257  0.6905  1.5848
19733TIP3    H280615   0.720   0.594  16.637 -1.3565 -1.1305 -2.3455
19734TIP3   OH280616   3.034   3.929   4.121  0.1647  0.1101 -0.1517
19734TIP3    H180617   3.079   3.845   4.119 -0.7427 -0.3727 -0.5917
19734TIP3    H280618   2.944   3.907   4.147 -0.0802  0.9440 -0.2825
19735TIP3   OH280619   1.160   6.410   5.600  0.0651 -0.0526  0.4606
19735TIP3    H180620   1.122   6.357   5.530  0.0228 -0.4576  0.7848
19735TIP3    H280621   1.130   6.367   5.681 -0.0940  0.5532  0.7236
19736TIP3   OH280622   0.043   0.140  15.579 -0.3972  0.1065 -0.0846
19736TIP3    H180623   0.089   0.065  15.543  1.1558  0.8191  0.3473
19736TIP3    H280624   0.024   0.195  15.503 -0.0452  0.0603 -0.2091
19737TIP3   OH280625   1.774   5.329   0.489 -0.5683 -0.0624 -0.1189
19737TIP3    H180626   1.769   5.292   0.577 -0.9355 -0.6316 -0.3797
19737TIP3    H280627   1.692   5.304   0.447 -1.8510  2.9472  0.4361
19738TIP3   OH280628   5.640   1.548  12.764  0.5399 -0.3162  0.5210
19738TIP3    H180629   5.575   1.482  12.788  1.5690 -0.9108  1.7175
19738TIP3    H280630   5.629   1.618  12.827  0.3146  0.0912  0.0358
19739TIP3   OH280631   2.570   6.058   1.578  1.0416 -0.1495 -0.4125
19739TIP3    H180632   2.632   6.030   1.511 -0.5078  0.5564 -2.1818
19739TIP3    H280633   2.519   5.980   1.598  1.3080 -0.2881 -0.2772
19740TIP3   OH280634   0.393   2.459  11.969 -0.7963 -0.2410  0.0466
19740TIP3    H180635   0.364   2.402  12.040  1.6130 -0.9405  0.5060
19740TIP3    H280636   0.368   2.412  11.889 -0.6886 -0.9439  0.4269
19741TIP3   OH280637   6.642   0.539   4.354  0.2054 -0.6317 -0.4299
19741TIP3    H180638   6.697   0.461   4.344 -0.9216 -1.4255 -0.4378
19741TIP3    H280639   6.589   0.541   4.275 -1.5004 -1.2358  0.6692
19742TIP3   OH280640   2.581   5.064   3.714 -0.0074 -0.4137  0.3028
19742TIP3    H180641   2.585   5.120   3.792 -1.7307 -1.4667  1.1725
19742TIP3    H280642   2.629   4.985   3.738  1.3693  0.1533 -0.5022
19743TIP3   OH280643   1.330   5.047  11.342  0.0109  0.5555  0.3619
19743TIP3    H180644   1.368   5.135  11.335  0.9965  0.2116  1.3272
19743TIP3    H280645   1.236   5.062  11.340  0.1692  1.6402  0.5068
19744TIP3   OH280646   6.036   3.568   2.409  0.2386 -0.7918 -0.2120
19744TIP3    H180647   5.967   3.583   2.474 -0.7535 -0.8138 -1.2557
19744TIP3    H280648   5.996   3.592   2.325  1.3951 -1.1183 -0.8679
19745TIP3   OH280649   6.581   0.625  12.343 -0.4141 -0.2423 -0.3293
19745TIP3    H180650   6.606   0.549  12.291 -0.5521 -1.9790  2.0659
19745TIP3    H280651   6.645   0.628  12.414 -0.9931  1.2952  0.1538
19746TIP3   OH280652   4.841   1.001   4.601 -0.5792  0.1184  0.0909
19746TIP3    H180653   4.766   0.943   4.595 -0.0446 -0.4752 -1.0094
19746TIP3    H280654   4.915   0.943   4.621 -0.1664  0.4940 -0.3216
19747TIP3   OH280655   1.891   4.537  14.352 -0.2202  0.5505 -0.3472
19747TIP3    H180656   1.865   4.539  14.445 -0.5280  0.4542 -0.4316
19747TIP3    H280657   1.981   4.505  14.353  0.3160  2.0142  0.0440
19748TIP3   OH280658   4.242   0.228  12.670 -0.1798 -0.5810  0.2996
19748TIP3    H180659   4.156   0.261  12.647  0.7487  0.4822 -1.7457
19748TIP3    H280660   4.283   0.206  12.586  2.2263  0.6993  1.0873
19749TIP3   OH280661   0.110   5.585  13.068 -0.1648  0.2043 -0.0434
19749TIP3    H180662   0.055   5.512  13.042 -0.9996  1.3827 -1.6896
19749TIP3    H280663   0.163   5.551  13.141 -1.6640 -1.5252  0.2736
19750TIP3   OH280664   1.004   0.220   5.682 -0.3462  0.4362  0.3018
19750TIP3    H180665   0.918   0.237   5.721 -0.6743  0.7494 -0.5492
19750TIP3    H280666   1.042   0.307   5.670  0.4091  0.2674  1.3727
19751TIP3   OH280667   3.014   2.257   3.728  0.5968 -0.4779  0.0949
19751TIP3    H180668   3.001   2.192   3.796  1.3897 -0.2373  0.4858
19751TIP3    H280669   2.947   2.323   3.744  0.5326 -0.6201  0.4044
19752TIP3   OH280670   3.472   1.648  16.605  0.0608 -0.1385 -0.0895
19752TIP3    H180671   3.382   1.648  16.638 -0.6543 -0.2682 -2.0081
19752TIP3    H280672   3.474   1.716  16.538  1.5488  0.2441  0.3162
19753TIP3   OH280673   1.554   5.546  12.864  0.3398  0.6425  0.0168
19753TIP3    H180674   1.572   5.512  12.776  0.6552  1.3503 -0.1915
19753TIP3    H280675   1.471   5.592  12.855  0.8352  1.5130 -0.1254
19754TIP3   OH280676   3.071   6.110  11.215  0.4972 -0.1232 -0.3739
19754TIP3    H180677   3.129   6.165  11.266 -0.4985 -1.0632  1.8163
19754TIP3    H280678   3.065   6.154  11.130 -1.2748  3.8144  1.6931
19755TIP3   OH280679   4.407   1.617   1.458  0.0355  0.1765  0.3778
19755TIP3    H180680   4.407   1.635   1.364  1.1521  0.4768  0.4193
19755TIP3    H280681   4.334   1.668   1.493  0.1982  0.8148 -0.2002
19756TIP3   OH280682   5.076   0.377  15.167  0.2964  0.1000  0.1575
19756TIP3    H180683   5.025   0.337  15.237  0.5550 -1.8302 -0.7180
19756TIP3    H280684   5.028   0.356  15.087  1.3261  0.1057 -0.4720
19757TIP3   OH280685   6.360   3.268  11.024 -0.0748  0.2305  0.0871
19757TIP3    H180686   6.297   3.196  11.017 -1.2820  1.0976  1.6641
19757TIP3    H280687   6.327   3.336  10.965  0.2547  0.0847 -0.2718
19758TIP3   OH280688   4.751   2.316  14.625  0.0661  0.3635 -0.1164
19758TIP3    H180689   4.701   2.276  14.554 -0.6226 -0.7184  0.9563
19758TIP3    H280690   4.727   2.409  14.621 -2.1925 -0.1490  0.4612
19759TIP3   OH280691   4.983   4.710  13.151 -0.6565 -0.5231 -0.4558
19759TIP3    H180692   4.921   4.695  13.223 -2.6850 -3.2537 -2.6629
19759TIP3    H280693   5.028   4.626  13.141 -1.3176 -0.5892 -3.1783
19760TIP3   OH280694   1.605   0.936  14.246  0.4854  0.0568  0.2729
19760TIP3    H180695   1.514   0.944  14.221 -0.1285  0.8028  2.5796
19760TIP3    H280696   1.654   0.987  14.182 -0.4940 -1.9193 -2.1111
19761TIP3   OH280697   6.168   0.834   1.010  0.1400 -0.2933 -0.1588
19761TIP3    H180698   6.157   0.896   0.938 -1.8362 -0.7954 -0.3357
19761TIP3    H280699   6.085   0.839   1.057  0.9226 -0.9507  1.3082
19762TIP3   OH280700   0.771   4.188   0.925  0.1380 -0.5155 -0.0497
19762TIP3    H180701   0.783   4.191   1.020 -1.4247 -0.5015  0.1667
19762TIP3    H280702   0.802   4.272   0.893 -1.4764  0.3842  0.7212
19763TIP3   OH280703   2.048   0.486  14.148 -0.5198  0.0120 -0.6969
19763TIP3    H180704   1.966   0.532  14.132  0.8599  2.5822 -0.6099
19763TIP3    H280705   2.095   0.489  14.064 -0.7669 -1.9945 -0.9249
19764TIP3   OH280706   3.633   1.380   0.840  0.0831 -0.1777  0.0550
19764TIP3    H180707   3.609   1.384   0.933  2.3945  0.7226  0.6332
19764TIP3    H280708   3.643   1.286   0.823 -0.4786 -0.3597  0.6654
19765TIP3   OH280709   1.113   3.833   3.095  0.5165  0.1232  0.1396
19765TIP3    H180710   1.097   3.916   3.051 -1.0330 -0.1227  0.2181
19765TIP3    H280711   1.088   3.766   3.031  0.6044 -0.2732  0.5144
19766TIP3   OH280712   2.354   2.139   0.843 -0.1613  0.4512  0.1771
19766TIP3    H180713   2.341   2.161   0.935  1.0363 -1.9249  0.9346
19766TIP3    H280714   2.447   2.154   0.827  0.0135 -0.9103 -0.1446
19767TIP3   OH280715   2.396   0.487  11.959  0.1764 -0.2474 -0.6071
19767TIP3    H180716   2.344   0.455  12.034  0.6501  0.4334  0.0187
19767TIP3    H280717   2.482   0.444  11.970  0.1785 -0.3135 -0.8813
19768TIP3   OH280718   1.773   0.634   1.101  0.2868  0.1324  0.7356
19768TIP3    H180719   1.722   0.699   1.149 -1.5918  0.3155 -1.4114
19768TIP3    H280720   1.742   0.550   1.133 -2.5759  0.2106 -1.6520
19769TIP3   OH280721   1.681   1.975   1.215 -0.0597 -0.5818  0.3052
19769TIP3    H180722   1.766   1.966   1.172  0.3353  1.5533  0.5771
19769TIP3    H280723   1.618   1.937   1.154  0.9406 -0.9459 -0.4969
19770TIP3   OH280724   4.984   3.414  12.163 -0.3589  0.1196  0.6724
19770TIP3    H180725   5.040   3.491  12.173 -0.2536  0.0182  0.8663
19770TIP3    H280726   4.929   3.434  12.087  0.8275 -0.3367 -0.3047
19771TIP3   OH280727   3.161   5.102   2.274  0.2877  0.1285 -0.0385
19771TIP3    H180728   3.239   5.153   2.295 -0.2740  1.2252 -0.5636
19771TIP3    H280729   3.092   5.167   2.263 -0.7975 -0.8431  0.7911
19772TIP3   OH280730   4.676   4.816   1.075  0.0982 -0.0889  0.5469
19772TIP3    H180731   4.686   4.902   1.116 -1.4265  0.2762  0.1593
19772TIP3    H280732   4.684   4.755   1.149  0.2975  0.4140  0.9521
19773TIP3   OH280733   6.491   5.753  15.682 -0.3177  0.2328 -0.5876
19773TIP3    H180734   6.476   5.847  15.677 -0.9548  0.1736  0.0561
19773TIP3    H280735   6.461   5.719  15.597  0.6943  0.7032 -1.1370
19774TIP3   OH280736   0.576   0.073   1.447 -0.2106  0.0880 -0.2342
19774TIP3    H180737   0.498   0.019   1.438  0.0589 -0.1924 -0.9391
19774TIP3    H280738   0.623   0.061   1.364  1.4565 -1.1060  0.8524
19775TIP3   OH280739   1.607   2.870  10.589 -0.0962  0.5950 -0.1913
19775TIP3    H180740   1.543   2.939  10.607  0.8369  1.7193 -1.0855
19775TIP3    H280741   1.570   2.821  10.516 -0.2238  0.8728 -0.3155
19776TIP3   OH280742   6.712   2.200   0.922 -0.1150 -0.3165  0.3000
19776TIP3    H180743   6.738   2.120   0.875  0.3717 -0.7401  1.2659
19776TIP3    H280744   6.739   2.271   0.865 -0.5782 -0.8523 -0.5873
19777TIP3   OH280745   2.157   5.426  13.666 -0.9172 -0.2577  0.3043
19777TIP3    H180746   2.121   5.343  13.636 -1.0649 -0.5721  1.3415
19777TIP3    H280747   2.106   5.448  13.744  0.7524 -0.4378  1.4843
19778TIP3   OH280748   1.937   2.044   4.112  0.6049  0.5104 -0.2530
19778TIP3    H180749   1.908   2.113   4.052 -0.0944  0.7116  0.3056
19778TIP3    H280750   1.925   1.962   4.063  0.1707  0.6838 -0.4335
19779TIP3   OH280751   2.329   5.945   3.419  0.4902  0.3568 -0.2326
19779TIP3    H180752   2.245   5.902   3.433  0.2057  0.5818 -1.2167
19779TIP3    H280753   2.309   6.019   3.361  1.0264  1.6214  1.1490
19780TIP3   OH280754   1.623   0.147  15.261 -0.3538 -0.1177 -0.0597
19780TIP3    H180755   1.691   0.157  15.195  2.0528 -0.7709  2.2421
19780TIP3    H280756   1.647   0.068  15.308 -2.4772 -0.1117  1.0922
19781TIP3   OH280757   5.370   1.419  13.537 -0.2627  0.4065 -0.1112
19781TIP3    H180758   5.371   1.410  13.442 -0.6945 -0.5675 -0.0220
19781TIP3    H280759   5.343   1.333  13.570  2.4270 -0.0605  0.9921
19782TIP3   OH280760   0.015   6.690   6.635  0.1544 -0.1252  0.1368
19782TIP3    H180761  -0.063   6.692   6.579 -0.7078  1.0103  1.3590
19782TIP3    H280762   0.075   6.753   6.595 -0.0373 -0.0856 -0.0914
19783TIP3   OH280763   6.017   5.243  15.476 -0.2016 -0.5516 -0.4463
19783TIP3    H180764   6.054   5.230  15.389 -3.2150 -0.0018 -1.8578
19783TIP3    H280765   6.027   5.158  15.519  0.4222 -1.0990 -1.6531
19784TIP3   OH280766   2.134   1.161  13.579 -0.4529  0.3283 -0.3537
19784TIP3    H180767   2.184   1.086  13.546 -0.2415  0.5079 -0.4450
19784TIP3    H280768   2.115   1.213  13.501 -0.4224  0.4751 -0.2623
19785TIP3   OH280769   4.012   4.836   3.305  0.2789  0.5021 -0.0573
19785TIP3    H180770   4.084   4.887   3.269  1.9713 -2.3048 -0.7747
19785TIP3    H280771   4.036   4.821   3.396 -0.4793  1.4164  0.3013
19786TIP3   OH280772   6.327   3.899   1.356 -0.0631 -0.6174  0.6975
19786TIP3    H180773   6.305   3.988   1.382  0.8633  0.2179 -1.2763
19786TIP3    H280774   6.417   3.887   1.383 -0.2647 -1.0505  1.1871
19787TIP3   OH280775   1.772   0.249  15.857  0.2329 -0.3939  0.1527
19787TIP3    H180776   1.787   0.325  15.913 -0.3952 -0.3311  0.2368
19787TIP3    H280777   1.829   0.264  15.781 -0.1243  0.3110  0.0221
19788TIP3   OH280778   2.609   4.888  13.343  0.0338 -0.2352 -0.2829
19788TIP3    H180779   2.582   4.914  13.431 -2.3275 -0.4560 -0.8983
19788TIP3    H280780   2.644   4.968  13.304  0.0719  0.1288  0.4866
19789TIP3   OH280781   6.738   0.574  13.343 -0.1642 -0.2772 -0.1084
19789TIP3    H180782   6.709   0.578  13.435 -0.2190  0.3573 -0.1556
19789TIP3    H280783   6.775   0.660  13.326  0.0574 -0.4751 -0.6177
19790TIP3   OH280784   4.340   6.374  15.851  0.3366 -0.1535  0.1540
19790TIP3    H180785   4.381   6.290  15.869 -0.6757 -0.7770 -0.3659
19790TIP3    H280786   4.246   6.354  15.847  0.2236  0.6420 -1.8801
19791TIP3   OH280787   0.358   1.619  16.290  0.1370  0.2286 -0.7478
19791TIP3    H180788   0.346   1.686  16.222  1.6956  1.0573 -0.2458
19791TIP3    H280789   0.334   1.537  16.248 -2.4603  1.1556 -1.1844
19792TIP3   OH280790   4.968   2.316   4.560 -0.2634 -1.1114  0.5730
19792TIP3    H180791   4.958   2.370   4.639  0.1476  1.7029 -1.2230
19792TIP3    H280792   5.059   2.288   4.562  1.4327  3.6340 -1.6280
19793TIP3   OH280793   1.094   2.785  13.287 -0.3248 -0.2523  0.0454
19793TIP3    H180794   1.072   2.867  13.332 -3.0618 -0.2034 -1.3081
19793TIP3    H280795   1.078   2.717  13.353  0.1187  0.1358  0.5623
19794TIP3   OH280796   6.245   0.690   0.086  0.6285  0.3292  0.5466
19794TIP3    H180797   6.305   0.750   0.128  0.5139  1.2641 -0.6006
19794TIP3    H280798   6.203   0.742   0.017  0.6276 -1.0905 -0.5428
19795TIP3   OH280799   2.891   1.107   0.995 -0.3664 -0.1891  0.5056
19795TIP3    H180800   2.951   1.034   1.006 -1.3935 -0.9893  0.9641
19795TIP3    H280801   2.944   1.186   1.009  1.0410 -0.7852 -1.3137
19796TIP3   OH280802   0.448   0.746   1.077 -0.0628  0.2123  0.0786
19796TIP3    H180803   0.414   0.714   1.160 -1.0347  1.4292  0.1654
19796TIP3    H280804   0.386   0.814   1.050  1.4168  1.3528 -0.5518
19797TIP3   OH280805   4.529   2.709   5.221 -0.1103 -0.1951  0.2427
19797TIP3    H180806   4.582   2.788   5.230 -0.3817  0.0823 -0.6208
19797TIP3    H280807   4.577   2.642   5.270  0.7645  0.1828 -0.1077
19798TIP3   OH280808   6.218   0.496  12.660 -0.0710  0.2257 -0.0509
19798TIP3    H180809   6.274   0.442  12.715  1.1629 -0.8094 -2.2455
19798TIP3    H280810   6.277   0.557  12.617 -0.7200 -0.2445 -1.6629
19799TIP3   OH280811   3.418   5.280  15.766 -0.1829  0.0191 -0.5046
19799TIP3    H180812   3.330   5.296  15.800  0.1082  0.4593  0.0593
19799TIP3    H280813   3.476   5.302  15.839  0.2790 -3.6465  0.3607
19800TIP3   OH280814   1.526   6.659  11.369  0.0882 -0.6558  0.1476
19800TIP3    H180815   1.563   6.590  11.313 -0.5250 -1.3616  0.6019
19800TIP3    H280816   1.567   6.644  11.454  0.0070 -0.4112  0.2278
19801TIP3   OH280817   6.420   5.768   4.179  0.6246 -0.1343 -0.6832
19801TIP3    H180818   6.358   5.783   4.250  1.4497 -1.2723  0.2933
19801TIP3    H280819   6.465   5.851   4.168 -0.1021  0.2917 -0.4521
19802TIP3   OH280820   2.932   2.162   4.858 -0.2083  0.0519  0.5159
19802TIP3    H180821   2.860   2.181   4.799  0.0581  0.1118  0.2135
19802TIP3    H280822   2.954   2.246   4.898 -0.5352 -0.0273  0.8678
19803TIP3   OH280823   0.347   1.520   2.971  0.1041  0.1048  0.6628
19803TIP3    H180824   0.430   1.495   3.011  1.1179  0.7198 -1.0136
19803TIP3    H280825   0.312   1.438   2.935  0.3905  0.0041  0.6160
19804TIP3   OH280826   4.951   0.837  16.457  0.0259  0.4289 -0.1501
19804TIP3    H180827   4.980   0.864  16.370 -0.6697 -0.0635 -0.5464
19804TIP3    H280828   4.859   0.813  16.445  0.4829 -1.6603  0.2826
19805TIP3   OH280829   6.123   0.298  11.354 -0.1670  0.2471 -0.1714
19805TIP3    H180830   6.072   0.311  11.274 -0.1316 -0.6878 -0.3540
19805TIP3    H280831   6.164   0.383  11.370 -0.4530  0.5396 -0.9482
19806TIP3   OH280832   3.173   3.037   5.308 -0.1128  0.2840  0.4849
19806TIP3    H180833   3.144   2.950   5.337  0.3654  0.9347  3.0764
19806TIP3    H280834   3.224   3.020   5.229 -0.3387 -1.7429  0.7264
19807TIP3   OH280835   3.608   6.365  16.511 -0.0543  0.0102 -0.4049
19807TIP3    H180836   3.633   6.379  16.602 -0.7416  0.9411 -0.3478
19807TIP3    H280837   3.687   6.329  16.470  1.2591  2.4357 -0.1200
19808TIP3   OH280838   2.547   0.038  15.475  0.1124 -0.5058 -0.1382
19808TIP3    H180839   2.484   0.059  15.406 -1.2852 -0.8549  1.0276
19808TIP3    H280840   2.504  -0.029  15.527  0.4194  1.0058  2.1311
19809TIP3   OH280841   0.302   6.293  15.824  0.8494 -0.5520 -0.1513
19809TIP3    H180842   0.337   6.244  15.749 -0.1315  0.0944 -1.0399
19809TIP3    H280843   0.354   6.263  15.898  1.7553 -1.2931 -1.0689
19810TIP3   OH280844   5.487   1.777  16.130  0.0346  0.4704  0.5382
19810TIP3    H180845   5.567   1.814  16.093  0.6233 -0.6884  0.6271
19810TIP3    H280846   5.417   1.808  16.072  0.7696 -0.1077 -0.6806
19811TIP3   OH280847   4.557   6.656   1.070 -0.5203  0.2090 -0.6225
19811TIP3    H180848   4.554   6.595   1.144 -1.9558  0.7156 -0.2526
19811TIP3    H280849   4.465   6.668   1.044 -0.2641  2.2448 -0.6702
19812TIP3   OH280850   0.072   3.673  12.543 -0.2039  0.6227  0.2463
19812TIP3    H180851  -0.016   3.673  12.504 -0.4641 -0.7822  0.8124
19812TIP3    H280852   0.085   3.583  12.572  1.0398  1.0595  1.0559
19813TIP3   OH280853   5.070   4.512   2.310 -0.2813  0.1333  0.6687
19813TIP3    H180854   5.059   4.575   2.381  2.0009  0.2603  0.9335
19813TIP3    H280855   5.164   4.507   2.296 -0.5505 -1.6766 -0.7526
19814TIP3   OH280856   4.889   3.176  14.671 -0.9478  0.4598 -0.5649
19814TIP3    H180857   4.812   3.204  14.722 -0.3218  2.6332 -0.7737
19814TIP3    H280858   4.961   3.227  14.707  0.4733 -1.7489 -0.2185
19815TIP3   OH280859   2.544   0.657   1.986  0.4500  0.7034 -0.4400
19815TIP3    H180860   2.620   0.693   2.032  1.4573  0.8035 -2.1664
19815TIP3    H280861   2.538   0.567   2.018  0.9095  0.8840  0.1749
19816TIP3   OH280862   4.299   6.264  10.993  0.3054  0.3933  0.0568
19816TIP3    H180863   4.206   6.283  10.987  0.4688  0.8385 -1.1909
19816TIP3    H280864   4.304   6.180  11.039 -0.6806  0.6170  0.5688
19817TIP3   OH280865   4.371   0.715   2.679  0.2175  0.1561 -0.3937
19817TIP3    H180866   4.445   0.763   2.717  0.3867 -0.1184 -0.3763
19817TIP3    H280867   4.364   0.636   2.732  1.2466 -0.8468 -1.6951
19818TIP3   OH280868   1.396   0.300   3.331 -0.2578  0.0452 -0.0679
19818TIP3    H180869   1.427   0.352   3.406 -1.0257 -1.2152  1.1474
19818TIP3    H280870   1.315   0.343   3.305 -0.0928  0.3719 -0.0549
19819TIP3   OH280871   6.013   5.395  16.656  0.0376  0.2625  0.1905
19819TIP3    H180872   5.991   5.423  16.567  0.1264 -1.4789 -0.3979
19819TIP3    H280873   6.061   5.469  16.693  1.5672  0.3432 -1.8285
19820TIP3   OH280874   4.611   6.016  12.661 -0.5111 -0.5220 -0.6265
19820TIP3    H180875   4.643   6.068  12.587 -0.7510 -1.7172 -1.5808
19820TIP3    H280876   4.625   6.072  12.737  1.4928 -0.0223 -1.3344
19821TIP3   OH280877   1.655   3.441   4.428 -0.2417  0.5483 -0.6013
19821TIP3    H180878   1.657   3.372   4.361 -0.8274 -0.3482  0.2903
19821TIP3    H280879   1.631   3.395   4.508 -3.4551  2.1982 -0.5360
19822TIP3   OH280880   4.529   2.641   1.731 -0.1393 -0.2025  0.0217
19822TIP3    H180881   4.440   2.670   1.714 -0.1509 -0.6374 -0.6645
19822TIP3    H280882   4.530   2.549   1.704 -0.0067 -0.7531  1.8511
19823TIP3   OH280883   6.253   5.536   3.529  0.0551 -0.3437  0.5588
19823TIP3    H180884   6.192   5.472   3.566  1.5101 -2.6832 -0.9601
19823TIP3    H280885   6.286   5.585   3.605  1.2218 -3.4488  2.1117
19824TIP3   OH280886   1.993   4.780  12.372 -0.3541 -0.1384 -0.0050
19824TIP3    H180887   1.982   4.872  12.393 -0.1566  0.2679 -1.5900
19824TIP3    H280888   1.911   4.755  12.328  0.5507 -0.0467 -1.8018
19825TIP3   OH280889   3.671   4.689  10.806 -0.1816 -0.1883 -0.1684
19825TIP3    H180890   3.578   4.702  10.789  0.5578  1.0774 -3.5069
19825TIP3    H280891   3.680   4.594  10.819 -2.0899 -0.1740  1.4386
19826TIP3   OH280892   5.148   1.372   4.809  0.3406  0.4480 -0.3668
19826TIP3    H180893   5.134   1.394   4.717 -1.3338  0.0566 -0.2324
19826TIP3    H280894   5.120   1.281   4.817 -0.9381  0.9143  0.8072
19827TIP3   OH280895   1.636   1.058  13.032 -0.1253 -0.0337  0.3047
19827TIP3    H180896   1.682   0.993  12.978  0.3944  1.2860 -0.8770
19827TIP3    H280897   1.690   1.066  13.111  1.7802  1.5303 -1.0836
19828TIP3   OH280898   1.093   6.157  17.053  0.0336  0.0546  0.2162
19828TIP3    H180899   1.132   6.201  17.128  0.1983 -0.3106  0.3429
19828TIP3    H280900   1.163   6.102  17.018 -0.0514  0.2011 -0.1890
19829TIP3   OH280901   4.991   4.525  13.414  0.2772  0.0416 -0.9682
19829TIP3    H180902   5.049   4.519  13.489  0.9353  1.4644 -1.3367
19829TIP3    H280903   4.981   4.435  13.383  1.3609 -0.3405 -0.2113
19830TIP3   OH280904   2.854   0.292  13.297 -0.1618 -0.2049 -0.2745
19830TIP3    H180905   2.840   0.282  13.202  0.9021  2.1998 -0.7385
19830TIP3    H280906   2.802   0.370  13.319 -0.6749 -0.9640  1.1936
19831TIP3   OH280907   5.162   5.726   3.351 -0.5342 -0.0355  0.4933
19831TIP3    H180908   5.131   5.811   3.321  0.9244  0.9349  1.6473
19831TIP3    H280909   5.212   5.745   3.431  1.5477 -1.7108 -0.3526
19832TIP3   OH280910   1.364   5.776  15.781 -0.0748  0.2007 -0.8261
19832TIP3    H180911   1.396   5.858  15.817  2.2477 -1.8678  2.0803
19832TIP3    H280912   1.270   5.788  15.772 -0.1539  2.2518  2.0916
19833TIP3   OH280913   1.489   5.369  17.208  0.0278  0.0557  0.4025
19833TIP3    H180914   1.454   5.287  17.175  2.8792 -0.3836 -1.7110
19833TIP3    H280915   1.572   5.381  17.162 -0.7262  4.5991 -0.0469
19834TIP3   OH280916   4.700   0.935  16.222 -0.0646  0.2436 -0.5173
19834TIP3    H180917   4.628   0.954  16.283  0.7800  4.0957 -0.6011
19834TIP3    H280918   4.738   1.020  16.203  2.9960 -1.4719 -2.4246
19835TIP3   OH280919   4.869   6.018   5.814 -0.4866  0.0808  0.3127
19835TIP3    H180920   4.852   6.054   5.727  1.4000  0.4438  0.0605
19835TIP3    H280921   4.906   5.932   5.797  2.3137  1.1693  0.6259
19836TIP3   OH280922   4.735   3.507  15.379  0.3051 -0.0617  0.1292
19836TIP3    H180923   4.775   3.423  15.359 -1.2961 -0.9395  0.4850
19836TIP3    H280924   4.683   3.528  15.301  0.2195  0.2987  0.2804
19837TIP3   OH280925   0.937   0.609  13.561 -0.4799 -0.3382  0.4478
19837TIP3    H180926   0.924   0.589  13.468 -1.3750 -0.1040  0.5203
19837TIP3    H280927   0.895   0.536  13.607 -0.3854 -0.2500  0.6739
19838TIP3   OH280928   5.313   2.987  12.756 -0.5183  0.3958 -0.0938
19838TIP3    H180929   5.325   3.048  12.830  0.6659  1.0652 -0.8069
19838TIP3    H280930   5.251   3.031  12.698 -0.5531  0.3980 -0.0546
19839TIP3   OH280931   5.506   0.849   1.412 -0.2433  0.6155 -0.6183
19839TIP3    H180932   5.414   0.877   1.407 -0.4129 -0.0984 -1.4785
19839TIP3    H280933   5.507   0.762   1.374  0.5978  0.1269  0.4919
19840TIP3   OH280934   2.132   1.906  10.899 -0.5828 -0.3553  0.3767
19840TIP3    H180935   2.105   1.815  10.888 -1.6987  0.0565 -0.3696
19840TIP3    H280936   2.182   1.927  10.819  0.0302 -0.4278  0.7340
19841TIP3   OH280937   0.171   1.964   2.876  0.1057 -0.3355  1.2135
19841TIP3    H180938   0.164   1.995   2.966 -1.4079 -0.6037  1.1954
19841TIP3    H280939   0.090   1.915   2.860 -1.0684  2.2392 -1.2772
19842TIP3   OH280940   0.276   2.649   4.166 -0.6925  0.2810  0.3439
19842TIP3    H180941   0.234   2.728   4.131 -2.7001 -0.8461  0.1495
19842TIP3    H280942   0.215   2.617   4.233  0.2662 -0.9143  0.6655
19843TIP3   OH280943   0.473   4.945  16.557 -0.2336 -0.1264 -0.5829
19843TIP3    H180944   0.545   4.882  16.556  1.3349  1.6259 -1.2566
19843TIP3    H280945   0.482   4.994  16.476 -1.9636  0.3878 -0.4865
19844TIP3   OH280946   1.638   3.538   1.065  0.4150  0.2834 -0.2863
19844TIP3    H180947   1.679   3.549   1.150 -0.1145 -1.0610  0.1560
19844TIP3    H280948   1.693   3.587   1.005  0.8228  1.1936  0.8203
19845TIP3   OH280949   1.134   6.672   3.534  0.1284 -1.3142  0.5781
19845TIP3    H180950   1.202   6.732   3.564  1.6501 -1.3025 -2.7252
19845TIP3    H280951   1.169   6.585   3.554  0.9911 -1.2993 -0.8463
19846TIP3   OH280952   4.906   0.623  13.305 -0.0360  0.0544 -0.3807
19846TIP3    H180953   4.875   0.627  13.214  0.8143  0.1898 -0.6739
19846TIP3    H280954   4.839   0.573  13.351 -0.5084  0.0375 -1.0740
19847TIP3   OH280955   6.041   5.528   4.374  0.5816  0.2017 -0.4474
19847TIP3    H180956   6.000   5.608   4.341  1.2515  1.3509  1.4583
19847TIP3    H280957   6.135   5.547   4.373  0.6755 -0.1306  1.0967
19848TIP3   OH280958   6.246   5.608   4.816 -0.2185  0.3667  1.3585
19848TIP3    H180959   6.319   5.618   4.878 -0.1404 -0.2847  1.3829
19848TIP3    H280960   6.270   5.662   4.741  1.3194 -1.4747  0.4577
19849TIP3   OH280961   4.584   6.616  11.251 -0.1657  0.8978 -0.0907
19849TIP3    H180962   4.532   6.577  11.321  0.4276  0.1634 -0.0595
19849TIP3    H280963   4.546   6.579  11.171  2.4514 -2.3200  0.0533
19850TIP3   OH280964   6.215   4.194   0.492  0.1416  0.6364  0.2070
19850TIP3    H180965   6.127   4.186   0.454 -0.6204  0.5702  1.9170
19850TIP3    H280966   6.268   4.133   0.441 -2.0779 -3.6140  2.7024
19851TIP3   OH280967   3.614   0.544  12.766  0.3698 -0.2957 -0.4568
19851TIP3    H180968   3.685   0.507  12.819  1.2719  0.2188 -1.2948
19851TIP3    H280969   3.654   0.617  12.719 -1.0836  0.9721  0.2057
19852TIP3   OH280970   2.100   0.731  16.661  0.4850  0.0581  0.3408
19852TIP3    H180971   2.007   0.715  16.676  0.3883  0.8467  0.5642
19852TIP3    H280972   2.144   0.674  16.725  0.1600 -0.1424  0.3901
19853TIP3   OH280973   4.860   6.242   1.338 -0.2646 -0.2620  0.2155
19853TIP3    H180974   4.954   6.223   1.345 -0.1177  0.1663 -0.5501
19853TIP3    H280975   4.821   6.195   1.412  0.4954 -0.8278  0.2674
19854TIP3   OH280976   4.379   3.049   3.183 -0.5599  0.6502  0.4649
19854TIP3    H180977   4.407   3.088   3.100  0.2106 -2.4474 -0.8003
19854TIP3    H280978   4.378   3.122   3.245 -2.7083  3.3504 -2.6018
19855TIP3   OH280979   3.638   0.720   1.116 -0.4864  0.2092  0.2551
19855TIP3    H180980   3.617   0.810   1.141 -0.1565  0.0280  1.1986
19855TIP3    H280981   3.691   0.728   1.037  1.0629  0.9206  1.3475
19856TIP3   OH280982   4.690   5.955  14.108 -0.0113  0.9062 -0.2572
19856TIP3    H180983   4.672   6.040  14.147  2.6479  1.9961 -1.3137
19856TIP3    H280984   4.719   5.974  14.019 -1.2606 -1.2526 -1.1822
19857TIP3   OH280985   1.281   5.326   3.118  0.2533 -0.1798  0.2346
19857TIP3    H180986   1.212   5.263   3.095  0.2323  0.6804 -2.1402
19857TIP3    H280987   1.233   5.402   3.152 -0.0651  0.6576 -1.9789
19858TIP3   OH280988   0.287   1.837  13.809 -0.0380 -0.1340 -0.2001
19858TIP3    H180989   0.212   1.825  13.752 -0.3391  0.6508  0.0212
19858TIP3    H280990   0.336   1.755  13.803 -0.9064 -0.6457 -0.3534
19859TIP3   OH280991   5.590   2.545   2.955  0.7425 -0.0786  0.1534
19859TIP3    H180992   5.506   2.587   2.935 -0.1327 -0.7688  2.3247
19859TIP3    H280993   5.628   2.598   3.025  1.5617 -0.4746  0.0151
19860TIP3   OH280994   0.647   4.475  12.097 -0.7437  0.1215  0.0581
19860TIP3    H180995   0.596   4.541  12.051 -1.9094 -1.1345 -0.4918
19860TIP3    H280996   0.709   4.442  12.032 -0.0736  0.7444  0.3682
19861TIP3   OH280997   4.357   6.752   1.982  0.0754 -0.2658 -0.3969
19861TIP3    H180998   4.394   6.786   2.063 -0.9591 -1.0325  0.4055
19861TIP3    H280999   4.357   6.826   1.922 -1.9296  1.0898  1.2345
19862TIP3   OH281000   4.565   3.734  15.782  0.3360  0.2922  0.0294
19862TIP3    H181001   4.621   3.704  15.711 -0.6113 -0.2241 -0.5112
19862TIP3    H281002   4.477   3.705  15.757  0.0673 -0.3739  1.6781
19863TIP3   OH281003   5.235   0.591   5.219  0.1172 -0.4160  0.3863
19863TIP3    H181004   5.153   0.630   5.187  0.3559  0.6619  1.0679
19863TIP3    H281005   5.303   0.632   5.166  0.4998  1.2501  2.1075
19864TIP3   OH281006   6.091   3.576   4.184 -0.6182  0.4749 -0.5059
19864TIP3    H181007   6.026   3.595   4.116 -0.7228 -0.1291 -0.5751
19864TIP3    H281008   6.077   3.484   4.206  2.2028 -0.5514 -2.6842
19865TIP3   OH281009   3.778   0.965  12.566  0.9788  0.2209  0.2351
19865TIP3    H181010   3.839   0.992  12.497 -1.3716  2.4943 -1.0154
19865TIP3    H281011   3.796   1.024  12.639 -0.7285  1.9139 -0.6867
19866TIP3   OH281012   6.185   3.326  13.472 -0.0767  0.0142  0.4951
19866TIP3    H181013   6.244   3.266  13.425  1.2207  1.6190  0.0104
19866TIP3    H281014   6.234   3.350  13.551 -0.4770  0.6202  0.5605
19867TIP3   OH281015   2.026   4.045  13.950 -0.2288  0.2197  0.3602
19867TIP3    H181016   2.081   4.019  14.023 -2.3076 -1.6257  1.3117
19867TIP3    H281017   2.052   3.988  13.878  1.6959  1.9185 -0.3311
19868TIP3   OH281018   5.875   1.446  11.533 -0.3061  0.1906  0.0406
19868TIP3    H181019   5.940   1.406  11.476 -0.0067  0.3528  0.2630
19868TIP3    H281020   5.884   1.540  11.517 -0.1133  0.2488  0.4610
19869TIP3   OH281021   2.504   2.713   5.539  0.0743  0.3415 -0.0412
19869TIP3    H181022   2.523   2.720   5.445  1.3839  0.1089  0.2006
19869TIP3    H281023   2.514   2.802   5.572  0.9893  0.1861  0.1218
19870TIP3   OH281024   2.644   1.766   5.147  0.0915  0.1868 -0.1473
19870TIP3    H181025   2.665   1.859   5.156 -0.1756  0.0971  1.4307
19870TIP3    H281026   2.712   1.721   5.198 -0.5399 -0.4266  0.1535
19871TIP3   OH281027   2.432   0.547  12.384  0.2468 -1.0182 -0.0634
19871TIP3    H181028   2.364   0.577  12.445 -0.9452 -0.2433 -1.7618
19871TIP3    H281029   2.431   0.452  12.392 -0.2052 -0.9530  0.7929
19872TIP3   OH281030   6.013   5.522  12.459  0.4582  0.0890 -0.1954
19872TIP3    H181031   6.060   5.493  12.381 -0.8106  1.3641 -1.4651
19872TIP3    H281032   5.927   5.549  12.427 -1.1236 -2.0732  2.0651
19873TIP3   OH281033   0.808   3.651  15.726 -0.0850 -0.1746  0.1843
19873TIP3    H181034   0.767   3.651  15.813  0.7309 -0.5558  0.5723
19873TIP3    H281035   0.895   3.615  15.741  1.2345  2.7084 -0.2292
19874TIP3   OH281036   3.654   0.049   3.846  0.1195 -0.0117  0.3487
19874TIP3    H181037   3.654   0.127   3.791  2.0449  0.2633  0.6919
19874TIP3    H281038   3.568   0.048   3.887 -0.5412  0.9773 -0.9844
19875TIP3   OH281039   6.455   4.838   0.898 -0.1551  0.4070  0.3457
19875TIP3    H181040   6.415   4.752   0.911  0.9820 -0.3666 -1.0973
19875TIP3    H281041   6.409   4.875   0.823 -0.7132  1.1140  1.0292
19876TIP3   OH281042   6.225   1.852   0.543 -0.3316 -0.6908 -0.2579
19876TIP3    H181043   6.199   1.762   0.523 -4.8601  0.5359 -0.5780
19876TIP3    H281044   6.240   1.892   0.457  1.0042 -0.9179 -0.1443
19877TIP3   OH281045   0.380   3.320  11.939  0.3634 -0.2154  0.1149
19877TIP3    H181046   0.466   3.353  11.963  1.0265 -1.6938 -0.1821
19877TIP3    H281047   0.386   3.225  11.950 -0.3156 -0.6220 -2.6674
19878TIP3   OH281048   3.872   1.393   2.930 -0.1218  0.0680  0.0029
19878TIP3    H181049   3.879   1.377   3.024 -0.5960 -0.4199 -0.0409
19878TIP3    H281050   3.947   1.449   2.909 -0.5918  0.9998  0.8399
19879TIP3   OH281051   0.928   0.688   2.878  0.0558  0.4597 -0.1686
19879TIP3    H181052   1.011   0.665   2.920 -1.3256 -0.2531  2.3243
19879TIP3    H281053   0.876   0.727   2.949 -3.2142 -2.8064 -0.6062
19880TIP3   OH281054   4.057   6.684   0.982  0.0162 -0.0406  0.1419
19880TIP3    H181055   3.973   6.679   0.937 -1.1933  1.2279  2.1899
19880TIP3    H281056   4.099   6.762   0.945 -0.3987  0.2404  0.2603
19881TIP3   OH281057   3.643   2.049  11.475  0.3799 -0.2946 -0.6036
19881TIP3    H181058   3.688   1.965  11.479 -2.0687 -1.5651  2.2257
19881TIP3    H281059   3.552   2.028  11.455  0.0189  1.8133 -1.3688
19882TIP3   OH281060   0.576   2.121   1.066 -0.4298 -0.4475 -0.3350
19882TIP3    H181061   0.500   2.094   1.117 -0.4004  1.8936  1.0198
19882TIP3    H281062   0.651   2.104   1.123 -0.5383  4.0108  1.3231
19883TIP3   OH281063   1.639   3.254   4.624 -0.3688  0.1499  0.0055
19883TIP3    H181064   1.706   3.219   4.565  0.0495  1.3362 -0.2507
19883TIP3    H281065   1.565   3.195   4.614  1.6481 -3.0401  2.5772
19884TIP3   OH281066   0.264   5.422  13.265 -0.1587  0.1627  0.3316
19884TIP3    H181067   0.334   5.474  13.304 -0.0409  0.9871 -0.9528
19884TIP3    H281068   0.244   5.356  13.331  0.8817  0.7681  1.2735
19885TIP3   OH281069   5.849   5.150  13.621  0.4200 -0.4557  0.2227
19885TIP3    H181070   5.846   5.108  13.535 -1.3235  1.1771 -0.5404
19885TIP3    H281071   5.759   5.150  13.651  0.9980 -0.8191  1.9708
19886TIP3   OH281072   6.398   6.574  16.454 -0.2995 -0.5566  0.4368
19886TIP3    H181073   6.455   6.525  16.513 -0.4017 -0.8896  0.2632
19886TIP3    H281074   6.438   6.661  16.448  0.0028 -0.6849  0.5796
19887TIP3   OH281075   4.720   4.050   0.328 -0.5627  0.0513 -0.0602
19887TIP3    H181076   4.719   4.036   0.423  0.5310 -0.8404 -0.1648
19887TIP3    H281077   4.658   4.122   0.314 -3.3005 -1.9722  0.9766
19888TIP3   OH281078   0.589   5.970  16.180  0.7992  0.5992  0.0720
19888TIP3    H181079   0.597   5.940  16.271  0.0876 -0.8153 -0.3187
19888TIP3    H281080   0.679   5.993  16.155  1.3864 -1.2802  0.3867
19889TIP3   OH281081   5.221   1.200   6.577  0.8335  0.3769  0.1783
19889TIP3    H181082   5.187   1.164   6.496 -1.4639 -0.9590  1.6770
19889TIP3    H281083   5.168   1.278   6.593  1.4521  0.7829  0.2843
19890TIP3   OH281084   2.187   4.715   0.085  0.1130  0.5570 -0.1324
19890TIP3    H181085   2.139   4.712   0.168 -0.4065  1.4955 -0.3917
19890TIP3    H281086   2.123   4.743   0.021  0.3124 -0.9641 -1.0272
19891TIP3   OH281087   4.778   5.959   4.574  0.3383  0.8660  0.4332
19891TIP3    H181088   4.745   5.980   4.661 -0.0344  1.4990  0.1382
19891TIP3    H281089   4.765   6.038   4.522 -0.3720  0.1706 -0.4709
19892TIP3   OH281090   3.427   2.889   4.484 -0.1990  0.0142  0.0926
19892TIP3    H181091   3.443   2.936   4.402 -2.2569 -0.4373 -0.6023
19892TIP3    H281092   3.424   2.797   4.458  1.9040 -0.3921  1.1486
19893TIP3   OH281093   3.481   5.913   1.509  0.2451 -0.0014 -0.2703
19893TIP3    H181094   3.554   5.866   1.551 -0.0679 -1.7635 -1.6423
19893TIP3    H281095   3.430   5.947   1.582  2.8926  2.0284  0.7257
19894TIP3   OH281096   0.681   0.056   0.110  0.2364 -0.0504 -0.3029
19894TIP3    H181097   0.683   0.056   0.206 -1.6613 -2.5120 -0.2117
19894TIP3    H281098   0.692   0.148   0.086  1.0768  0.5564  2.2640
19895TIP3   OH281099   6.551   1.075  13.610 -0.2763 -0.1739 -0.5341
19895TIP3    H181100   6.641   1.045  13.616 -0.5047 -0.6890  0.5215
19895TIP3    H281101   6.529   1.068  13.517  0.0464 -2.2383 -0.4745
19896TIP3   OH281102   5.661   3.964   4.389 -0.6393 -0.2687 -0.1467
19896TIP3    H181103   5.577   4.001   4.363  0.5297  1.6198 -1.3560
19896TIP3    H281104   5.726   4.026   4.356  1.3835 -3.2879 -2.0151
19897TIP3   OH281105   4.070   0.195  14.736  0.0736  0.0332  0.4121
19897TIP3    H181106   3.985   0.235  14.753  0.4015  1.0417 -0.3049
19897TIP3    H281107   4.131   0.241  14.794 -0.1712 -2.0988  2.5020
19898TIP3   OH281108   0.599   4.642   1.235 -0.2743  0.2894  0.4189
19898TIP3    H181109   0.643   4.726   1.253 -0.1634  0.3295 -0.0359
19898TIP3    H281110   0.589   4.602   1.321  2.6223 -0.6881  0.3655
19899TIP3   OH281111   0.952   1.811   5.557 -0.4375 -0.2477 -0.0686
19899TIP3    H181112   1.020   1.751   5.588 -0.7564 -0.0013  1.1007
19899TIP3    H281113   0.870   1.774   5.590 -0.5449  1.4147  1.5979
19900TIP3   OH281114   2.520   3.833   1.605  0.2440  0.2625 -0.4377
19900TIP3    H181115   2.441   3.827   1.551  0.5829  0.7911 -1.0017
19900TIP3    H281116   2.575   3.761   1.575  0.1370  0.1293 -0.3133
19901TIP3   OH281117   5.642   0.977   3.050 -0.6867  0.1919  0.1317
19901TIP3    H181118   5.617   0.891   3.015 -0.4070  0.0500  0.2814
19901TIP3    H281119   5.731   0.991   3.018 -0.7062  0.3955  0.1656
19902TIP3   OH281120   2.714   4.178  13.709 -0.1711 -0.1163 -0.5499
19902TIP3    H181121   2.729   4.196  13.801  1.0381 -0.5282 -0.6581
19902TIP3    H281122   2.764   4.246  13.662  1.4189 -1.4865 -0.9104
19903TIP3   OH281123   3.284   1.787   2.165  0.2183  0.3465  0.2731
19903TIP3    H181124   3.266   1.793   2.072 -1.4413 -0.0914  0.5578
19903TIP3    H281125   3.199   1.773   2.206  1.0815 -0.8037  1.7396
19904TIP3   OH281126   5.078   3.717   5.518  0.0486 -0.4504 -0.0800
19904TIP3    H181127   5.029   3.657   5.462 -0.8051 -1.2297  1.4884
19904TIP3    H281128   5.096   3.792   5.461  0.1625 -1.6931 -1.7318
19905TIP3   OH281129   2.696   0.304  11.500  0.2512 -0.7119 -0.2233
19905TIP3    H181130   2.715   0.291  11.593  0.3141 -0.5200 -0.2088
19905TIP3    H281131   2.611   0.349  11.499  0.5532 -0.1339 -0.2367
19906TIP3   OH281132   0.768   3.880   1.861 -0.2780  0.4631  0.4143
19906TIP3    H181133   0.689   3.826   1.851  0.9930 -1.0471 -1.7536
19906TIP3    H281134   0.771   3.933   1.781  1.2508  0.0048  0.1452
19907TIP3   OH281135   1.926   0.580   2.679  0.7683  0.3577  0.3896
19907TIP3    H181136   1.922   0.547   2.589  0.5755 -0.4602  0.6975
19907TIP3    H281137   1.971   0.664   2.671 -0.1744  0.7840 -0.6100
19908TIP3   OH281138   6.677   6.678   4.253 -0.0988  0.2778  0.1771
19908TIP3    H181139   6.677   6.587   4.225  0.7598  0.2042  0.3947
19908TIP3    H281140   6.764   6.692   4.290 -0.6368  0.8612  1.2298
19909TIP3   OH281141   3.959   3.990   1.089 -0.2423  0.3214 -0.0147
19909TIP3    H181142   3.865   4.006   1.079 -0.5835 -2.1397 -1.3279
19909TIP3    H281143   3.975   4.000   1.183 -2.0269 -0.1005  0.3645
19910TIP3   OH281144   5.324   6.775  16.486  0.1348 -0.0708  0.2586
19910TIP3    H181145   5.415   6.775  16.457 -0.5480 -1.9068 -2.0782
19910TIP3    H281146   5.292   6.863  16.467  1.4663  0.6180  1.2304
19911TIP3   OH281147   0.879   3.491  12.565 -0.4351 -1.2668  0.3828
19911TIP3    H181148   0.913   3.413  12.609  1.0781  0.5782  2.6157
19911TIP3    H281149   0.946   3.557  12.578 -2.3913  0.8722 -0.0188
19912TIP3   OH281150   1.723   4.275  10.901 -0.3543 -0.3609  0.1639
19912TIP3    H181151   1.639   4.320  10.895  0.8044  2.2593  2.1126
19912TIP3    H281152   1.774   4.310  10.828  0.3175  1.0416  1.2788
19913TIP3   OH281153   3.198   1.902   0.225  0.1374 -0.3984 -0.1584
19913TIP3    H181154   3.224   1.933   0.138 -1.3191 -1.1008 -0.8614
19913TIP3    H281155   3.107   1.874   0.215  0.0593 -0.8375  1.5082
19914TIP3   OH281156   5.322   1.210   0.514  0.4221 -1.2542 -0.1988
19914TIP3    H181157   5.388   1.219   0.445 -0.7259  1.8804 -0.9870
19914TIP3    H281158   5.271   1.291   0.509 -2.0390 -2.5978  1.9114
19915TIP3   OH281159   6.758   2.090  10.919  0.2309 -0.1066 -0.2927
19915TIP3    H181160   6.673   2.051  10.898  0.3447 -0.3459 -0.3119
19915TIP3    H281161   6.799   2.028  10.979  0.6842 -0.3429 -0.8414
19916TIP3   OH281162   5.622   6.702  15.346 -0.4473  0.0235  0.4036
19916TIP3    H181163   5.564   6.647  15.293  0.0403 -1.0069  0.9027
19916TIP3    H281164   5.651   6.771  15.286 -1.2475 -0.1352 -0.1801
19917TIP3   OH281165   0.249   1.671   3.360 -0.0400  0.1455 -0.2598
19917TIP3    H181166   0.322   1.715   3.402  0.4461 -0.9671  0.0641
19917TIP3    H281167   0.261   1.688   3.266  0.7137 -0.1583 -0.2165
19918TIP3   OH281168   4.906   4.333  14.091  0.6007  0.3001 -0.4529
19918TIP3    H181169   4.928   4.291  14.008 -1.8604  1.0512 -1.5240
19918TIP3    H281170   4.990   4.363  14.126  1.8706 -1.5972 -1.7857
19919TIP3   OH281171   6.002   1.854   4.525  0.1887 -0.4247 -0.1200
19919TIP3    H181172   6.084   1.866   4.572  0.3922 -0.2547 -0.5158
19919TIP3    H281173   6.021   1.787   4.459 -0.4444 -1.5977  0.8716
19920TIP3   OH281174   6.430   2.200   1.724  0.1487  0.0144  0.1583
19920TIP3    H181175   6.338   2.205   1.749  0.6675 -0.3060  2.2395
19920TIP3    H281176   6.463   2.289   1.734  0.4868 -0.2186  1.1584
19921TIP3   OH281177   6.448   4.084  12.169  0.4510  0.3732 -0.1448
19921TIP3    H181178   6.382   4.153  12.179  1.2599  1.0196  0.8159
19921TIP3    H281179   6.531   4.130  12.169  1.0029 -0.6135  0.4552
19922TIP3   OH281180   1.726   5.475  17.060  0.4959  0.1937  0.5638
19922TIP3    H181181   1.786   5.524  17.004  0.0192  2.0749  1.6474
19922TIP3    H281182   1.775   5.460  17.141  1.0161 -2.0892 -0.1530
19923TIP3   OH281183   0.464   4.557   2.142 -0.0795  0.7963 -0.2699
19923TIP3    H181184   0.477   4.616   2.216 -0.9202  0.3738  0.2221
19923TIP3    H281185   0.380   4.585   2.105 -1.1196 -0.9110  0.7366
19924TIP3   OH281186   1.364   0.970   0.080 -0.3730  0.3522 -0.3980
19924TIP3    H181187   1.438   0.946   0.136 -1.2315 -0.7465  0.2840
19924TIP3    H281188   1.363   1.066   0.082  0.6792  0.3635  0.0457
19925TIP3   OH281189   6.025   0.524   4.969 -0.0427 -0.1838 -0.4153
19925TIP3    H181190   6.077   0.448   4.997  2.0679  2.0769  2.0546
19925TIP3    H281191   6.076   0.562   4.897 -0.3949 -0.3196 -0.7366
19926TIP3   OH281192   5.028   0.713  15.138  0.0770 -0.3011  0.1471
19926TIP3    H181193   4.946   0.690  15.096  0.3583 -0.3969 -0.3632
19926TIP3    H281194   5.053   0.797  15.098  0.2329 -0.2785  0.2895
19927TIP3   OH281195   0.249   4.947  14.041  0.1699 -0.4413  0.9150
19927TIP3    H181196   0.165   4.963  14.084  0.3030  0.0837  0.9789
19927TIP3    H281197   0.272   4.858  14.066 -0.3051 -0.5406  1.0059
19928TIP3   OH281198   0.384   3.333   3.349 -0.4015 -0.0622 -0.1915
19928TIP3    H181199   0.415   3.397   3.285 -0.8321 -0.3929 -0.7238
19928TIP3    H281200   0.380   3.383   3.431  2.9893 -0.3528  0.2451
19929TIP3   OH281201   0.609   1.865   2.347  0.4601 -0.6065  0.5159
19929TIP3    H181202   0.531   1.873   2.291  0.0877 -0.6564  1.0236
19929TIP3    H281203   0.612   1.773   2.371 -0.3871 -0.2693  1.9981
19930TIP3   OH281204   3.163   2.383   2.908  0.2077  0.3248  0.1931
19930TIP3    H181205   3.099   2.424   2.966 -0.8089  0.1729 -0.7951
19930TIP3    H281206   3.235   2.357   2.965 -1.0929 -0.5001  1.4945
19931TIP3   OH281207   0.404   5.997   1.687  0.3348  0.5880 -0.5348
19931TIP3    H181208   0.443   6.041   1.762 -0.3655 -0.1234  0.2568
19931TIP3    H281209   0.469   5.933   1.659  0.9927  1.5068 -1.1423
19932TIP3   OH281210   6.345   2.764   3.148 -0.6035  0.4653 -0.3210
19932TIP3    H181211   6.318   2.699   3.084 -1.2869 -0.8927  1.3069
19932TIP3    H281212   6.316   2.729   3.232  1.7447  1.3890  0.9313
19933TIP3   OH281213   1.112   0.454   5.712  0.3130 -0.0992 -0.0627
19933TIP3    H181214   1.200   0.453   5.673  0.9430  0.8976  1.2901
19933TIP3    H281215   1.086   0.546   5.709 -0.5397 -0.3441 -0.1411
19934TIP3   OH281216   4.110   4.704   3.512 -0.0444 -0.4669 -0.6830
19934TIP3    H181217   4.205   4.709   3.521 -0.1948 -0.1149  0.9462
19934TIP3    H281218   4.078   4.691   3.601 -1.6049  0.8612 -1.0058
19935TIP3   OH281219   3.628   1.605  13.089 -0.3700  0.1552  0.1510
19935TIP3    H181220   3.605   1.694  13.062  0.5309  0.8432  1.5860
19935TIP3    H281221   3.570   1.587  13.163 -1.9841 -1.2582 -1.3931
19936TIP3   OH281222   5.041   4.754   1.276 -0.3659  0.4031 -0.0536
19936TIP3    H181223   5.117   4.726   1.326  0.6055  1.7199 -0.7603
19936TIP3    H281224   5.077   4.788   1.194 -1.8403 -0.5795 -1.1486
19937TIP3   OH281225   2.136   4.377  15.418  0.8311  0.1371  0.1797
19937TIP3    H181226   2.191   4.420  15.353 -0.2066  0.3985 -0.5448
19937TIP3    H281227   2.055   4.428  15.418  1.2833  0.8852  2.5766
19938TIP3   OH281228   3.039   0.205   1.807  0.0382  0.2299  0.3720
19938TIP3    H181229   3.038   0.148   1.884 -1.6827 -0.3649 -0.0652
19938TIP3    H281230   3.130   0.234   1.799  0.0662  0.9580  3.1062
19939TIP3   OH281231   6.679   6.233  14.541 -0.5434 -0.3932 -0.4272
19939TIP3    H181232   6.638   6.253  14.625  1.0423 -0.0735  0.2939
19939TIP3    H281233   6.710   6.143  14.550 -0.7780 -0.5133 -0.8320
19940TIP3   OH281234   4.020   4.552  15.676 -0.6761  0.3552 -0.0780
19940TIP3    H181235   4.041   4.623  15.737  0.8524 -0.3933  0.2913
19940TIP3    H281236   3.960   4.496  15.724 -0.1236  0.2137  0.4564
19941TIP3   OH281237   3.232   2.265  11.276 -0.1887 -0.1108  0.7270
19941TIP3    H181238   3.282   2.186  11.254  2.0727  1.3936  0.2672
19941TIP3    H281239   3.276   2.300  11.353 -1.3418  0.5497  1.0911
19942TIP3   OH281240   2.446   0.992   2.122  0.3062 -0.2018  0.4048
19942TIP3    H181241   2.374   1.052   2.140  1.1703  0.9164  0.1454
19942TIP3    H281242   2.404   0.914   2.086 -0.6704  1.0067 -1.1363
19943TIP3   OH281243   2.226   2.304   3.437 -0.3968 -0.4469 -0.2791
19943TIP3    H181244   2.203   2.314   3.345 -1.0174 -0.5726 -0.1395
19943TIP3    H281245   2.150   2.261   3.476 -0.4863  0.3700  0.4625
19944TIP3   OH281246   3.754   3.663   5.074  0.0417 -0.3077 -0.0241
19944TIP3    H181247   3.775   3.576   5.041  0.2405 -0.2494 -0.0530
19944TIP3    H281248   3.832   3.715   5.055 -0.2880  0.0171 -0.5085
19945TIP3   OH281249   6.492   5.181  14.229 -0.0030 -0.4548  0.2663
19945TIP3    H181250   6.456   5.202  14.143  0.6251  2.2533  0.6187
19945TIP3    H281251   6.420   5.141  14.277 -0.6157 -1.1175 -1.2221
19946TIP3   OH281252   5.409   6.353   4.199  0.3946 -0.4047  0.4628
19946TIP3    H181253   5.393   6.272   4.151  0.1818 -0.4109  0.5449
19946TIP3    H281254   5.322   6.393   4.209  0.6731  0.5947 -0.9003
19947TIP3   OH281255   2.918   2.347  12.573  0.3092  0.4523  0.7323
19947TIP3    H181256   2.864   2.380  12.645  2.5902  1.9681  1.8212
19947TIP3    H281257   2.983   2.416  12.558 -0.4843  0.4542 -3.2460
19948TIP3   OH281258   0.584   6.162   4.198 -0.0799  0.5071  0.1276
19948TIP3    H181259   0.496   6.197   4.184 -0.2175 -0.1325 -0.6114
19948TIP3    H281260   0.570   6.080   4.246  0.1016  0.3351 -0.1107
19949TIP3   OH281261   1.033   3.725  16.264 -0.6424  0.0459  0.7626
19949TIP3    H181262   1.100   3.684  16.319  0.3896 -0.2711 -0.7313
19949TIP3    H281263   1.006   3.656  16.203  0.2094  1.1941 -0.9485
19950TIP3   OH281264   4.421   2.434  14.414 -0.6827  0.3788 -0.0075
19950TIP3    H181265   4.495   2.374  14.404  0.2594  1.3822  0.8600
19950TIP3    H281266   4.447   2.513  14.366 -0.8004  1.0744  1.0595
19951TIP3   OH281267   5.607   1.761   4.925  0.5081 -0.2363 -0.5040
19951TIP3    H181268   5.647   1.770   5.011 -1.0451 -2.3714  0.5179
19951TIP3    H281269   5.530   1.817   4.928  1.5445  1.2512 -1.2511
19952TIP3   OH281270   0.491   0.863  16.157  0.4841 -0.0050 -0.1374
19952TIP3    H181271   0.522   0.882  16.246 -0.7324 -0.6571  0.4461
19952TIP3    H281272   0.430   0.790  16.169 -0.3262  0.4563 -1.4032
19953TIP3   OH281273   2.425   5.382   3.779  0.0086 -0.4213  0.6091
19953TIP3    H181274   2.425   5.288   3.799  0.7926 -0.1863  1.7795
19953TIP3    H281275   2.365   5.391   3.705  1.2304 -2.0771 -0.6325
19954TIP3   OH281276   0.609   6.589   0.211 -0.0989  0.3268  0.1051
19954TIP3    H181277   0.683   6.648   0.198 -0.7041  1.3310  1.1146
19954TIP3    H281278   0.641   6.524   0.273 -0.2393  1.1004  0.9971
19955TIP3   OH281279   2.582   4.870  12.159 -0.2401 -0.2806  0.5232
19955TIP3    H181280   2.612   4.824  12.238 -0.1571  0.9857  1.2358
19955TIP3    H281281   2.598   4.807  12.089  0.0900 -1.2675  1.4488
19956TIP3   OH281282   1.015   3.343  15.571 -0.8101 -0.4156 -0.1163
19956TIP3    H181283   1.105   3.321  15.546 -1.1880 -1.1723 -0.8571
19956TIP3    H281284   1.001   3.430  15.534 -1.0865 -1.1891 -1.8756
19957TIP3   OH281285   6.407   5.066  11.417 -0.3261  0.6966  0.0386
19957TIP3    H181286   6.456   5.043  11.338 -0.1692 -1.8151  0.8332
19957TIP3    H281287   6.449   5.145  11.449  3.0586 -1.2429  0.5458
19958TIP3   OH281288   6.341   1.049  16.626  0.4162  0.0417 -0.1276
19958TIP3    H181289   6.262   1.070  16.577  0.4285  1.9307  0.6376
19958TIP3    H281290   6.326   1.087  16.713  2.6252  1.3750 -0.3092
19959LIG      O81291   4.778   4.873  16.703 -0.1285  0.0702  0.5418
19959LIG      N81292   4.648   5.302  16.478  0.4369  0.5972 -0.4984
19959LIG     C181293   4.919   4.928  16.522  0.1974  0.5541 -0.0807
19959LIG     C281294   4.839   4.989  16.638 -0.2829  0.5356  0.1657
19959LIG     C381295   5.025   4.823  16.558 -0.3716  0.0511  0.2070
19959LIG     C481296   4.820   4.866  16.420  0.1823  0.4011  0.8314
19959LIG     C581297   4.725   5.099  16.604  0.6585  0.6350  0.3575
19959LIG     C681298   5.096   4.793  16.430 -0.5515 -0.2271 -0.2312
19959LIG     C781299   4.887   4.806  16.294 -0.1762 -0.5417  0.7098
19959LIG     C881300   5.009   4.724  16.325  0.2831  0.2591 -0.6237
19959LIG     C981301   4.767   5.220  16.521  0.5528 -0.0089  0.0559
19959LIG    C1081302   4.939   5.068  16.736  0.5576 -0.3715 -0.0034
19959LIG    C1181303   4.675   5.377  16.352  0.2979  0.2108 -0.1782
19959LIG    C1281304   4.600   5.378  16.591  0.5348 -0.2205  0.1970
19959LIG    C1381305   4.560   5.456  16.299 -0.1565  0.7229 -0.2329
19959LIG    C1481306   4.473   5.457  16.547 -0.0335  0.7277  0.5107
19959LIG    C1581307   4.496   5.543  16.415 -0.4115 -0.6101 -0.8132
19959LIG    C1681308   5.073   5.115  16.709 -0.4663  0.5583  0.5576
19959LIG    C1781309   4.885   5.096  16.862  0.6918 -0.2412 -0.1435
19959LIG    C1881310   5.139   5.203  16.793  0.5682  0.2870  0.3433
19959LIG    C1981311   4.953   5.177  16.952  0.2520  0.7608 -0.0990
19959LIG    C2081312   5.078   5.228  16.915 -0.0873  0.4674 -0.5072
19959LIG     H181313   4.966   5.019  16.479  0.4605  2.1146  3.3155
19959LIG     H281314   4.981   4.736  16.611  2.1161 -1.9313 -0.8734
19959LIG     H381315   5.099   4.864  16.630 -2.0097  2.4513  0.5742
19959LIG     H481316   4.741   4.936  16.386  0.8764 -0.1166 -2.0028
19959LIG     H581317   4.754   4.785  16.459 -1.0138  0.6879 -0.5313
19959LIG     H681318   4.685   5.132  16.702  0.6789 -0.3367  0.6979
19959LIG     H781319   4.652   5.045  16.540  0.8703  1.6395 -0.7261
19959LIG     H881320   5.181   4.725  16.450 -1.8646 -1.1432  2.4460
19959LIG     H981321   5.133   4.887  16.383  1.2939  0.0447  1.6789
19959LIG    H1081322   4.902   4.902  16.241  4.8305 -0.3975  2.0929
19959LIG    H1181323   4.814   4.751  16.232  0.6359  0.8834 -1.5725
19959LIG    H1281324   4.977   4.626  16.367  1.5584  0.4364  0.8460
19959LIG    H1381325   5.069   4.704  16.234 -0.3265 -1.0712 -0.7342
19959LIG    H1481326   4.830   5.298  16.569  0.5599 -0.3831  0.6634
19959LIG    H1581327   4.821   5.187  16.430 -1.5591 -2.0178 -0.5309
19959LIG    H1681328   4.709   5.296  16.284 -1.3507 -0.0347 -0.7391
19959LIG    H1781329   4.772   5.429  16.365  0.6066 -0.9760  2.7061
19959LIG    H1881330   4.674   5.447  16.636 -1.8637  1.3263  1.9613
19959LIG    H1981331   4.559   5.307  16.667 -1.9184  2.7430  1.8057
19959LIG    H2081332   4.863   4.828  16.707 -1.1212 -1.7803  1.0062
19959LIG    H2181333   4.477   5.391  16.263  0.2071 -0.0012  0.2225
19959LIG    H2281334   4.594   5.519  16.214  1.6728  0.7049  0.4631
19959LIG    H2381335   4.434   5.519  16.630  1.8614  0.7617  1.3942
19959LIG    H2481336   4.391   5.387  16.519  1.3084  0.1349 -2.1116
19959LIG    H2581337   4.402   5.588  16.375  0.2872  2.4830  0.8563
19959LIG    H2681338   4.568   5.625  16.434 -0.7790  0.5216 -3.9621
19959LIG    H2781339   5.119   5.088  16.615  0.1929 -1.9285  1.5763
19959LIG    H2881340   4.787   5.059  16.888 -0.5738  1.8121 -1.7793
19959LIG    H2981341   5.238   5.239  16.768  1.9642 -2.1308  2.2051
19959LIG    H3081342   4.908   5.203  17.046 -0.2358  0.9597 -0.3847
19959LIG    H3181343   5.129   5.290  16.987  0.8450  0.4888 -1.1868
   6.78697   6.78697  17.23950
